 Gaussian 09, Revision D.01,
 Gaussian 09:  ES64L-G09RevD.01 24-Apr-2013

 -----------------------------
 # b3lyp 6-31G(2df,p) opt Freq
 -----------------------------

 -----
 titel
 -----
 Symbolic Z-matrix:
 Charge =  0 Multiplicity = 1

 SCF Done:  E(RB3LYP) =  -423.144323080     A.U. after   13 cycles
 Optimization completed.
    -- Stationary point found.
 Normal termination of Gaussian 09 at Mon Jan 27 22:06:09 2020.

 ----------------------------------------------------------------------
 #N Geom=AllCheck Guess=TCheck SCRF=Check GenChk RB3LYP/6-31G(2df,p) Fr
 eq
 ----------------------------------------------------------------------

 Structure from the checkpoint file:  "/scratch/puck/g09_b8446e1c-dcef-4ff4-85c5-0887a97464c8/Gau-46863.chk"
 -----
 titel
 -----
 Charge =  0 Multiplicity = 1

                         Standard orientation:
 ---------------------------------------------------------------------
 Center     Atomic      Atomic             Coordinates (Angstroms)
 Number     Number       Type             X           Y           Z
 ---------------------------------------------------------------------
      1          8           0       -1.869420    1.329682   -0.339376
      2          6           0       -0.881108    0.813027    0.527215
      3          6           0        0.558871    1.049920    0.081728
      4          6           0        0.976521   -0.044124   -0.958482
      5          6           0        2.413281   -0.013049   -0.384897
      6          6           0        1.482067    0.048690    0.849334
      7          6           0        0.565298   -1.030047    0.184675
      8          6           0       -0.876711   -0.761605    0.572995
      9          8           0       -1.741409   -1.319055   -0.413475
     10          1           0       -1.947273    0.688767   -1.058840
     11          1           0       -1.074262    1.251122    1.512605
     12          1           0        0.889271    2.079137   -0.067548
     13          1           0        0.676759   -0.104188   -2.005200
     14          1           0        3.011124   -0.921449   -0.504768
     15          1           0        3.009167    0.879723   -0.594650
     16          1           0        1.765679    0.099891    1.902723
     17          1           0        0.901327   -2.067045    0.139730
     18          1           0       -1.127638   -1.156615    1.565820
     19          1           0       -2.646837   -1.211239   -0.102474
 ---------------------------------------------------------------------

 SCF Done:  E(RB3LYP) =  -423.144323080     A.U. after    1 cycles

 The electronic state is 1-A.
 Alpha  occ. eigenvalues --  -19.14970 -19.12716 -10.23045 -10.22226 -10.20112
 Alpha  occ. eigenvalues --  -10.19830 -10.19168 -10.18685 -10.18589  -1.03776
 Alpha  occ. eigenvalues --   -1.00238  -0.92204  -0.75367  -0.68981  -0.63415
 Alpha  occ. eigenvalues --   -0.62704  -0.57864  -0.53105  -0.51104  -0.50739
 Alpha  occ. eigenvalues --   -0.49644  -0.44337  -0.43275  -0.42284  -0.37330
 Alpha  occ. eigenvalues --   -0.36978  -0.33287  -0.32737  -0.31723  -0.31580
 Alpha  occ. eigenvalues --   -0.30274  -0.30110  -0.28368  -0.25044
 Alpha virt. eigenvalues --    0.06118   0.10846   0.11569   0.12163   0.13670
 Alpha virt. eigenvalues --    0.14943   0.15033   0.15406   0.15542   0.16631
 Alpha virt. eigenvalues --    0.17419   0.18664   0.19052   0.20646   0.21566

 Mulliken charges:
               1
     1  O   -0.447703
     2  C    0.087974
     3  C   -0.033108
     4  C   -0.060903
     5  C   -0.238057
     6  C   -0.076632
     7  C   -0.000189
     8  C    0.034456
     9  O   -0.439048
    10  H    0.278980
    11  H    0.077205
    12  H    0.067591
    13  H    0.074924
    14  H    0.089832
    15  H    0.090898
    16  H    0.067642
    17  H    0.068784
    18  H    0.067123
    19  H    0.290230
 Sum of Mulliken charges =   0.00000

 Dipole moment (field-independent basis, Debye):
    X=              0.2944    Y=             -0.8952    Z=              0.8614  Tot=              1.2767
 Quadrupole moment (field-independent basis, Debye-Ang):
   XX=            -51.0036   YY=            -56.8750   ZZ=            -51.3911
   XY=              3.6064   XZ=             -0.8960   YZ=             -0.8922

  Exact polarizability:  84.614   0.648  70.888  -1.012   0.035  68.092
 Approx polarizability: 113.389  -0.157 108.750   1.647   1.122 108.652

                      1                      2                      3
                      A                      A                      A
 Frequencies --    101.3631               158.5237               213.4875
 Red. masses --      3.2993                 1.1561                 4.0130
 Frc consts  --      0.0200                 0.0171                 0.1078
 IR Inten    --     21.7142               184.7818                 1.9271

                      4                      5                      6
                      A                      A                      A
 Frequencies --    314.7036               344.6825               458.8713
 Red. masses --      5.5723                 3.2943                 2.9871
 Frc consts  --      0.3252                 0.2306                 0.3706
 IR Inten    --      5.2857                 1.3751                 1.0418

                      7                      8                      9
                      A                      A                      A
 Frequencies --    499.6329               567.9107               584.0664
 Red. masses --      4.7823                 1.2612                 2.6063
 Frc consts  --      0.7034                 0.2397                 0.5238
 IR Inten    --      2.6375                11.9616                 8.8865

                     10                     11                     12
                      A                      A                      A
 Frequencies --    682.0482               737.9925               809.4249
 Red. masses --      4.0743                 3.8546                 2.7306
 Frc consts  --      1.1167                 1.2369                 1.0541
 IR Inten    --      7.9533                 3.8101                 8.7121

                     13                     14                     15
                      A                      A                      A
 Frequencies --    822.4496               859.1186               885.9877
 Red. masses --      2.7453                 2.8949                 2.0844
 Frc consts  --      1.0941                 1.2589                 0.9640
 IR Inten    --     12.2073                 5.3308                 2.4947

                     16                     17                     18
                      A                      A                      A
 Frequencies --    899.9633               915.8246               953.1032
 Red. masses --      2.4177                 2.2796                 3.8781
 Frc consts  --      1.1537                 1.1265                 2.0756
 IR Inten    --      1.7820                 0.2647                 1.3458

                     19                     20                     21
                      A                      A                      A
 Frequencies --    974.1059              1009.4034              1043.5601
 Red. masses --      1.5553                 1.0836                 1.5893
 Frc consts  --      0.8695                 0.6505                 1.0198
 IR Inten    --      2.8779                 0.9038                20.1781

                     22                     23                     24
                      A                      A                      A
 Frequencies --   1066.6423              1075.3922              1093.5495
 Red. masses --      1.3763                 1.2920                 3.6061
 Frc consts  --      0.9225                 0.8804                 2.5407
 IR Inten    --      2.4318                 1.1912                44.2353

                     25                     26                     27
                      A                      A                      A
 Frequencies --   1099.5817              1116.8473              1137.8412
 Red. masses --      3.0458                 3.6956                 1.7854
 Frc consts  --      2.1697                 2.7159                 1.3619
 IR Inten    --     23.3418                69.2430                14.6733

                     28                     29                     30
                      A                      A                      A
 Frequencies --   1155.0416              1190.7256              1216.2200
 Red. masses --      1.4331                 1.3958                 1.4644
 Frc consts  --      1.1265                 1.1660                 1.2763
 IR Inten    --      3.1899                 2.9681                19.6349

                     31                     32                     33
                      A                      A                      A
 Frequencies --   1228.9812              1237.5504              1258.3276
 Red. masses --      1.6119                 1.5103                 1.4613
 Frc consts  --      1.4344                 1.3628                 1.3633
 IR Inten    --      2.4139                14.5767                52.9710

                     34                     35                     36
                      A                      A                      A
 Frequencies --   1267.0961              1288.7958              1312.9988
 Red. masses --      1.7068                 1.6590                 1.4516
 Frc consts  --      1.6146                 1.6236                 1.4745
 IR Inten    --      2.8572                 0.8786                12.3692

                     37                     38                     39
                      A                      A                      A
 Frequencies --   1332.9977              1366.3798              1426.0595
 Red. masses --      1.4516                 1.5750                 1.5190
 Frc consts  --      1.5196                 1.7325                 1.8200
 IR Inten    --      6.7560                 2.1368                 6.9327

                     40                     41                     42
                      A                      A                      A
 Frequencies --   1446.4762              1520.3895              3015.7109
 Red. masses --      1.2372                 1.1309                 1.0854
 Frc consts  --      1.5252                 1.5403                 5.8158
 IR Inten    --     77.6436                 0.0907                35.3266

                     43                     44                     45
                      A                      A                      A
 Frequencies --   3045.2033              3050.6821              3086.1181
 Red. masses --      1.0541                 1.0859                 1.0886
 Frc consts  --      5.7592                 5.9544                 6.1088
 IR Inten    --     59.8311                52.6313                56.8022

                     46                     47                     48
                      A                      A                      A
 Frequencies --   3102.0379              3104.5354              3107.8063
 Red. masses --      1.0878                 1.1046                 1.0929
 Frc consts  --      6.1673                 6.2725                 6.2193
 IR Inten    --     49.5478                 0.5310               107.2750

                     49                     50                     51
                      A                      A                      A
 Frequencies --   3115.7695              3753.1618              3810.4736
 Red. masses --      1.0952                 1.0647                 1.0661
 Frc consts  --      6.2642                 8.8363                 9.1201
 IR Inten    --      8.4417                34.3456                28.1743

 - Thermochemistry -
 -------------------
 Temperature   298.150 Kelvin.  Pressure   1.00000 Atm.
 Atom     1 has atomic number  8 and mass  15.99491

 Molecular mass:   126.06808 amu.
 Principal axes and moments of inertia in atomic units:
                           1         2         3
     Eigenvalues --   572.176721153.435211382.62957
           X            0.99989   0.01069  -0.01000
           Y           -0.01079   0.99989  -0.00977
           Z            0.00990   0.00988   0.99990
 This molecule is an asymmetric top.
 Rotational symmetry number  1.
 Warning -- assumption of classical behavior for rotation
           may cause significant error
 Rotational temperatures (Kelvin)      0.15138     0.07509     0.06264
 Rotational constants (GHZ):           3.15417     1.56467     1.30530
 Zero-point vibrational energy     423870.5 (Joules/Mol)
                                  101.30748 (Kcal/Mol)
 Warning -- explicit consideration of   9 degrees of freedom as
           vibrations may cause significant error
 Vibrational temperatures:    145.84   228.08   307.16   452.79   495.92
          (Kelvin)            660.21   718.86   817.10   840.34   981.31
                             1061.81  1164.58  1183.32  1236.08  1274.74
                             1294.84  1317.67  1371.30  1401.52  1452.30
                             1501.45  1534.66  1547.25  1573.37  1582.05
                             1606.89  1637.10  1661.85  1713.19  1749.87
                             1768.23  1780.56  1810.45  1823.07  1854.29
                             1889.11  1917.88  1965.91  2051.78  2081.15
                             2187.50  4338.93  4381.36  4389.25  4440.23
                             4463.14  4466.73  4471.43  4482.89  5399.96
                             5482.41

 Zero-point correction=                           0.161444 (Hartree/Particle)
 Thermal correction to Energy=                    0.168835
 Thermal correction to Enthalpy=                  0.169779
 Thermal correction to Gibbs Free Energy=         0.129678
 Sum of electronic and zero-point Energies=           -422.982879
 Sum of electronic and thermal Energies=              -422.975488
 Sum of electronic and thermal Enthalpies=            -422.974544
 Sum of electronic and thermal Free Energies=         -423.014645

                     E (Thermal)             CV                S
                      KCal/Mol        Cal/Mol-Kelvin    Cal/Mol-Kelvin
 Total                  105.945             29.921             84.399
 Electronic               0.000              0.000              0.000
 Translational            0.889              2.981             40.409
 Rotational               0.889              2.981             28.303
 Vibrational            104.168             23.959             15.687
 Vibration     1          0.604              1.948              3.428
 Vibration     2          0.621              1.893              2.567
 Vibration     3          0.644              1.820              2.014
 Vibration     4          0.702              1.646              1.337
 Vibration     5          0.723              1.586              1.190
 Vibration     6          0.817              1.341              0.769
 Vibration     7          0.855              1.251              0.659
 Vibration     8          0.924              1.101              0.508
 Vibration     9          0.941              1.066              0.478

 Optimization completed.
    -- Stationary point found.
 Normal termination of Gaussian 09 at Mon Jan 27 22:58:13 2020.
