 Gaussian 09, Revision D.01,
 Gaussian 09:  ES64L-G09RevD.01 24-Apr-2013

 -----------------------------
 # b3lyp 6-31G(2df,p) opt Freq
 -----------------------------

 -----
 titel
 -----
 Symbolic Z-matrix:
 Charge =  0 Multiplicity = 1

 SCF Done:  E(RB3LYP) =  -423.153377719     A.U. after   14 cycles
 Optimization completed.
    -- Stationary point found.
 Normal termination of Gaussian 09 at Mon Jan 27 22:55:28 2020.

 ----------------------------------------------------------------------
 #N Geom=AllCheck Guess=TCheck SCRF=Check GenChk RB3LYP/6-31G(2df,p) Fr
 eq
 ----------------------------------------------------------------------

 Structure from the checkpoint file:  "/scratch/puck/g09_a004bf7a-6f0b-43da-96ca-629ae0a41687/Gau-183371.chk"
 -----
 titel
 -----
 Charge =  0 Multiplicity = 1

                         Standard orientation:
 ---------------------------------------------------------------------
 Center     Atomic      Atomic             Coordinates (Angstroms)
 Number     Number       Type             X           Y           Z
 ---------------------------------------------------------------------
      1          6           0        3.081805   -0.087839   -0.646521
      2          6           0        1.767385    0.346683   -0.033789
      3          6           0        1.011317   -0.652938    0.778132
      4          8           0       -0.115790   -0.048203    1.417567
      5          6           0       -0.736595    0.229370    0.118460
      6          6           0       -1.200518    1.657889   -0.061848
      7          6           0       -1.866708   -0.781000   -0.065822
      8          8           0       -2.843587   -0.595810   -0.742435
      9          6           0        0.515189   -0.296986   -0.607679
     10          1           0        3.289401    0.461460   -1.570609
     11          1           0        3.912000    0.087599    0.045245
     12          1           0        3.072309   -1.155314   -0.892248
     13          1           0        1.719447    1.383908    0.289822
     14          1           0        1.415902   -1.561990    1.208343
     15          1           0       -1.758390    1.741657   -0.997871
     16          1           0       -1.870572    1.940198    0.755929
     17          1           0       -0.357718    2.351439   -0.076389
     18          1           0       -1.693924   -1.731402    0.485115
     19          1           0        0.515312   -0.856530   -1.533994
 ---------------------------------------------------------------------

 SCF Done:  E(RB3LYP) =  -423.153377719     A.U. after    1 cycles

 The electronic state is 1-A.
 Alpha  occ. eigenvalues --  -19.15047 -19.14715 -10.27128 -10.25468 -10.24774
 Alpha  occ. eigenvalues --  -10.20728 -10.20579 -10.19230 -10.18104  -1.06627
 Alpha  occ. eigenvalues --   -1.05040  -0.85169  -0.77449  -0.72040  -0.67585
 Alpha  occ. eigenvalues --   -0.60429  -0.58472  -0.53306  -0.51337  -0.50752
 Alpha  occ. eigenvalues --   -0.46529  -0.45228  -0.42469  -0.42199  -0.41034
 Alpha  occ. eigenvalues --   -0.39373  -0.38739  -0.38426  -0.36989  -0.34114
 Alpha  occ. eigenvalues --   -0.32509  -0.28947  -0.26687  -0.23631
 Alpha virt. eigenvalues --   -0.03077   0.07383   0.09568   0.10438   0.11777
 Alpha virt. eigenvalues --    0.12758   0.13784   0.14687   0.15472   0.15810
 Alpha virt. eigenvalues --    0.16496   0.17548   0.18174   0.21257   0.22330

 Mulliken charges:
               1
     1  C   -0.425686
     2  C   -0.051011
     3  C    0.088293
     4  O   -0.334917
     5  C    0.288680
     6  C   -0.452798
     7  C    0.140314
     8  O   -0.252049
     9  C   -0.173905
    10  H    0.127612
    11  H    0.127371
    12  H    0.119181
    13  H    0.095230
    14  H    0.107071
    15  H    0.144098
    16  H    0.134964
    17  H    0.120725
    18  H    0.089440
    19  H    0.107385
 Sum of Mulliken charges =   0.00000

 Dipole moment (field-independent basis, Debye):
    X=              2.8574    Y=             -0.1455    Z=             -0.4060  Tot=              2.8898
 Quadrupole moment (field-independent basis, Debye-Ang):
   XX=            -58.1836   YY=            -50.5261   ZZ=            -56.0633
   XY=             -2.2339   XZ=             -3.1091   YZ=             -0.9317

  Exact polarizability:  95.152  -1.198  70.137   2.396  -2.661  64.213
 Approx polarizability: 126.218  -1.188 101.223   9.672  -4.627 107.239

                      1                      2                      3
                      A                      A                      A
 Frequencies --     53.7502               138.1342               184.0875
 Red. masses --      4.8883                 3.0371                 1.1298
 Frc consts  --      0.0083                 0.0341                 0.0226
 IR Inten    --      6.5150                 0.4776                 0.3402

                      4                      5                      6
                      A                      A                      A
 Frequencies --    196.7682               232.0955               246.4574
 Red. masses --      1.2142                 2.2062                 2.1092
 Frc consts  --      0.0277                 0.0700                 0.0755
 IR Inten    --      0.3408                 2.8199                 3.2653

                      7                      8                      9
                      A                      A                      A
 Frequencies --    280.1720               318.0279               349.8535
 Red. masses --      2.5669                 2.8828                 3.2719
 Frc consts  --      0.1187                 0.1718                 0.2360
 IR Inten    --      4.0707                 1.2047                 1.0339

                     10                     11                     12
                      A                      A                      A
 Frequencies --    447.5262               488.4962               559.3664
 Red. masses --      3.7863                 4.4673                 4.3603
 Frc consts  --      0.4468                 0.6281                 0.8038
 IR Inten    --      0.8791                14.3279                 8.2970

                     13                     14                     15
                      A                      A                      A
 Frequencies --    713.1540               779.7725               833.0890
 Red. masses --      3.6175                 1.7061                 3.3222
 Frc consts  --      1.0840                 0.6112                 1.3585
 IR Inten    --      4.7785                 7.5367                31.7640

                     16                     17                     18
                      A                      A                      A
 Frequencies --    855.0762               884.8158               902.3756
 Red. masses --      2.1211                 2.1416                 2.3130
 Frc consts  --      0.9137                 0.9878                 1.1097
 IR Inten    --      1.5120                 5.0264                12.1863

                     19                     20                     21
                      A                      A                      A
 Frequencies --    960.7735               988.8306              1020.7693
 Red. masses --      1.9778                 1.5583                 1.8145
 Frc consts  --      1.0757                 0.8977                 1.1139
 IR Inten    --     15.2855                 3.9191                34.4960

                     22                     23                     24
                      A                      A                      A
 Frequencies --   1025.7331              1046.9284              1055.2608
 Red. masses --      1.6862                 2.1398                 1.6679
 Frc consts  --      1.0453                 1.3818                 1.0943
 IR Inten    --      4.8479                52.1050                 0.8488

                     25                     26                     27
                      A                      A                      A
 Frequencies --   1105.1349              1131.2353              1144.6572
 Red. masses --      1.9882                 2.2299                 1.6828
 Frc consts  --      1.4307                 1.6813                 1.2991
 IR Inten    --      1.6930                12.7407                12.4011

                     28                     29                     30
                      A                      A                      A
 Frequencies --   1169.9851              1209.7444              1255.3833
 Red. masses --      1.9453                 2.1428                 1.9913
 Frc consts  --      1.5689                 1.8477                 1.8490
 IR Inten    --     12.9697                 1.7405                 1.6808

                     31                     32                     33
                      A                      A                      A
 Frequencies --   1273.6870              1286.4784              1391.6514
 Red. masses --      3.4555                 1.4148                 1.2063
 Frc consts  --      3.3028                 1.3796                 1.3764
 IR Inten    --      5.7659                11.9635                 0.8945

                     34                     35                     36
                      A                      A                      A
 Frequencies --   1412.4220              1413.7652              1418.6748
 Red. masses --      1.5227                 2.0282                 1.2324
 Frc consts  --      1.7897                 2.3884                 1.4613
 IR Inten    --     12.4681                 7.7868                 3.5402

                     37                     38                     39
                      A                      A                      A
 Frequencies --   1478.3838              1488.2454              1493.6501
 Red. masses --      1.0516                 1.0524                 1.0463
 Frc consts  --      1.3542                 1.3734                 1.3753
 IR Inten    --      5.4056                 2.7317                 2.4386

                     40                     41                     42
                      A                      A                      A
 Frequencies --   1503.9872              1831.6641              2899.7100
 Red. masses --      1.0707                10.8949                 1.0848
 Frc consts  --      1.4270                21.5360                 5.3742
 IR Inten    --      5.7032               171.6266                82.3915

                     43                     44                     45
                      A                      A                      A
 Frequencies --   3031.7309              3051.7591              3096.5802
 Red. masses --      1.0350                 1.0353                 1.0998
 Frc consts  --      5.6051                 5.6808                 6.2133
 IR Inten    --     30.7819                 9.2761                15.0101

                     46                     47                     48
                      A                      A                      A
 Frequencies --   3100.3594              3123.1827              3132.6979
 Red. masses --      1.1018                 1.1000                 1.0901
 Frc consts  --      6.2400                 6.3220                 6.3032
 IR Inten    --     18.8304                10.6595                15.4161

                     49                     50                     51
                      A                      A                      A
 Frequencies --   3140.5194              3177.0100              3198.5382
 Red. masses --      1.1017                 1.0905                 1.0960
 Frc consts  --      6.4019                 6.4852                 6.6063
 IR Inten    --     15.2844                17.7662                 6.7972

 - Thermochemistry -
 -------------------
 Temperature   298.150 Kelvin.  Pressure   1.00000 Atm.
 Atom     1 has atomic number  6 and mass  12.00000

 Molecular mass:   126.06808 amu.
 Principal axes and moments of inertia in atomic units:
                           1         2         3
     Eigenvalues --   511.160021711.539591746.33392
           X            0.99962  -0.02097  -0.01768
           Y            0.01890   0.99377  -0.10983
           Z            0.01988   0.10945   0.99379
 This molecule is an asymmetric top.
 Rotational symmetry number  1.
 Warning -- assumption of classical behavior for rotation
           may cause significant error
 Rotational temperatures (Kelvin)      0.16945     0.05061     0.04960
 Rotational constants (GHZ):           3.53068     1.05445     1.03345
 Zero-point vibrational energy     409853.5 (Joules/Mol)
                                   97.95733 (Kcal/Mol)
 Warning -- explicit consideration of  12 degrees of freedom as
           vibrations may cause significant error
 Vibrational temperatures:     77.33   198.74   264.86   283.11   333.93
          (Kelvin)            354.60   403.10   457.57   503.36   643.89
                              702.84   804.80  1026.07  1121.92  1198.63
                             1230.26  1273.05  1298.32  1382.34  1422.70
                             1468.66  1475.80  1506.29  1518.28  1590.04
                             1627.59  1646.90  1683.35  1740.55  1806.21
                             1832.55  1850.95  2002.27  2032.16  2034.09
                             2041.15  2127.06  2141.25  2149.03  2163.90
                             2635.35  4172.03  4361.98  4390.80  4455.28
                             4460.72  4493.56  4507.25  4518.50  4571.00
                             4601.98

 Zero-point correction=                           0.156105 (Hartree/Particle)
 Thermal correction to Energy=                    0.165307
 Thermal correction to Enthalpy=                  0.166251
 Thermal correction to Gibbs Free Energy=         0.122074
 Sum of electronic and zero-point Energies=           -422.997273
 Sum of electronic and thermal Energies=              -422.988071
 Sum of electronic and thermal Enthalpies=            -422.987126
 Sum of electronic and thermal Free Energies=         -423.031304

                     E (Thermal)             CV                S
                      KCal/Mol        Cal/Mol-Kelvin    Cal/Mol-Kelvin
 Total                  103.732             34.069             92.979
 Electronic               0.000              0.000              0.000
 Translational            0.889              2.981             40.409
 Rotational               0.889              2.981             28.815
 Vibrational            101.954             28.108             23.756
 Vibration     1          0.596              1.976              4.674
 Vibration     2          0.614              1.915              2.830
 Vibration     3          0.631              1.862              2.287
 Vibration     4          0.636              1.844              2.163
 Vibration     5          0.653              1.792              1.863
 Vibration     6          0.661              1.769              1.756
 Vibration     7          0.680              1.710              1.533
 Vibration     8          0.704              1.639              1.320
 Vibration     9          0.727              1.576              1.167
 Vibration    10          0.807              1.366              0.803
 Vibration    11          0.844              1.276              0.688
 Vibration    12          0.915              1.119              0.525

 Optimization completed.
    -- Stationary point found.
 Normal termination of Gaussian 09 at Mon Jan 27 23:37:17 2020.
