 Gaussian 09, Revision D.01,
 Gaussian 09:  ES64L-G09RevD.01 24-Apr-2013

 -----------------------------
 # b3lyp 6-31G(2df,p) opt Freq
 -----------------------------

 -----
 titel
 -----
 Symbolic Z-matrix:
 Charge =  0 Multiplicity = 1

 SCF Done:  E(RB3LYP) =  -423.170753608     A.U. after   14 cycles
 Optimization completed.
    -- Stationary point found.
 Normal termination of Gaussian 09 at Mon Jan 27 17:16:44 2020.

 ----------------------------------------------------------------------
 #N Geom=AllCheck Guess=TCheck SCRF=Check GenChk RB3LYP/6-31G(2df,p) Fr
 eq
 ----------------------------------------------------------------------

 Structure from the checkpoint file:  "/scratch/puck/g09_50abc85d-17ca-44e6-b344-238dd475a30c/Gau-60102.chk"
 -----
 titel
 -----
 Charge =  0 Multiplicity = 1

                         Standard orientation:
 ---------------------------------------------------------------------
 Center     Atomic      Atomic             Coordinates (Angstroms)
 Number     Number       Type             X           Y           Z
 ---------------------------------------------------------------------
      1          6           0        2.714980   -0.606937   -0.115915
      2          6           0        1.235102   -0.472790    0.029394
      3          6           0        0.137987   -1.455399   -0.412366
      4          6           0       -0.857383   -0.239264   -0.531782
      5          6           0       -2.072748   -0.254682    0.355300
      6          8           0       -3.206776   -0.128843   -0.037213
      7          6           0        0.309827    0.676661   -0.063619
      8          6           0        0.489950    2.131586   -0.348496
      9          8           0        0.726584    0.169126    1.215273
     10          1           0        3.099099   -1.387866    0.550229
     11          1           0        2.981568   -0.879360   -1.142077
     12          1           0        3.214892    0.330757    0.140618
     13          1           0        0.318797   -1.923487   -1.382416
     14          1           0       -0.113035   -2.224504    0.323050
     15          1           0       -1.161676   -0.048813   -1.563091
     16          1           0       -1.844909   -0.390753    1.434236
     17          1           0       -0.245944    2.729036    0.201197
     18          1           0        1.487346    2.461250   -0.045602
     19          1           0        0.359115    2.336429   -1.415717
 ---------------------------------------------------------------------

 SCF Done:  E(RB3LYP) =  -423.170753608     A.U. after    1 cycles

 The electronic state is 1-A.
 Alpha  occ. eigenvalues --  -19.15420 -19.13312 -10.26318 -10.25108 -10.24837
 Alpha  occ. eigenvalues --  -10.20212 -10.20194 -10.19506 -10.19497  -1.08256
 Alpha  occ. eigenvalues --   -1.03873  -0.81803  -0.76108  -0.74516  -0.67256
 Alpha  occ. eigenvalues --   -0.62367  -0.56614  -0.53437  -0.50203  -0.47310
 Alpha  occ. eigenvalues --   -0.46156  -0.44598  -0.43453  -0.42299  -0.41433
 Alpha  occ. eigenvalues --   -0.40336  -0.39682  -0.38729  -0.35969  -0.34788
 Alpha  occ. eigenvalues --   -0.33026  -0.29937  -0.26655  -0.23534
 Alpha virt. eigenvalues --   -0.02205   0.08502   0.08607   0.10092   0.11516
 Alpha virt. eigenvalues --    0.12651   0.13632   0.14095   0.14835   0.15335
 Alpha virt. eigenvalues --    0.16385   0.18221   0.18590   0.20169   0.20571

 Mulliken charges:
               1
     1  C   -0.502240
     2  C    0.353572
     3  C   -0.319874
     4  C   -0.141565
     5  C    0.154498
     6  O   -0.261465
     7  C    0.319476
     8  C   -0.503463
     9  O   -0.320416
    10  H    0.136254
    11  H    0.126777
    12  H    0.135516
    13  H    0.116451
    14  H    0.115050
    15  H    0.092857
    16  H    0.092374
    17  H    0.140157
    18  H    0.135937
    19  H    0.130105
 Sum of Mulliken charges =   0.00000

 Dipole moment (field-independent basis, Debye):
    X=              3.3238    Y=             -0.0972    Z=             -1.4081  Tot=              3.6111
 Quadrupole moment (field-independent basis, Debye-Ang):
   XX=            -62.9247   YY=            -49.3826   ZZ=            -54.1157
   XY=             -0.6720   XZ=             -2.4345   YZ=             -0.4942

  Exact polarizability:  91.831  -3.802  75.049   1.301  -0.207  64.771
 Approx polarizability: 126.459  -7.910 105.474   6.355   0.359 106.024

                      1                      2                      3
                      A                      A                      A
 Frequencies --     66.1193               112.2519               172.0006
 Red. masses --      5.0108                 3.6251                 1.0612
 Frc consts  --      0.0129                 0.0269                 0.0185
 IR Inten    --      4.9870                 1.8065                 0.1408

                      4                      5                      6
                      A                      A                      A
 Frequencies --    186.7191               190.0043               221.9802
 Red. masses --      1.4279                 1.4537                 2.3805
 Frc consts  --      0.0293                 0.0309                 0.0691
 IR Inten    --      0.5837                 0.2082                 2.6185

                      7                      8                      9
                      A                      A                      A
 Frequencies --    285.2752               319.6819               381.4084
 Red. masses --      2.4530                 3.1380                 2.2300
 Frc consts  --      0.1176                 0.1889                 0.1911
 IR Inten    --      2.0196                 4.7034                 1.7153

                     10                     11                     12
                      A                      A                      A
 Frequencies --    432.3264               477.3965               544.9296
 Red. masses --      5.9749                 2.7664                 4.2538
 Frc consts  --      0.6580                 0.3715                 0.7442
 IR Inten    --     12.5042                 5.2081                 3.6869

                     13                     14                     15
                      A                      A                      A
 Frequencies --    611.4372               704.4720               734.2227
 Red. masses --      3.8070                 3.5188                 5.0334
 Frc consts  --      0.8386                 1.0289                 1.5987
 IR Inten    --      3.7639                 1.5358                 7.2695

                     16                     17                     18
                      A                      A                      A
 Frequencies --    822.1311               870.8731               890.0875
 Red. masses --      2.5147                 2.5375                 1.8668
 Frc consts  --      1.0014                 1.1339                 0.8714
 IR Inten    --      3.3399                 6.9242                20.0229

                     19                     20                     21
                      A                      A                      A
 Frequencies --    932.3255               964.8922              1030.9282
 Red. masses --      2.4212                 1.8316                 1.4296
 Frc consts  --      1.2400                 1.0047                 0.8952
 IR Inten    --      4.0384                 3.9127                10.2687

                     22                     23                     24
                      A                      A                      A
 Frequencies --   1052.2440              1096.7301              1127.1941
 Red. masses --      1.7091                 1.9217                 2.1228
 Frc consts  --      1.1149                 1.3619                 1.5891
 IR Inten    --      4.5283                 4.6956                 8.7749

                     25                     26                     27
                      A                      A                      A
 Frequencies --   1133.0243              1179.5080              1195.1482
 Red. masses --      2.4307                 1.7380                 1.6930
 Frc consts  --      1.8385                 1.4246                 1.4248
 IR Inten    --     30.4382                26.4879                 3.0383

                     28                     29                     30
                      A                      A                      A
 Frequencies --   1208.8593              1226.5631              1295.2500
 Red. masses --      1.4675                 2.2879                 1.7075
 Frc consts  --      1.2635                 2.0280                 1.6878
 IR Inten    --      3.3705                39.2477                 4.9025

                     31                     32                     33
                      A                      A                      A
 Frequencies --   1301.2331              1408.7323              1411.4610
 Red. masses --      2.2462                 1.2425                 1.3770
 Frc consts  --      2.2408                 1.4528                 1.6162
 IR Inten    --      8.5351                 3.7702                 1.8692

                     34                     35                     36
                      A                      A                      A
 Frequencies --   1418.7692              1462.6150              1475.1695
 Red. masses --      1.2229                 1.2636                 1.0533
 Frc consts  --      1.4504                 1.5927                 1.3504
 IR Inten    --      2.6720                 2.0978                 2.2627

                     37                     38                     39
                      A                      A                      A
 Frequencies --   1477.3217              1486.1381              1491.1744
 Red. masses --      1.1029                 1.0456                 1.0794
 Frc consts  --      1.4182                 1.3606                 1.4141
 IR Inten    --      1.1769                 0.9920                 8.2877

                     40                     41                     42
                      A                      A                      A
 Frequencies --   1527.6184              1819.0609              2908.2502
 Red. masses --      3.0807                 9.9578                 1.0831
 Frc consts  --      4.2357                19.4137                 5.3973
 IR Inten    --     17.9739               205.5903                61.0080

                     43                     44                     45
                      A                      A                      A
 Frequencies --   3034.7234              3036.4944              3063.8777
 Red. masses --      1.0363                 1.0362                 1.0585
 Frc consts  --      5.6233                 5.6289                 5.8542
 IR Inten    --     24.7186                13.4010                27.1455

                     46                     47                     48
                      A                      A                      A
 Frequencies --   3096.8040              3097.4102              3100.0102
 Red. masses --      1.0932                 1.0960                 1.0981
 Frc consts  --      6.1769                 6.1954                 6.2176
 IR Inten    --     11.5741                 5.4300                15.0063

                     49                     50                     51
                      A                      A                      A
 Frequencies --   3120.6299              3122.4215              3124.9341
 Red. masses --      1.1012                 1.1016                 1.1054
 Frc consts  --      6.3181                 6.3278                 6.3600
 IR Inten    --      7.6311                13.3736                22.9470

 - Thermochemistry -
 -------------------
 Temperature   298.150 Kelvin.  Pressure   1.00000 Atm.
 Atom     1 has atomic number  6 and mass  12.00000

 Molecular mass:   126.06808 amu.
 Principal axes and moments of inertia in atomic units:
                           1         2         3
     Eigenvalues --   599.826111509.359901806.16721
           X            0.99993  -0.00621  -0.00981
           Y            0.00608   0.99989  -0.01354
           Z            0.00989   0.01348   0.99986
 This molecule is an asymmetric top.
 Rotational symmetry number  1.
 Warning -- assumption of classical behavior for rotation
           may cause significant error
 Rotational temperatures (Kelvin)      0.14440     0.05738     0.04795
 Rotational constants (GHZ):           3.00877     1.19570     0.99921
 Zero-point vibrational energy     409426.9 (Joules/Mol)
                                   97.85538 (Kcal/Mol)
 Warning -- explicit consideration of  13 degrees of freedom as
           vibrations may cause significant error
 Vibrational temperatures:     95.13   161.51   247.47   268.65   273.37
          (Kelvin)            319.38   410.45   459.95   548.76   622.02
                              686.87   784.03   879.72  1013.58  1056.38
                             1182.86  1252.99  1280.64  1341.41  1388.26
                             1483.27  1513.94  1577.95  1621.78  1630.17
                             1697.05  1719.55  1739.28  1764.75  1863.57
                             1872.18  2026.85  2030.78  2041.29  2104.37
                             2122.44  2125.53  2138.22  2145.46  2197.90
                             2617.22  4184.32  4366.28  4368.83  4408.23
                             4455.60  4456.48  4460.22  4489.88  4492.46
                             4496.08

 Zero-point correction=                           0.155942 (Hartree/Particle)
 Thermal correction to Energy=                    0.165374
 Thermal correction to Enthalpy=                  0.166318
 Thermal correction to Gibbs Free Energy=         0.121654
 Sum of electronic and zero-point Energies=           -423.014811
 Sum of electronic and thermal Energies=              -423.005380
 Sum of electronic and thermal Enthalpies=            -423.004436
 Sum of electronic and thermal Free Energies=         -423.049099

                     E (Thermal)             CV                S
                      KCal/Mol        Cal/Mol-Kelvin    Cal/Mol-Kelvin
 Total                  103.774             34.477             94.002
 Electronic               0.000              0.000              0.000
 Translational            0.889              2.981             40.409
 Rotational               0.889              2.981             28.882
 Vibrational            101.996             28.515             24.712
 Vibration     1          0.598              1.970              4.266
 Vibration     2          0.607              1.939              3.230
 Vibration     3          0.626              1.877              2.414
 Vibration     4          0.632              1.858              2.260
 Vibration     5          0.633              1.854              2.228
 Vibration     6          0.648              1.808              1.943
 Vibration     7          0.683              1.701              1.502
 Vibration     8          0.706              1.636              1.312
 Vibration     9          0.751              1.510              1.034
 Vibration    10          0.793              1.400              0.851
 Vibration    11          0.834              1.300              0.717
 Vibration    12          0.900              1.151              0.555
 Vibration    13          0.971              1.008              0.430

 Normal termination of Gaussian 09 at Mon Jan 27 17:59:05 2020.
