 Gaussian 09, Revision D.01,
 Gaussian 09:  ES64L-G09RevD.01 24-Apr-2013

 -----------------------------
 # b3lyp 6-31G(2df,p) opt Freq
 -----------------------------

 -----
 titel
 -----
 Symbolic Z-matrix:
 Charge =  0 Multiplicity = 1

 SCF Done:  E(RB3LYP) =  -423.178412845     A.U. after   14 cycles
 Optimization completed.
    -- Stationary point found.
 Normal termination of Gaussian 09 at Tue Jan 28 12:07:09 2020.

 ----------------------------------------------------------------------
 #N Geom=AllCheck Guess=TCheck SCRF=Check GenChk RB3LYP/6-31G(2df,p) Fr
 eq
 ----------------------------------------------------------------------

 Structure from the checkpoint file:  "/scratch/puck/g09_3cd224d8-b8f9-459c-b1f7-f2f61744e8c6/Gau-22515.chk"
 -----
 titel
 -----
 Charge =  0 Multiplicity = 1

                         Standard orientation:
 ---------------------------------------------------------------------
 Center     Atomic      Atomic             Coordinates (Angstroms)
 Number     Number       Type             X           Y           Z
 ---------------------------------------------------------------------
      1          6           0       -3.545448   -0.068391    0.013445
      2          6           0       -2.083778   -0.459774   -0.218723
      3          6           0       -1.119509    0.704998    0.025815
      4          6           0        0.348812    0.341031   -0.219066
      5          8           0        0.707950   -0.679585    0.758290
      6          6           0        1.614751   -1.592012    0.371568
      7          8           0        2.150646   -1.659624   -0.698773
      8          6           0        1.240118    1.488054   -0.079339
      9          6           0        1.946811    2.452471    0.034798
     10          1           0       -3.706746    0.267620    1.043588
     11          1           0       -3.849635    0.747334   -0.651719
     12          1           0       -4.214814   -0.914355   -0.169125
     13          1           0       -1.814641   -1.293565    0.438652
     14          1           0       -1.958509   -0.823298   -1.247252
     15          1           0       -1.362144    1.543191   -0.637473
     16          1           0       -1.217936    1.076911    1.052119
     17          1           0        0.477349   -0.099391   -1.213054
     18          1           0        1.783549   -2.286137    1.209534
     19          1           0        2.584222    3.297097    0.127603
 ---------------------------------------------------------------------

 SCF Done:  E(RB3LYP) =  -423.178412845     A.U. after    1 cycles

 The electronic state is 1-A.
 Alpha  occ. eigenvalues --  -19.19372 -19.13747 -10.31205 -10.27077 -10.19595
 Alpha  occ. eigenvalues --  -10.18979 -10.18865 -10.18518 -10.17974  -1.10838
 Alpha  occ. eigenvalues --   -1.02610  -0.82293  -0.77287  -0.72788  -0.66973
 Alpha  occ. eigenvalues --   -0.61932  -0.58877  -0.54074  -0.53116  -0.49661
 Alpha  occ. eigenvalues --   -0.47571  -0.46323  -0.44200  -0.42231  -0.39953
 Alpha  occ. eigenvalues --   -0.39388  -0.36878  -0.35680  -0.34468  -0.33719
 Alpha  occ. eigenvalues --   -0.31569  -0.28883  -0.27736  -0.27440
 Alpha virt. eigenvalues --    0.00477   0.02922   0.04639   0.09123   0.11403
 Alpha virt. eigenvalues --    0.12102   0.13117   0.13417   0.13968   0.16032
 Alpha virt. eigenvalues --    0.17179   0.17777   0.18609   0.20704   0.22941

 Mulliken charges:
               1
     1  C   -0.386618
     2  C   -0.178071
     3  C   -0.181056
     4  C   -0.090072
     5  O   -0.211324
     6  C    0.190797
     7  O   -0.298336
     8  C    0.342964
     9  C   -0.440725
    10  H    0.118394
    11  H    0.116442
    12  H    0.116590
    13  H    0.111487
    14  H    0.100625
    15  H    0.115183
    16  H    0.117795
    17  H    0.139094
    18  H    0.112661
    19  H    0.204170
 Sum of Mulliken charges =   0.00000

 Dipole moment (field-independent basis, Debye):
    X=             -1.6230    Y=              0.8251    Z=              0.9039  Tot=              2.0327
 Quadrupole moment (field-independent basis, Debye-Ang):
   XX=            -54.6725   YY=            -49.9770   ZZ=            -54.3420
   XY=              4.4574   XZ=              4.2132   YZ=             -3.0040

  Exact polarizability:  88.491   7.408  87.357  -0.396  -0.426  61.465
 Approx polarizability: 112.707  14.264 126.502  -4.725   2.840 100.826

                      1                      2                      3
                      A                      A                      A
 Frequencies --     27.9193                75.8235                96.3042
 Red. masses --      8.6304                 1.8387                 2.4765
 Frc consts  --      0.0040                 0.0062                 0.0135
 IR Inten    --      1.2965                 0.1339                 0.0521

                      4                      5                      6
                      A                      A                      A
 Frequencies --    109.5612               173.9080               224.9543
 Red. masses --      4.0398                 3.3931                 3.8083
 Frc consts  --      0.0286                 0.0605                 0.1135
 IR Inten    --      0.6482                 2.8150                 4.9660

                      7                      8                      9
                      A                      A                      A
 Frequencies --    246.4224               275.9828               296.7107
 Red. masses --      1.1555                 3.7982                 2.9852
 Frc consts  --      0.0413                 0.1704                 0.1548
 IR Inten    --      0.3884                 2.2475                 3.0766

                     10                     11                     12
                      A                      A                      A
 Frequencies --    337.8060               434.8860               544.3499
 Red. masses --      3.2832                 4.3861                 3.6409
 Frc consts  --      0.2207                 0.4887                 0.6357
 IR Inten    --     10.0612                 0.7534                 9.1561

                     13                     14                     15
                      A                      A                      A
 Frequencies --    562.1246               628.6109               678.4141
 Red. masses --      7.3752                 1.2145                 1.2600
 Frc consts  --      1.3731                 0.2828                 0.3417
 IR Inten    --     13.3124                42.7032                32.8442

                     16                     17                     18
                      A                      A                      A
 Frequencies --    741.2048               780.6394               826.1318
 Red. masses --      1.1960                 5.1013                 1.8866
 Frc consts  --      0.3871                 1.8316                 0.7586
 IR Inten    --      0.3871                 1.4443                15.3164

                     19                     20                     21
                      A                      A                      A
 Frequencies --    907.3251               924.9486               986.2473
 Red. masses --      1.9753                 1.7298                 3.6608
 Frc consts  --      0.9581                 0.8719                 2.0980
 IR Inten    --      5.4038                16.8581                31.5882

                     22                     23                     24
                      A                      A                      A
 Frequencies --   1039.0000              1047.8831              1064.6839
 Red. masses --      2.1879                 1.9767                 2.1479
 Frc consts  --      1.3916                 1.2789                 1.4345
 IR Inten    --      5.9150                 2.5211                16.7347

                     25                     26                     27
                      A                      A                      A
 Frequencies --   1127.2053              1159.7515              1190.3291
 Red. masses --      2.2244                 2.1980                 6.5002
 Frc consts  --      1.6652                 1.7419                 5.4264
 IR Inten    --     16.6123                37.0110               349.1055

                     28                     29                     30
                      A                      A                      A
 Frequencies --   1257.8446              1284.6947              1325.7335
 Red. masses --      1.3831                 1.2561                 1.1049
 Frc consts  --      1.2893                 1.2214                 1.1441
 IR Inten    --      6.1689                 2.7574                 0.9682

                     31                     32                     33
                      A                      A                      A
 Frequencies --   1345.2790              1368.2414              1398.6248
 Red. masses --      1.2870                 1.2870                 1.5507
 Frc consts  --      1.3723                 1.4196                 1.7872
 IR Inten    --      1.4899                13.0877                 5.5748

                     34                     35                     36
                      A                      A                      A
 Frequencies --   1407.2343              1415.0006              1475.6199
 Red. masses --      1.1570                 1.2339                 1.0809
 Frc consts  --      1.3499                 1.4556                 1.3867
 IR Inten    --      1.5705                 1.7252                 0.6959

                     37                     38                     39
                      A                      A                      A
 Frequencies --   1493.6272              1500.0476              1510.1757
 Red. masses --      1.0527                 1.0399                 1.0838
 Frc consts  --      1.3837                 1.3786                 1.4563
 IR Inten    --      1.0535                 5.4258                 2.3281

                     40                     41                     42
                      A                      A                      A
 Frequencies --   1824.6641              2242.1782              3022.4833
 Red. masses --      9.5463                 5.8976                 1.0645
 Frc consts  --     18.7264                17.4690                 5.7296
 IR Inten    --    279.4164                 1.8582                14.0204

                     43                     44                     45
                      A                      A                      A
 Frequencies --   3029.3239              3031.1325              3040.9836
 Red. masses --      1.0907                 1.0366                 1.0597
 Frc consts  --      5.8971                 5.6117                 5.7740
 IR Inten    --     63.8219                22.6580                26.0789

                     46                     47                     48
                      A                      A                      A
 Frequencies --   3061.2206              3067.3848              3086.9992
 Red. masses --      1.0908                 1.0874                 1.1017
 Frc consts  --      6.0226                 6.0279                 6.1858
 IR Inten    --      2.6591                 2.7698                 4.0401

                     49                     50                     51
                      A                      A                      A
 Frequencies --   3101.9768              3106.4992              3503.0607
 Red. masses --      1.1027                 1.1008                 1.1635
 Frc consts  --      6.2513                 6.2589                 8.4121
 IR Inten    --     61.6020                32.7847                66.1438

 - Thermochemistry -
 -------------------
 Temperature   298.150 Kelvin.  Pressure   1.00000 Atm.
 Atom     1 has atomic number  6 and mass  12.00000

 Molecular mass:   126.06808 amu.
 Principal axes and moments of inertia in atomic units:
                           1         2         3
     Eigenvalues --   863.532021751.617472417.30473
           X            0.99980   0.01904   0.00560
           Y           -0.01899   0.99978  -0.00872
           Z           -0.00576   0.00861   0.99995
 This molecule is an asymmetric top.
 Rotational symmetry number  1.
 Warning -- assumption of classical behavior for rotation
           may cause significant error
 Rotational temperatures (Kelvin)      0.10030     0.04945     0.03583
 Rotational constants (GHZ):           2.08995     1.03033     0.74659
 Zero-point vibrational energy     409177.6 (Joules/Mol)
                                   97.79580 (Kcal/Mol)
 Warning -- explicit consideration of  13 degrees of freedom as
           vibrations may cause significant error
 Vibrational temperatures:     40.17   109.09   138.56   157.63   250.21
          (Kelvin)            323.66   354.55   397.08   426.90   486.03
                              625.70   783.20   808.77   904.43   976.09
                             1066.43  1123.16  1188.62  1305.44  1330.79
                             1418.99  1494.89  1507.67  1531.84  1621.79
                             1668.62  1712.62  1809.76  1848.39  1907.43
                             1935.55  1968.59  2012.31  2024.69  2035.87
                             2123.09  2148.99  2158.23  2172.80  2625.28
                             3225.99  4348.67  4358.52  4361.12  4375.29
                             4404.41  4413.28  4441.50  4463.05  4469.55
                             5040.12

 Zero-point correction=                           0.155848 (Hartree/Particle)
 Thermal correction to Energy=                    0.166228
 Thermal correction to Enthalpy=                  0.167172
 Thermal correction to Gibbs Free Energy=         0.118973
 Sum of electronic and zero-point Energies=           -423.022565
 Sum of electronic and thermal Energies=              -423.012185
 Sum of electronic and thermal Enthalpies=            -423.011241
 Sum of electronic and thermal Free Energies=         -423.059440

                     E (Thermal)             CV                S
                      KCal/Mol        Cal/Mol-Kelvin    Cal/Mol-Kelvin
 Total                  104.310             36.173            101.444
 Electronic               0.000              0.000              0.000
 Translational            0.889              2.981             40.409
 Rotational               0.889              2.981             29.682
 Vibrational            102.532             30.212             31.353
 Vibration     1          0.593              1.984              5.972
 Vibration     2          0.599              1.965              3.996
 Vibration     3          0.603              1.952              3.528
 Vibration     4          0.606              1.942              3.277
 Vibration     5          0.627              1.875              2.393
 Vibration     6          0.650              1.803              1.919
 Vibration     7          0.661              1.769              1.756
 Vibration     8          0.678              1.718              1.558
 Vibration     9          0.690              1.680              1.435
 Vibration    10          0.718              1.600              1.222
 Vibration    11          0.795              1.394              0.843
 Vibration    12          0.899              1.152              0.556
 Vibration    13          0.918              1.113              0.520

 Optimization completed.
    -- Stationary point found.
 Normal termination of Gaussian 09 at Tue Jan 28 12:45:08 2020.
