 Gaussian 09, Revision D.01,
 Gaussian 09:  ES64L-G09RevD.01 24-Apr-2013

 -----------------------------
 # b3lyp 6-31G(2df,p) opt Freq
 -----------------------------

 -----
 titel
 -----
 Symbolic Z-matrix:
 Charge =  0 Multiplicity = 1

 SCF Done:  E(RB3LYP) =  -423.111916106     A.U. after   13 cycles
 Optimization completed.
    -- Stationary point found.
 Normal termination of Gaussian 09 at Tue Jan 28 09:15:16 2020.

 ----------------------------------------------------------------------
 #N Geom=AllCheck Guess=TCheck SCRF=Check GenChk RB3LYP/6-31G(2df,p) Fr
 eq
 ----------------------------------------------------------------------

 Structure from the checkpoint file:  "/scratch/puck/g09_625b33f5-954a-467e-a8e4-9a48e3aa3aa3/Gau-77074.chk"
 -----
 titel
 -----
 Charge =  0 Multiplicity = 1

                         Standard orientation:
 ---------------------------------------------------------------------
 Center     Atomic      Atomic             Coordinates (Angstroms)
 Number     Number       Type             X           Y           Z
 ---------------------------------------------------------------------
      1          6           0       -2.663288    0.304041   -0.187286
      2          6           0       -1.771139   -0.930374    0.001313
      3          6           0       -0.311328   -0.608292    0.070123
      4          6           0        0.901381   -1.329311    0.539649
      5          8           0        1.668045   -1.145032   -0.654139
      6          6           0        0.769844   -0.042113   -0.948395
      7          6           0        1.151323    1.036340    0.106771
      8          8           0        0.438561    2.246595   -0.005854
      9          6           0        0.593534    0.052582    1.134419
     10          1           0       -2.570439    0.990643    0.662288
     11          1           0       -2.395913    0.850772   -1.098441
     12          1           0       -3.717272    0.022594   -0.268438
     13          1           0       -2.057719   -1.453555    0.922623
     14          1           0       -1.946522   -1.639390   -0.818155
     15          1           0        1.032148   -2.234525    1.119267
     16          1           0        0.665075    0.187739   -2.007609
     17          1           0        2.211716    1.300087    0.149967
     18          1           0       -0.496950    2.055224    0.129867
     19          1           0        0.401058    0.210663    2.189011
 ---------------------------------------------------------------------

 SCF Done:  E(RB3LYP) =  -423.111916106     A.U. after    1 cycles

 The electronic state is 1-A.
 Alpha  occ. eigenvalues --  -19.13881 -19.13817 -10.24265 -10.23852 -10.23479
 Alpha  occ. eigenvalues --  -10.20471 -10.20074 -10.19565 -10.18964  -1.06539
 Alpha  occ. eigenvalues --   -1.02002  -0.85867  -0.77791  -0.71624  -0.66294
 Alpha  occ. eigenvalues --   -0.62689  -0.57700  -0.54028  -0.51684  -0.49619
 Alpha  occ. eigenvalues --   -0.46738  -0.45511  -0.43161  -0.41560  -0.39638
 Alpha  occ. eigenvalues --   -0.38672  -0.37938  -0.36486  -0.35605  -0.34620
 Alpha  occ. eigenvalues --   -0.29026  -0.28700  -0.25537  -0.22442
 Alpha virt. eigenvalues --    0.05893   0.08036   0.09812   0.10313   0.12156
 Alpha virt. eigenvalues --    0.13044   0.13856   0.14796   0.15313   0.16224
 Alpha virt. eigenvalues --    0.17016   0.17464   0.19533   0.20925   0.21977

 Mulliken charges:
               1
     1  C   -0.389483
     2  C   -0.331271
     3  C    0.283649
     4  C    0.019440
     5  O   -0.293522
     6  C   -0.028139
     7  C    0.152125
     8  O   -0.442492
     9  C   -0.220561
    10  H    0.118302
    11  H    0.125088
    12  H    0.119891
    13  H    0.108297
    14  H    0.114358
    15  H    0.110706
    16  H    0.087799
    17  H    0.092500
    18  H    0.281242
    19  H    0.092072
 Sum of Mulliken charges =   0.00000

 Dipole moment (field-independent basis, Debye):
    X=             -2.5125    Y=             -0.8778    Z=              0.9765  Tot=              2.8349
 Quadrupole moment (field-independent basis, Debye-Ang):
   XX=            -54.1091   YY=            -57.9364   ZZ=            -51.0194
   XY=              0.3274   XZ=              1.4619   YZ=             -2.0317

  Exact polarizability:  80.701   0.516  74.012   0.985  -2.018  68.134
 Approx polarizability: 111.531  -1.189 110.242   0.156  -1.309 107.149

                      1                      2                      3
                      A                      A                      A
 Frequencies --     82.9066               115.7585               200.6070
 Red. masses --      2.3994                 3.8518                 1.2821
 Frc consts  --      0.0097                 0.0304                 0.0304
 IR Inten    --      0.1539                 0.5570                 4.4702

                      4                      5                      6
                      A                      A                      A
 Frequencies --    235.7384               302.7397               305.7846
 Red. masses --      3.7351                 1.6752                 1.2418
 Frc consts  --      0.1223                 0.0905                 0.0684
 IR Inten    --      3.0900                 0.2795                27.4037

                      7                      8                      9
                      A                      A                      A
 Frequencies --    352.1140               390.9750               516.8221
 Red. masses --      2.9331                 3.6703                 5.3931
 Frc consts  --      0.2143                 0.3306                 0.8487
 IR Inten    --     30.1922                 1.4876                 2.6847

                     10                     11                     12
                      A                      A                      A
 Frequencies --    574.7534               591.7987               743.2358
 Red. masses --      3.8960                 3.0139                 1.7908
 Frc consts  --      0.7583                 0.6219                 0.5828
 IR Inten    --     10.4864                 3.7332                 6.0703

                     13                     14                     15
                      A                      A                      A
 Frequencies --    788.2006               814.4350               855.0019
 Red. masses --      3.0364                 2.3085                 2.0716
 Frc consts  --      1.1114                 0.9022                 0.8923
 IR Inten    --     10.1511                 3.0730                 1.0390

                     16                     17                     18
                      A                      A                      A
 Frequencies --    874.2046               883.8499               941.1001
 Red. masses --      1.8930                 2.0777                 2.8605
 Frc consts  --      0.8524                 0.9563                 1.4927
 IR Inten    --      3.7689                15.3709                33.4370

                     19                     20                     21
                      A                      A                      A
 Frequencies --    966.5021               988.9821               997.2403
 Red. masses --      2.0102                 2.0157                 2.6152
 Frc consts  --      1.1063                 1.1616                 1.5323
 IR Inten    --      2.2054                12.4538                14.2881

                     22                     23                     24
                      A                      A                      A
 Frequencies --   1015.9284              1031.4046              1077.7309
 Red. masses --      2.1681                 1.9582                 2.9651
 Frc consts  --      1.3184                 1.2273                 2.0291
 IR Inten    --     20.8728                 6.5500                24.8256

                     25                     26                     27
                      A                      A                      A
 Frequencies --   1090.9559              1105.7975              1156.7883
 Red. masses --      2.6754                 1.9698                 1.7823
 Frc consts  --      1.8761                 1.4191                 1.4052
 IR Inten    --     39.0725                32.7403                 1.0648

                     28                     29                     30
                      A                      A                      A
 Frequencies --   1171.6102              1202.1225              1229.6798
 Red. masses --      2.2332                 1.3037                 2.2063
 Frc consts  --      1.8061                 1.1100                 1.9657
 IR Inten    --      6.2194                 2.6546                25.5072

                     31                     32                     33
                      A                      A                      A
 Frequencies --   1254.4771              1276.7175              1304.0582
 Red. masses --      1.4279                 1.4880                 1.6004
 Frc consts  --      1.3239                 1.4291                 1.6036
 IR Inten    --      5.0077                 3.5094                 8.9373

                     34                     35                     36
                      A                      A                      A
 Frequencies --   1306.2541              1349.9889              1405.1736
 Red. masses --      1.2881                 1.4276                 1.2429
 Frc consts  --      1.2949                 1.5329                 1.4459
 IR Inten    --      0.4583                14.2289                 2.0277

                     37                     38                     39
                      A                      A                      A
 Frequencies --   1421.8194              1457.9385              1475.4523
 Red. masses --      1.3840                 3.8450                 1.0727
 Frc consts  --      1.6485                 4.8153                 1.3759
 IR Inten    --     75.7436                 4.2272                 1.7254

                     40                     41                     42
                      A                      A                      A
 Frequencies --   1499.2948              1509.3434              3017.8022
 Red. masses --      1.0405                 1.0890                 1.0591
 Frc consts  --      1.3780                 1.4617                 5.6826
 IR Inten    --      6.2637                 3.9779                23.5453

                     43                     44                     45
                      A                      A                      A
 Frequencies --   3026.9352              3049.4883              3079.0945
 Red. masses --      1.0366                 1.1012                 1.0860
 Frc consts  --      5.5961                 6.0334                 6.0662
 IR Inten    --     25.6479                 8.7918                48.7632

                     46                     47                     48
                      A                      A                      A
 Frequencies --   3093.1747              3106.7027              3139.2458
 Red. masses --      1.1021                 1.1001                 1.0928
 Frc consts  --      6.2128                 6.2559                 6.3453
 IR Inten    --     33.0187                33.0574                26.8904

                     49                     50                     51
                      A                      A                      A
 Frequencies --   3188.1264              3201.6248              3792.8284
 Red. masses --      1.0917                 1.0963                 1.0649
 Frc consts  --      6.5375                 6.6212                 9.0262
 IR Inten    --      6.3606                17.7935                16.6940

 - Thermochemistry -
 -------------------
 Temperature   298.150 Kelvin.  Pressure   1.00000 Atm.
 Atom     1 has atomic number  6 and mass  12.00000

 Molecular mass:   126.06808 amu.
 Principal axes and moments of inertia in atomic units:
                           1         2         3
     Eigenvalues --   785.648081070.689841495.16268
           X            0.99979   0.01605   0.01243
           Y           -0.01582   0.99970  -0.01851
           Z           -0.01273   0.01831   0.99975
 This molecule is an asymmetric top.
 Rotational symmetry number  1.
 Warning -- assumption of classical behavior for rotation
           may cause significant error
 Rotational temperatures (Kelvin)      0.11025     0.08090     0.05793
 Rotational constants (GHZ):           2.29714     1.68559     1.20705
 Zero-point vibrational energy     416063.0 (Joules/Mol)
                                   99.44145 (Kcal/Mol)
 Warning -- explicit consideration of  11 degrees of freedom as
           vibrations may cause significant error
 Vibrational temperatures:    119.28   166.55   288.63   339.17   435.57
          (Kelvin)            439.96   506.61   562.53   743.59   826.94
                              851.47  1069.35  1134.04  1171.79  1230.16
                             1257.78  1271.66  1354.03  1390.58  1422.92
                             1434.80  1461.69  1483.96  1550.61  1569.64
                             1590.99  1664.36  1685.68  1729.58  1769.23
                             1804.91  1836.91  1876.25  1879.41  1942.33
                             2021.73  2045.68  2097.65  2122.84  2157.15
                             2171.61  4341.94  4355.08  4387.53  4430.12
                             4450.38  4469.85  4516.67  4587.00  4606.42
                             5457.03

 Zero-point correction=                           0.158470 (Hartree/Particle)
 Thermal correction to Energy=                    0.166804
 Thermal correction to Enthalpy=                  0.167748
 Thermal correction to Gibbs Free Energy=         0.125547
 Sum of electronic and zero-point Energies=           -422.953446
 Sum of electronic and thermal Energies=              -422.945112
 Sum of electronic and thermal Enthalpies=            -422.944168
 Sum of electronic and thermal Free Energies=         -422.986370

                     E (Thermal)             CV                S
                      KCal/Mol        Cal/Mol-Kelvin    Cal/Mol-Kelvin
 Total                  104.671             32.207             88.820
 Electronic               0.000              0.000              0.000
 Translational            0.889              2.981             40.409
 Rotational               0.889              2.981             28.621
 Vibrational            102.893             26.246             19.790
 Vibration     1          0.600              1.961              3.821
 Vibration     2          0.608              1.936              3.170
 Vibration     3          0.638              1.839              2.128
 Vibration     4          0.655              1.786              1.835
 Vibration     5          0.694              1.669              1.402
 Vibration     6          0.696              1.663              1.385
 Vibration     7          0.729              1.571              1.157
 Vibration     8          0.759              1.489              0.996
 Vibration     9          0.872              1.213              0.617
 Vibration    10          0.931              1.086              0.495
 Vibration    11          0.949              1.049              0.464

 Normal termination of Gaussian 09 at Tue Jan 28 10:01:29 2020.
