 Gaussian 09, Revision D.01,
 Gaussian 09:  ES64L-G09RevD.01 24-Apr-2013

 -----------------------------
 # b3lyp 6-31G(2df,p) opt Freq
 -----------------------------

 -----
 titel
 -----
 Symbolic Z-matrix:
 Charge =  0 Multiplicity = 1

 SCF Done:  E(RB3LYP) =  -423.109700463     A.U. after   13 cycles
 Optimization completed.
    -- Stationary point found.
 Normal termination of Gaussian 09 at Tue Jan 28 09:18:03 2020.

 ----------------------------------------------------------------------
 #N Geom=AllCheck Guess=TCheck SCRF=Check GenChk RB3LYP/6-31G(2df,p) Fr
 eq
 ----------------------------------------------------------------------

 Structure from the checkpoint file:  "/scratch/puck/g09_a721a73b-8f98-4b55-92ac-f68a2d02bb31/Gau-46232.chk"
 -----
 titel
 -----
 Charge =  0 Multiplicity = 1

                         Standard orientation:
 ---------------------------------------------------------------------
 Center     Atomic      Atomic             Coordinates (Angstroms)
 Number     Number       Type             X           Y           Z
 ---------------------------------------------------------------------
      1          6           0        1.325830    2.101082   -0.126209
      2          6           0        0.855616    0.693103    0.031843
      3          8           0        0.043401    0.355464    1.173237
      4          6           0       -0.426675    0.009789   -0.154006
      5          6           0       -1.803586    0.458577   -0.519473
      6          8           0       -2.801473   -0.311029    0.134273
      7          6           0        0.293166   -1.300161   -0.606766
      8          6           0        1.276146   -1.788642    0.421814
      9          6           0        1.630390   -0.592408   -0.420234
     10          1           0        0.523200    2.807378    0.099859
     11          1           0        2.162556    2.303459    0.552365
     12          1           0        1.674381    2.277926   -1.149026
     13          1           0       -1.904670    1.530920   -0.295474
     14          1           0       -1.970095    0.321038   -1.593315
     15          1           0       -2.626810   -0.248520    1.080039
     16          1           0       -0.038293   -1.896001   -1.446537
     17          1           0        1.067642   -1.670758    1.477309
     18          1           0        1.797076   -2.701456    0.150143
     19          1           0        2.474270   -0.567503   -1.097258
 ---------------------------------------------------------------------

 SCF Done:  E(RB3LYP) =  -423.109700463     A.U. after    1 cycles

 The electronic state is 1-A.
 Alpha  occ. eigenvalues --  -19.14964 -19.13558 -10.24431 -10.23623 -10.23387
 Alpha  occ. eigenvalues --  -10.19304 -10.19279 -10.19050 -10.18729  -1.07559
 Alpha  occ. eigenvalues --   -1.01588  -0.86609  -0.75102  -0.72910  -0.66085
 Alpha  occ. eigenvalues --   -0.61005  -0.56263  -0.53861  -0.51495  -0.48934
 Alpha  occ. eigenvalues --   -0.47697  -0.44578  -0.43963  -0.42511  -0.41149
 Alpha  occ. eigenvalues --   -0.38012  -0.37759  -0.35253  -0.33358  -0.32792
 Alpha  occ. eigenvalues --   -0.30299  -0.27182  -0.26221  -0.22857
 Alpha virt. eigenvalues --    0.05805   0.08706   0.09662   0.10268   0.12663
 Alpha virt. eigenvalues --    0.13533   0.13911   0.14586   0.15814   0.15913
 Alpha virt. eigenvalues --    0.18273   0.18846   0.19229   0.21109   0.22207

 Mulliken charges:
               1
     1  C   -0.505967
     2  C    0.331226
     3  O   -0.333329
     4  C    0.314872
     5  C   -0.182255
     6  O   -0.413695
     7  C   -0.121571
     8  C   -0.290752
     9  C   -0.129516
    10  H    0.133827
    11  H    0.134648
    12  H    0.128282
    13  H    0.095447
    14  H    0.113737
    15  H    0.293690
    16  H    0.096023
    17  H    0.132990
    18  H    0.110902
    19  H    0.091441
 Sum of Mulliken charges =   0.00000

 Dipole moment (field-independent basis, Debye):
    X=              1.4909    Y=              0.8458    Z=             -1.0662  Tot=              2.0186
 Quadrupole moment (field-independent basis, Debye-Ang):
   XX=            -56.4351   YY=            -50.7345   ZZ=            -51.9633
   XY=             -1.6005   XZ=             -2.6049   YZ=             -0.4436

  Exact polarizability:  80.938   0.510  79.715   0.311  -0.410  64.395
 Approx polarizability: 115.235   5.651 108.379   0.129   1.106 105.778

                      1                      2                      3
                      A                      A                      A
 Frequencies --     68.7339               122.0072               194.0423
 Red. masses --      3.4959                 4.1233                 1.0415
 Frc consts  --      0.0097                 0.0362                 0.0231
 IR Inten    --      3.7600                 0.4819                 0.2449

                      4                      5                      6
                      A                      A                      A
 Frequencies --    212.6831               273.2121               286.0814
 Red. masses --      2.5589                 2.4780                 2.2114
 Frc consts  --      0.0682                 0.1090                 0.1066
 IR Inten    --      1.1725                 1.6977                11.9915

                      7                      8                      9
                      A                      A                      A
 Frequencies --    340.6773               400.6831               446.0157
 Red. masses --      2.4002                 1.5484                 3.1459
 Frc consts  --      0.1641                 0.1465                 0.3687
 IR Inten    --     28.3301                85.7728                 0.3244

                     10                     11                     12
                      A                      A                      A
 Frequencies --    540.8728               566.5547               608.8377
 Red. masses --      3.6906                 4.4021                 3.7468
 Frc consts  --      0.6361                 0.8325                 0.8183
 IR Inten    --      5.2441                 7.2959                 7.6050

                     13                     14                     15
                      A                      A                      A
 Frequencies --    709.3787               739.8004               770.6208
 Red. masses --      3.8572                 3.7343                 1.8741
 Frc consts  --      1.1436                 1.2042                 0.6557
 IR Inten    --      5.9695                 5.7547                15.5191

                     16                     17                     18
                      A                      A                      A
 Frequencies --    777.8108               892.0997               916.7218
 Red. masses --      1.5521                 2.7759                 2.6182
 Frc consts  --      0.5533                 1.3016                 1.2963
 IR Inten    --      1.9807                21.8433                16.5055

                     19                     20                     21
                      A                      A                      A
 Frequencies --    927.9525               940.9238               978.7337
 Red. masses --      2.5046                 2.3189                 1.7483
 Frc consts  --      1.2707                 1.2096                 0.9867
 IR Inten    --     14.8039                 5.0205                 8.4339

                     22                     23                     24
                      A                      A                      A
 Frequencies --   1004.1008              1048.0141              1052.1747
 Red. masses --      1.3941                 1.3210                 3.3914
 Frc consts  --      0.8281                 0.8548                 2.2121
 IR Inten    --      5.0998                 3.0054                99.7148

                     25                     26                     27
                      A                      A                      A
 Frequencies --   1088.9619              1099.3087              1115.0493
 Red. masses --      1.9736                 1.3254                 1.8752
 Frc consts  --      1.3789                 0.9437                 1.3737
 IR Inten    --      2.3735                 4.7207                 8.7199

                     28                     29                     30
                      A                      A                      A
 Frequencies --   1155.1050              1191.5497              1199.6836
 Red. masses --      1.6244                 1.7171                 2.0875
 Frc consts  --      1.2770                 1.4364                 1.7702
 IR Inten    --     14.5325                 5.7245                 2.7490

                     31                     32                     33
                      A                      A                      A
 Frequencies --   1255.9980              1294.9684              1309.1616
 Red. masses --      1.7164                 2.1748                 2.8670
 Frc consts  --      1.5953                 2.1488                 2.8951
 IR Inten    --     22.0173                10.3693                 7.4344

                     34                     35                     36
                      A                      A                      A
 Frequencies --   1371.0165              1407.5128              1424.1826
 Red. masses --      1.2639                 1.2735                 1.2765
 Frc consts  --      1.3998                 1.4865                 1.5255
 IR Inten    --      2.8703                 3.1518                50.4926

                     37                     38                     39
                      A                      A                      A
 Frequencies --   1460.4697              1475.3731              1487.3086
 Red. masses --      1.2287                 1.1206                 1.0773
 Frc consts  --      1.5442                 1.4372                 1.4040
 IR Inten    --      5.1810                 6.1564                 3.1327

                     40                     41                     42
                      A                      A                      A
 Frequencies --   1488.9597              1528.3173              2995.8548
 Red. masses --      1.0925                 4.4245                 1.0672
 Frc consts  --      1.4271                 6.0890                 5.6436
 IR Inten    --      5.3305                13.6995                44.3497

                     43                     44                     45
                      A                      A                      A
 Frequencies --   3033.4262              3073.8620              3094.9377
 Red. masses --      1.0367                 1.0949                 1.0995
 Frc consts  --      5.6204                 6.0955                 6.2051
 IR Inten    --     23.7256                22.1660                14.5901

                     46                     47                     48
                      A                      A                      A
 Frequencies --   3123.9710              3140.3414              3196.0834
 Red. masses --      1.1008                 1.0545                 1.0898
 Frc consts  --      6.3293                 6.1271                 6.5591
 IR Inten    --     13.0806                17.2846                10.9527

                     49                     50                     51
                      A                      A                      A
 Frequencies --   3207.4409              3233.7079              3804.9355
 Red. masses --      1.0976                 1.1136                 1.0660
 Frc consts  --      6.6530                 6.8606                 9.0932
 IR Inten    --      7.5689                 3.5629                21.7304

 - Thermochemistry -
 -------------------
 Temperature   298.150 Kelvin.  Pressure   1.00000 Atm.
 Atom     1 has atomic number  6 and mass  12.00000

 Molecular mass:   126.06808 amu.
 Principal axes and moments of inertia in atomic units:
                           1         2         3
     Eigenvalues --   744.648331169.955751588.56874
           X            0.99999  -0.00461  -0.00282
           Y            0.00457   0.99987  -0.01557
           Z            0.00290   0.01556   0.99987
 This molecule is an asymmetric top.
 Rotational symmetry number  1.
 Warning -- assumption of classical behavior for rotation
           may cause significant error
 Rotational temperatures (Kelvin)      0.11632     0.07403     0.05452
 Rotational constants (GHZ):           2.42362     1.54257     1.13608
 Zero-point vibrational energy     413167.5 (Joules/Mol)
                                   98.74941 (Kcal/Mol)
 Warning -- explicit consideration of  12 degrees of freedom as
           vibrations may cause significant error
 Vibrational temperatures:     98.89   175.54   279.18   306.00   393.09
          (Kelvin)            411.61   490.16   576.49   641.72   778.19
                              815.14   875.98  1020.64  1064.41  1108.75
                             1119.09  1283.53  1318.96  1335.12  1353.78
                             1408.18  1444.68  1507.86  1513.84  1566.77
                             1581.66  1604.31  1661.94  1714.37  1726.07
                             1807.10  1863.17  1883.59  1972.58  2025.09
                             2049.08  2101.29  2122.73  2139.90  2142.28
                             2198.90  4310.36  4364.42  4422.60  4452.92
                             4494.69  4518.25  4598.45  4614.79  4652.58
                             5474.45

 Zero-point correction=                           0.157367 (Hartree/Particle)
 Thermal correction to Energy=                    0.166100
 Thermal correction to Enthalpy=                  0.167045
 Thermal correction to Gibbs Free Energy=         0.124019
 Sum of electronic and zero-point Energies=           -422.952333
 Sum of electronic and thermal Energies=              -422.943600
 Sum of electronic and thermal Enthalpies=            -422.942656
 Sum of electronic and thermal Free Energies=         -422.985682

                     E (Thermal)             CV                S
                      KCal/Mol        Cal/Mol-Kelvin    Cal/Mol-Kelvin
 Total                  104.230             33.604             90.556
 Electronic               0.000              0.000              0.000
 Translational            0.889              2.981             40.409
 Rotational               0.889              2.981             28.716
 Vibrational            102.452             27.643             21.430
 Vibration     1          0.598              1.969              4.189
 Vibration     2          0.610              1.931              3.068
 Vibration     3          0.635              1.848              2.189
 Vibration     4          0.644              1.822              2.021
 Vibration     5          0.676              1.723              1.576
 Vibration     6          0.684              1.700              1.497
 Vibration     7          0.720              1.594              1.209
 Vibration     8          0.767              1.469              0.960
 Vibration     9          0.805              1.370              0.808
 Vibration    10          0.896              1.160              0.563
 Vibration    11          0.922              1.104              0.511
 Vibration    12          0.968              1.013              0.435

 Optimization completed.
    -- Stationary point found.
 Normal termination of Gaussian 09 at Tue Jan 28 10:04:09 2020.
