 Gaussian 09, Revision D.01,
 Gaussian 09:  ES64L-G09RevD.01 24-Apr-2013

 -----------------------------
 # b3lyp 6-31G(2df,p) opt Freq
 -----------------------------

 -----
 titel
 -----
 Symbolic Z-matrix:
 Charge =  0 Multiplicity = 1

 SCF Done:  E(RB3LYP) =  -423.169835666     A.U. after   14 cycles
 Optimization completed.
    -- Stationary point found.
 Normal termination of Gaussian 09 at Mon Jan 27 16:29:00 2020.

 ----------------------------------------------------------------------
 #N Geom=AllCheck Guess=TCheck SCRF=Check GenChk RB3LYP/6-31G(2df,p) Fr
 eq
 ----------------------------------------------------------------------

 Structure from the checkpoint file:  "/scratch/puck/g09_9210588d-2d13-4af4-9558-08a2da8c22ba/Gau-163504.chk"
 -----
 titel
 -----
 Charge =  0 Multiplicity = 1

                         Standard orientation:
 ---------------------------------------------------------------------
 Center     Atomic      Atomic             Coordinates (Angstroms)
 Number     Number       Type             X           Y           Z
 ---------------------------------------------------------------------
      1          8           0       -1.258207    1.452713   -0.426327
      2          6           0       -0.830684    0.297578    0.211103
      3          6           0       -0.054458    0.432934    1.518151
      4          6           0        0.668826    0.044179    0.272716
      5          6           0        1.476539   -1.239352    0.013694
      6          6           0        2.651672   -0.339566   -0.474369
      7          6           0        1.703629    0.897836   -0.469093
      8          6           0       -1.747776   -0.842768    0.058376
      9          8           0       -2.765640   -0.758074   -0.596715
     10          1           0       -2.090660    1.199632   -0.857122
     11          1           0        0.048771    1.452172    1.876295
     12          1           0       -0.216786   -0.315631    2.289096
     13          1           0        1.673658   -1.868181    0.886145
     14          1           0        1.060021   -1.866458   -0.779732
     15          1           0        3.451208   -0.259087    0.265326
     16          1           0        3.094779   -0.604731   -1.436108
     17          1           0        2.060562    1.790532    0.049720
     18          1           0        1.359809    1.190729   -1.464425
     19          1           0       -1.457068   -1.781140    0.571673
 ---------------------------------------------------------------------

 SCF Done:  E(RB3LYP) =  -423.169835666     A.U. after    1 cycles

 The electronic state is 1-A.
 Alpha  occ. eigenvalues --  -19.14645 -19.14371 -10.27486 -10.24927 -10.20995
 Alpha  occ. eigenvalues --  -10.20028 -10.19313 -10.18956 -10.18774  -1.06254
 Alpha  occ. eigenvalues --   -1.02454  -0.88170  -0.80788  -0.67900  -0.66243
 Alpha  occ. eigenvalues --   -0.62347  -0.58083  -0.53796  -0.52509  -0.50240
 Alpha  occ. eigenvalues --   -0.47748  -0.45167  -0.43355  -0.42571  -0.39307
 Alpha  occ. eigenvalues --   -0.37939  -0.36933  -0.36087  -0.35486  -0.33276
 Alpha  occ. eigenvalues --   -0.31776  -0.30005  -0.26398  -0.24022
 Alpha virt. eigenvalues --   -0.03034   0.08259   0.08671   0.09734   0.09927
 Alpha virt. eigenvalues --    0.12814   0.14006   0.15313   0.15549   0.17484
 Alpha virt. eigenvalues --    0.17908   0.18218   0.19984   0.21734   0.23724

 Mulliken charges:
               1
     1  O   -0.472866
     2  C    0.300270
     3  C   -0.415711
     4  C    0.284733
     5  C   -0.304513
     6  C   -0.208986
     7  C   -0.275986
     8  C    0.094518
     9  O   -0.298348
    10  H    0.295637
    11  H    0.137244
    12  H    0.119511
    13  H    0.104259
    14  H    0.109480
    15  H    0.108907
    16  H    0.105733
    17  H    0.107146
    18  H    0.119381
    19  H    0.089591
 Sum of Mulliken charges =   0.00000

 Dipole moment (field-independent basis, Debye):
    X=              2.2430    Y=             -0.7976    Z=              1.1576  Tot=              2.6471
 Quadrupole moment (field-independent basis, Debye-Ang):
   XX=            -58.5960   YY=            -54.2599   ZZ=            -51.3433
   XY=             -1.2265   XZ=             -1.8843   YZ=             -0.7820

  Exact polarizability:  93.753   2.271  73.155   3.744  -0.903  69.234
 Approx polarizability: 131.350   4.857 107.416  14.188  -0.874 107.422

                      1                      2                      3
                      A                      A                      A
 Frequencies --     60.6003                96.2125               142.2883
 Red. masses --      2.4985                 4.2873                 3.1275
 Frc consts  --      0.0054                 0.0234                 0.0373
 IR Inten    --      0.3485                 0.2126                 0.9771

                      4                      5                      6
                      A                      A                      A
 Frequencies --    193.6624               268.2698               299.3704
 Red. masses --      2.8286                 2.7472                 4.3332
 Frc consts  --      0.0625                 0.1165                 0.2288
 IR Inten    --      2.8619                 5.4402                17.6800

                      7                      8                      9
                      A                      A                      A
 Frequencies --    393.0532               399.1509               411.9778
 Red. masses --      2.1315                 2.9399                 1.6199
 Frc consts  --      0.1940                 0.2760                 0.1620
 IR Inten    --     15.0277                 3.5241                25.6476

                     10                     11                     12
                      A                      A                      A
 Frequencies --    454.7220               530.6020               653.8286
 Red. masses --      1.9001                 3.4104                 4.5022
 Frc consts  --      0.2315                 0.5657                 1.1340
 IR Inten    --     19.8763                 7.4219                15.2231

                     13                     14                     15
                      A                      A                      A
 Frequencies --    718.7313               786.5756               832.2754
 Red. masses --      1.3177                 1.2434                 3.1308
 Frc consts  --      0.4011                 0.4532                 1.2777
 IR Inten    --      2.9687                 2.0288                 6.9783

                     16                     17                     18
                      A                      A                      A
 Frequencies --    840.7374               876.0343               901.0179
 Red. masses --      3.9338                 3.0742                 1.3586
 Frc consts  --      1.6383                 1.3900                 0.6498
 IR Inten    --     12.6484                16.9621                 4.4313

                     19                     20                     21
                      A                      A                      A
 Frequencies --    917.0403               940.7774               953.4380
 Red. masses --      1.5809                 2.6694                 2.8177
 Frc consts  --      0.7833                 1.3920                 1.5091
 IR Inten    --     35.6259                 1.4516                 1.9133

                     22                     23                     24
                      A                      A                      A
 Frequencies --   1024.7617              1053.4720              1061.1961
 Red. masses --      1.6062                 1.5405                 1.3053
 Frc consts  --      0.9938                 1.0073                 0.8660
 IR Inten    --      2.9405                 7.5761                 5.3592

                     25                     26                     27
                      A                      A                      A
 Frequencies --   1081.1554              1135.1610              1183.0074
 Red. masses --      2.4463                 2.3221                 2.3345
 Frc consts  --      1.6847                 1.7630                 1.9249
 IR Inten    --     51.1880                29.4812                 5.4535

                     28                     29                     30
                      A                      A                      A
 Frequencies --   1219.8334              1224.6499              1250.0509
 Red. masses --      1.3451                 1.3141                 1.2059
 Frc consts  --      1.1792                 1.1612                 1.1102
 IR Inten    --      2.9667                10.7582                 0.0891

                     31                     32                     33
                      A                      A                      A
 Frequencies --   1271.0011              1277.8255              1318.5073
 Red. masses --      1.4422                 1.5426                 2.4361
 Frc consts  --      1.3726                 1.4840                 2.4952
 IR Inten    --      4.2271                 3.0241                15.2038

                     34                     35                     36
                      A                      A                      A
 Frequencies --   1352.4580              1384.6200              1445.4713
 Red. masses --      3.3608                 1.2601                 1.2030
 Frc consts  --      3.6219                 1.4233                 1.4809
 IR Inten    --     86.0373                45.8539                19.7832

                     37                     38                     39
                      A                      A                      A
 Frequencies --   1477.5141              1480.0097              1488.6992
 Red. masses --      1.0933                 1.2417                 1.5432
 Frc consts  --      1.4062                 1.6025                 2.0151
 IR Inten    --      1.0950                 2.1277                11.7870

                     40                     41                     42
                      A                      A                      A
 Frequencies --   1506.6854              1778.7672              2933.4968
 Red. masses --      1.2018                 9.8661                 1.0856
 Frc consts  --      1.6074                18.3923                 5.5044
 IR Inten    --      0.2157               275.1952                58.5976

                     43                     44                     45
                      A                      A                      A
 Frequencies --   3051.4392              3063.8143              3072.6952
 Red. masses --      1.0577                 1.0576                 1.0607
 Frc consts  --      5.8026                 5.8494                 5.9007
 IR Inten    --     36.2753                20.0852                46.0648

                     46                     47                     48
                      A                      A                      A
 Frequencies --   3097.2658              3109.9124              3115.4087
 Red. masses --      1.1079                 1.1080                 1.0541
 Frc consts  --      6.2618                 6.3140                 6.0278
 IR Inten    --     11.3953                 3.7291                 9.3850

                     49                     50                     51
                      A                      A                      A
 Frequencies --   3129.7606              3211.8957              3690.5173
 Red. masses --      1.1080                 1.1162                 1.0646
 Frc consts  --      6.3947                 6.7846                 8.5429
 IR Inten    --     40.7167                 2.7486                72.9463

 - Thermochemistry -
 -------------------
 Temperature   298.150 Kelvin.  Pressure   1.00000 Atm.
 Atom     1 has atomic number  8 and mass  15.99491

 Molecular mass:   126.06808 amu.
 Principal axes and moments of inertia in atomic units:
                           1         2         3
     Eigenvalues --   578.097021570.407421730.01068
           X            0.99988  -0.00895  -0.01242
           Y            0.00865   0.99967  -0.02401
           Z            0.01263   0.02390   0.99963
 This molecule is an asymmetric top.
 Rotational symmetry number  1.
 Warning -- assumption of classical behavior for rotation
           may cause significant error
 Rotational temperatures (Kelvin)      0.14983     0.05515     0.05007
 Rotational constants (GHZ):           3.12187     1.14922     1.04320
 Zero-point vibrational energy     413677.1 (Joules/Mol)
                                   98.87121 (Kcal/Mol)
 Warning -- explicit consideration of  11 degrees of freedom as
           vibrations may cause significant error
 Vibrational temperatures:     87.19   138.43   204.72   278.64   385.98
          (Kelvin)            430.73   565.52   574.29   592.74   654.24
                              763.42   940.71  1034.09  1131.71  1197.46
                             1209.63  1260.42  1296.36  1319.41  1353.57
                             1371.78  1474.40  1515.71  1526.82  1555.54
                             1633.24  1702.08  1755.07  1762.00  1798.54
                             1828.68  1838.50  1897.04  1945.88  1992.16
                             2079.71  2125.81  2129.40  2141.90  2167.78
                             2559.25  4220.64  4390.33  4408.14  4420.92
                             4456.27  4474.46  4482.37  4503.02  4621.20
                             5309.82

 Zero-point correction=                           0.157561 (Hartree/Particle)
 Thermal correction to Energy=                    0.166440
 Thermal correction to Enthalpy=                  0.167384
 Thermal correction to Gibbs Free Energy=         0.123654
 Sum of electronic and zero-point Energies=           -423.012274
 Sum of electronic and thermal Energies=              -423.003396
 Sum of electronic and thermal Enthalpies=            -423.002451
 Sum of electronic and thermal Free Energies=         -423.046182

                     E (Thermal)             CV                S
                      KCal/Mol        Cal/Mol-Kelvin    Cal/Mol-Kelvin
 Total                  104.443             33.383             92.038
 Electronic               0.000              0.000              0.000
 Translational            0.889              2.981             40.409
 Rotational               0.889              2.981             28.842
 Vibrational            102.665             27.421             22.787
 Vibration     1          0.597              1.973              4.438
 Vibration     2          0.603              1.952              3.530
 Vibration     3          0.616              1.911              2.773
 Vibration     4          0.635              1.849              2.192
 Vibration     5          0.673              1.731              1.607
 Vibration     6          0.692              1.675              1.420
 Vibration     7          0.760              1.485              0.989
 Vibration     8          0.765              1.472              0.966
 Vibration     9          0.776              1.444              0.920
 Vibration    10          0.813              1.350              0.782
 Vibration    11          0.886              1.182              0.586

 Normal termination of Gaussian 09 at Mon Jan 27 17:14:05 2020.
