 Gaussian 09, Revision D.01,
 Gaussian 09:  ES64L-G09RevD.01 24-Apr-2013

 -----------------------------
 # b3lyp 6-31G(2df,p) opt Freq
 -----------------------------

 -----
 titel
 -----
 Symbolic Z-matrix:
 Charge =  0 Multiplicity = 1

 SCF Done:  E(RB3LYP) =  -423.170476901     A.U. after   13 cycles
 Optimization completed.
    -- Stationary point found.
 Normal termination of Gaussian 09 at Tue Jan 28 13:29:01 2020.

 ----------------------------------------------------------------------
 #N Geom=AllCheck Guess=TCheck SCRF=Check GenChk RB3LYP/6-31G(2df,p) Fr
 eq
 ----------------------------------------------------------------------

 Structure from the checkpoint file:  "/scratch/puck/g09_87d53edf-ed33-445e-b659-d5541ec7103c/Gau-118516.chk"
 -----
 titel
 -----
 Charge =  0 Multiplicity = 1

                         Standard orientation:
 ---------------------------------------------------------------------
 Center     Atomic      Atomic             Coordinates (Angstroms)
 Number     Number       Type             X           Y           Z
 ---------------------------------------------------------------------
      1          8           0        2.617803    0.969249    0.798333
      2          6           0        2.266189    0.116310   -0.282781
      3          6           0        1.098682   -0.782646    0.064256
      4          8           0        0.315172   -1.272850   -1.028874
      5          6           0       -0.295470   -0.360264   -0.099031
      6          6           0       -0.719391    1.014413   -0.634543
      7          6           0       -2.169493    1.103138   -0.229719
      8          6           0       -2.558506    0.067306    0.512318
      9          6           0       -1.444081   -0.919534    0.752083
     10          1           0        2.958275    0.421631    1.512878
     11          1           0        1.988473    0.768247   -1.114455
     12          1           0        3.121584   -0.492252   -0.613765
     13          1           0        1.312868   -1.533896    0.831357
     14          1           0       -0.120303    1.821718   -0.193043
     15          1           0       -0.574475    1.064600   -1.719945
     16          1           0       -2.799702    1.936526   -0.518778
     17          1           0       -3.553613   -0.071870    0.919296
     18          1           0       -1.174680   -0.979843    1.815347
     19          1           0       -1.689812   -1.938397    0.429937
 ---------------------------------------------------------------------

 SCF Done:  E(RB3LYP) =  -423.170476901     A.U. after    1 cycles

 The electronic state is 1-A.
 Alpha  occ. eigenvalues --  -19.14564 -19.14280 -10.23846 -10.23179 -10.23154
 Alpha  occ. eigenvalues --  -10.18633 -10.18493 -10.18174 -10.18085  -1.06642
 Alpha  occ. eigenvalues --   -1.02155  -0.83576  -0.72679  -0.71307  -0.68856
 Alpha  occ. eigenvalues --   -0.61641  -0.55813  -0.54160  -0.51595  -0.48985
 Alpha  occ. eigenvalues --   -0.46922  -0.45273  -0.43275  -0.41456  -0.40401
 Alpha  occ. eigenvalues --   -0.38318  -0.37132  -0.35535  -0.34934  -0.33449
 Alpha  occ. eigenvalues --   -0.29281  -0.28126  -0.25601  -0.24296
 Alpha virt. eigenvalues --    0.02479   0.05912   0.09314   0.11082   0.11435
 Alpha virt. eigenvalues --    0.12570   0.14757   0.14981   0.16046   0.16848
 Alpha virt. eigenvalues --    0.17989   0.18363   0.19280   0.21469   0.22316

 Mulliken charges:
               1
     1  O   -0.413433
     2  C   -0.104308
     3  C   -0.047838
     4  O   -0.289532
     5  C    0.419332
     6  C   -0.345708
     7  C   -0.067328
     8  C   -0.064672
     9  C   -0.340706
    10  H    0.286445
    11  H    0.122772
    12  H    0.095644
    13  H    0.075424
    14  H    0.128906
    15  H    0.122113
    16  H    0.094655
    17  H    0.094214
    18  H    0.110085
    19  H    0.123933
 Sum of Mulliken charges =   0.00000

 Dipole moment (field-independent basis, Debye):
    X=              0.1513    Y=             -0.2743    Z=              1.4995  Tot=              1.5319
 Quadrupole moment (field-independent basis, Debye-Ang):
   XX=            -48.9311   YY=            -55.6157   ZZ=            -52.3480
   XY=             -3.9194   XZ=              1.5321   YZ=             -5.0295

  Exact polarizability:  89.683  -2.134  73.545  -2.978  -9.543  65.485
 Approx polarizability: 112.918   0.984 116.222  -3.492 -14.229 106.208

                      1                      2                      3
                      A                      A                      A
 Frequencies --     39.3125                79.4297               139.2155
 Red. masses --      3.5988                 2.7235                 3.6509
 Frc consts  --      0.0033                 0.0101                 0.0417
 IR Inten    --      1.3835                 2.1126                 0.4901

                      4                      5                      6
                      A                      A                      A
 Frequencies --    192.7102               279.0516               364.7155
 Red. masses --      2.3230                 1.1640                 3.7169
 Frc consts  --      0.0508                 0.0534                 0.2913
 IR Inten    --      8.5424               108.3079                 4.5407

                      7                      8                      9
                      A                      A                      A
 Frequencies --    392.3343               401.4695               430.9448
 Red. masses --      2.1450                 2.4182                 3.3348
 Frc consts  --      0.1945                 0.2296                 0.3649
 IR Inten    --      0.9899                11.4878                15.0262

                     10                     11                     12
                      A                      A                      A
 Frequencies --    490.0484               562.4351               692.0286
 Red. masses --      7.1875                 3.2614                 1.2205
 Frc consts  --      1.0170                 0.6079                 0.3444
 IR Inten    --      1.9028                 3.0075                21.0527

                     13                     14                     15
                      A                      A                      A
 Frequencies --    780.6609               785.8165               789.0510
 Red. masses --      4.0397                 3.1054                 5.1965
 Frc consts  --      1.4505                 1.1298                 1.9062
 IR Inten    --      3.5316                23.0335                 7.6394

                     16                     17                     18
                      A                      A                      A
 Frequencies --    930.7862               949.8753               962.7494
 Red. masses --      1.5829                 1.8977                 2.1099
 Frc consts  --      0.8080                 1.0088                 1.1523
 IR Inten    --     11.8690                18.3851                20.9925

                     19                     20                     21
                      A                      A                      A
 Frequencies --    981.0687               981.7947               986.2563
 Red. masses --      1.4289                 2.4549                 2.1586
 Frc consts  --      0.8103                 1.3942                 1.2371
 IR Inten    --      0.3132                 0.2132                 6.1126

                     22                     23                     24
                      A                      A                      A
 Frequencies --   1037.6709              1044.9181              1091.5327
 Red. masses --      3.0090                 2.2330                 3.2775
 Frc consts  --      1.9089                 1.4365                 2.3008
 IR Inten    --     82.8208                 6.7199                16.4166

                     25                     26                     27
                      A                      A                      A
 Frequencies --   1105.1967              1132.8200              1158.7338
 Red. masses --      1.8478                 1.1276                 1.1214
 Frc consts  --      1.3298                 0.8526                 0.8871
 IR Inten    --      0.6061                 0.2598                 0.2631

                     28                     29                     30
                      A                      A                      A
 Frequencies --   1199.3170              1213.6625              1215.8413
 Red. masses --      1.4694                 1.3133                 1.8510
 Frc consts  --      1.2453                 1.1397                 1.6121
 IR Inten    --      9.0485                 2.4807                11.3357

                     31                     32                     33
                      A                      A                      A
 Frequencies --   1279.2481              1291.6030              1352.2067
 Red. masses --      1.5015                 1.5829                 1.4018
 Frc consts  --      1.4477                 1.5559                 1.5102
 IR Inten    --      4.8210                 8.4775                15.9685

                     34                     35                     36
                      A                      A                      A
 Frequencies --   1370.7852              1386.7788              1404.7526
 Red. masses --      1.6176                 1.3608                 1.2894
 Frc consts  --      1.7909                 1.5420                 1.4992
 IR Inten    --      0.9222                 5.9071                39.8085

                     37                     38                     39
                      A                      A                      A
 Frequencies --   1471.4875              1474.2975              1501.0315
 Red. masses --      1.0895                 1.1386                 1.9772
 Frc consts  --      1.3899                 1.4581                 2.6247
 IR Inten    --      2.7174                 0.9583                 3.8857

                     40                     41                     42
                      A                      A                      A
 Frequencies --   1507.1907              1689.9267              2991.2127
 Red. masses --      1.4565                 6.0309                 1.0712
 Frc consts  --      1.9493                10.1477                 5.6471
 IR Inten    --      4.1513                 3.6414                62.0185

                     43                     44                     45
                      A                      A                      A
 Frequencies --   3014.3368              3022.4359              3053.8854
 Red. masses --      1.0649                 1.0623                 1.0859
 Frc consts  --      5.7008                 5.7173                 5.9667
 IR Inten    --     28.7002                15.7184                31.9828

                     46                     47                     48
                      A                      A                      A
 Frequencies --   3056.5475              3060.5029              3106.5958
 Red. masses --      1.0962                 1.0994                 1.0928
 Frc consts  --      6.0341                 6.0672                 6.2137
 IR Inten    --     11.8350                12.8722                25.3917

                     49                     50                     51
                      A                      A                      A
 Frequencies --   3185.8401              3210.4798              3817.8768
 Red. masses --      1.0846                 1.1038                 1.0663
 Frc consts  --      6.4856                 6.7033                 9.1575
 IR Inten    --      5.1419                25.5972                20.8639

 - Thermochemistry -
 -------------------
 Temperature   298.150 Kelvin.  Pressure   1.00000 Atm.
 Atom     1 has atomic number  8 and mass  15.99491

 Molecular mass:   126.06808 amu.
 Principal axes and moments of inertia in atomic units:
                           1         2         3
     Eigenvalues --   569.452251639.746291816.99994
           X            0.99995  -0.00871  -0.00531
           Y            0.00787   0.98987  -0.14176
           Z            0.00649   0.14171   0.98989
 This molecule is an asymmetric top.
 Rotational symmetry number  1.
 Warning -- assumption of classical behavior for rotation
           may cause significant error
 Rotational temperatures (Kelvin)      0.15210     0.05282     0.04767
 Rotational constants (GHZ):           3.16926     1.10062     0.99325
 Zero-point vibrational energy     416662.1 (Joules/Mol)
                                   99.58464 (Kcal/Mol)
 Warning -- explicit consideration of  11 degrees of freedom as
           vibrations may cause significant error
 Vibrational temperatures:     56.56   114.28   200.30   277.27   401.49
          (Kelvin)            524.74   564.48   577.62   620.03   705.07
                              809.22   995.67  1123.20  1130.61  1135.27
                             1339.19  1366.66  1385.18  1411.54  1412.58
                             1419.00  1492.98  1503.40  1570.47  1590.13
                             1629.87  1667.16  1725.55  1746.19  1749.32
                             1840.55  1858.33  1945.52  1972.25  1995.26
                             2021.12  2117.14  2121.18  2159.65  2168.51
                             2431.42  4303.68  4336.95  4348.61  4393.85
                             4397.68  4403.38  4469.69  4583.71  4619.16
                             5493.07

 Zero-point correction=                           0.158698 (Hartree/Particle)
 Thermal correction to Energy=                    0.167408
 Thermal correction to Enthalpy=                  0.168353
 Thermal correction to Gibbs Free Energy=         0.124398
 Sum of electronic and zero-point Energies=           -423.011779
 Sum of electronic and thermal Energies=              -423.003069
 Sum of electronic and thermal Enthalpies=            -423.002124
 Sum of electronic and thermal Free Energies=         -423.046079

                     E (Thermal)             CV                S
                      KCal/Mol        Cal/Mol-Kelvin    Cal/Mol-Kelvin
 Total                  105.050             32.475             92.510
 Electronic               0.000              0.000              0.000
 Translational            0.889              2.981             40.409
 Rotational               0.889              2.981             28.919
 Vibrational            103.273             26.513             23.183
 Vibration     1          0.594              1.981              5.293
 Vibration     2          0.600              1.963              3.905
 Vibration     3          0.615              1.914              2.815
 Vibration     4          0.635              1.850              2.202
 Vibration     5          0.679              1.712              1.539
 Vibration     6          0.738              1.545              1.102
 Vibration     7          0.760              1.487              0.991
 Vibration     8          0.767              1.467              0.957
 Vibration     9          0.792              1.403              0.856
 Vibration    10          0.846              1.272              0.683
 Vibration    11          0.918              1.113              0.519

 Optimization completed.
    -- Stationary point found.
 Normal termination of Gaussian 09 at Tue Jan 28 14:09:57 2020.
