 Gaussian 09, Revision D.01,
 Gaussian 09:  ES64L-G09RevD.01 24-Apr-2013

 -----------------------------
 # b3lyp 6-31G(2df,p) opt Freq
 -----------------------------

 -----
 titel
 -----
 Symbolic Z-matrix:
 Charge =  0 Multiplicity = 1

 SCF Done:  E(RB3LYP) =  -423.087439686     A.U. after   14 cycles
 Optimization completed.
    -- Stationary point found.
 Normal termination of Gaussian 09 at Mon Jan 27 16:03:52 2020.

 ----------------------------------------------------------------------
 #N Geom=AllCheck Guess=TCheck SCRF=Check GenChk RB3LYP/6-31G(2df,p) Fr
 eq
 ----------------------------------------------------------------------

 Structure from the checkpoint file:  "/scratch/puck/g09_d8c9de43-b7ad-4908-af99-96a6ef682d60/Gau-82653.chk"
 -----
 titel
 -----
 Charge =  0 Multiplicity = 1

                         Standard orientation:
 ---------------------------------------------------------------------
 Center     Atomic      Atomic             Coordinates (Angstroms)
 Number     Number       Type             X           Y           Z
 ---------------------------------------------------------------------
      1          6           0        2.554503   -0.159780    0.002955
      2          6           0        1.100857    0.277917   -0.002732
      3          8           0        0.968297    1.674823   -0.072066
      4          6           0        0.091142   -0.523413    0.908156
      5          8           0        0.280791   -1.673992   -0.008204
      6          6           0        0.096102   -0.505405   -0.902543
      7          6           0       -1.055636   -0.053392    0.006074
      8          6           0       -2.026415    1.068656    0.015062
      9          6           0       -2.506712   -0.378729   -0.003104
     10          1           0        3.069538    0.241389    0.885651
     11          1           0        2.632457   -1.246175    0.023418
     12          1           0        3.066169    0.223989   -0.885701
     13          1           0        1.674593    2.068244    0.449643
     14          1           0        0.106513   -0.724041    1.980974
     15          1           0        0.116116   -0.681226   -1.979209
     16          1           0       -2.145975    1.637535    0.931288
     17          1           0       -2.137808    1.659133   -0.888201
     18          1           0       -2.952268   -0.781051    0.901035
     19          1           0       -2.945077   -0.759570   -0.919955
 ---------------------------------------------------------------------

 SCF Done:  E(RB3LYP) =  -423.087439686     A.U. after    1 cycles

 The electronic state is 1-A.
 Alpha  occ. eigenvalues --  -19.14330 -19.13081 -10.24648 -10.24053 -10.23838
 Alpha  occ. eigenvalues --  -10.19736 -10.18079 -10.17994 -10.17763  -1.05937
 Alpha  occ. eigenvalues --   -1.02217  -0.84989  -0.76328  -0.71746  -0.65258
 Alpha  occ. eigenvalues --   -0.60202  -0.58724  -0.52948  -0.51630  -0.49159
 Alpha  occ. eigenvalues --   -0.47234  -0.45389  -0.43401  -0.39142  -0.38854
 Alpha  occ. eigenvalues --   -0.37737  -0.36147  -0.35584  -0.32691  -0.31170
 Alpha  occ. eigenvalues --   -0.29656  -0.27693  -0.26634  -0.23275
 Alpha virt. eigenvalues --    0.06902   0.09060   0.09800   0.11313   0.13001
 Alpha virt. eigenvalues --    0.13259   0.13776   0.14751   0.14840   0.17251
 Alpha virt. eigenvalues --    0.17964   0.18922   0.19720   0.21167   0.22865

 Mulliken charges:
               1
     1  C   -0.486347
     2  C    0.440114
     3  O   -0.473132
     4  C   -0.135905
     5  O   -0.311011
     6  C   -0.108637
     7  C    0.488845
     8  C   -0.335879
     9  C   -0.374200
    10  H    0.106038
    11  H    0.149666
    12  H    0.123338
    13  H    0.281966
    14  H    0.085202
    15  H    0.089453
    16  H    0.112853
    17  H    0.117661
    18  H    0.114564
    19  H    0.115410
 Sum of Mulliken charges =   0.00000

 Dipole moment (field-independent basis, Debye):
    X=              0.8612    Y=              1.3845    Z=              0.7188  Tot=              1.7819
 Quadrupole moment (field-independent basis, Debye-Ang):
   XX=            -49.8711   YY=            -57.5832   ZZ=            -48.6629
   XY=              2.5833   XZ=              1.4026   YZ=              1.8555

  Exact polarizability:  90.170   0.609  71.247   0.737   0.644  68.657
 Approx polarizability: 111.801   0.516 113.273   1.375   0.489 108.081

                      1                      2                      3
                      A                      A                      A
 Frequencies --    156.5382               175.2967               216.7295
 Red. masses --      4.0283                 3.1179                 1.6624
 Frc consts  --      0.0582                 0.0564                 0.0460
 IR Inten    --      1.9872                 7.5245                 3.6446

                      4                      5                      6
                      A                      A                      A
 Frequencies --    230.3497               246.9207               327.0512
 Red. masses --      1.0731                 1.2141                 2.5996
 Frc consts  --      0.0335                 0.0436                 0.1638
 IR Inten    --     78.8962                 0.1137                 0.9294

                      7                      8                      9
                      A                      A                      A
 Frequencies --    336.9198               386.5953               436.9773
 Red. masses --      5.2911                 3.1669                 2.6217
 Frc consts  --      0.3539                 0.2789                 0.2949
 IR Inten    --     11.5641                 2.1509                 2.2065

                     10                     11                     12
                      A                      A                      A
 Frequencies --    494.1649               608.9474               651.8928
 Red. masses --      5.0788                 4.3333                 4.5639
 Frc consts  --      0.7307                 0.9467                 1.1427
 IR Inten    --      1.5311                 6.6921                 5.4479

                     13                     14                     15
                      A                      A                      A
 Frequencies --    733.6512               742.3033               765.1974
 Red. masses --      2.8925                 2.1177                 1.5299
 Frc consts  --      0.9173                 0.6875                 0.5278
 IR Inten    --      6.3376                 6.1516                 4.4968

                     16                     17                     18
                      A                      A                      A
 Frequencies --    805.4049               867.0227               881.9801
 Red. masses --      2.2273                 3.2166                 2.5323
 Frc consts  --      0.8512                 1.4247                 1.1606
 IR Inten    --      2.0171                13.0426                 6.0889

                     19                     20                     21
                      A                      A                      A
 Frequencies --    916.7652               940.4160               970.0068
 Red. masses --      1.1995                 2.0267                 2.3965
 Frc consts  --      0.5940                 1.0560                 1.3285
 IR Inten    --      0.5364                31.5448                10.6339

                     22                     23                     24
                      A                      A                      A
 Frequencies --   1015.3077              1053.6139              1074.8481
 Red. masses --      4.7645                 1.4628                 1.4433
 Frc consts  --      2.8938                 0.9568                 0.9824
 IR Inten    --      9.4766                 5.8680                 0.7857

                     25                     26                     27
                      A                      A                      A
 Frequencies --   1077.7287              1103.4181              1127.1373
 Red. masses --      1.5863                 1.9450                 2.7566
 Frc consts  --      1.0856                 1.3952                 2.0634
 IR Inten    --     11.9076                17.2434                 2.4393

                     28                     29                     30
                      A                      A                      A
 Frequencies --   1129.1659              1142.6870              1178.1024
 Red. masses --      1.6362                 1.4039                 1.2809
 Frc consts  --      1.2291                 1.0801                 1.0475
 IR Inten    --     14.0939                 2.1888                 0.0617

                     31                     32                     33
                      A                      A                      A
 Frequencies --   1205.7883              1221.0669              1229.2566
 Red. masses --      1.8943                 1.8884                 3.3680
 Frc consts  --      1.6227                 1.6589                 2.9985
 IR Inten    --     25.8273                77.0660                50.7888

                     34                     35                     36
                      A                      A                      A
 Frequencies --   1246.4405              1391.8915              1405.0759
 Red. masses --      1.6521                 1.3493                 1.8424
 Frc consts  --      1.5123                 1.5402                 2.1431
 IR Inten    --     34.0287                 0.2674                35.3074

                     37                     38                     39
                      A                      A                      A
 Frequencies --   1426.9434              1463.0618              1490.7948
 Red. masses --      1.6939                 1.0883                 1.0697
 Frc consts  --      2.0321                 1.3726                 1.4007
 IR Inten    --      2.7208                 0.8092                 7.9320

                     40                     41                     42
                      A                      A                      A
 Frequencies --   1504.1001              1524.2528              3024.2361
 Red. masses --      1.0594                 2.2728                 1.0446
 Frc consts  --      1.4120                 3.1112                 5.6293
 IR Inten    --      6.8969                 0.0925                32.2872

                     43                     44                     45
                      A                      A                      A
 Frequencies --   3088.1756              3103.2887              3112.0456
 Red. masses --      1.0951                 1.0907                 1.0946
 Frc consts  --      6.1530                 6.1889                 6.2461
 IR Inten    --     19.7196                73.9463                13.6786

                     46                     47                     48
                      A                      A                      A
 Frequencies --   3125.8275              3131.4533              3159.2169
 Red. masses --      1.0523                 1.0570                 1.0965
 Frc consts  --      6.0576                 6.1070                 6.4477
 IR Inten    --     16.2912                11.4837                 4.5513

                     49                     50                     51
                      A                      A                      A
 Frequencies --   3202.9336              3217.4871              3820.8300
 Red. masses --      1.1175                 1.1149                 1.0662
 Frc consts  --      6.7545                 6.8002                 9.1705
 IR Inten    --      0.4173                14.4034                21.3426

 - Thermochemistry -
 -------------------
 Temperature   298.150 Kelvin.  Pressure   1.00000 Atm.
 Atom     1 has atomic number  6 and mass  12.00000

 Molecular mass:   126.06808 amu.
 Principal axes and moments of inertia in atomic units:
                           1         2         3
     Eigenvalues --   568.318211198.913731533.14074
           X            0.99998  -0.00595   0.00272
           Y            0.00592   0.99994   0.00932
           Z           -0.00277  -0.00931   0.99995
 This molecule is an asymmetric top.
 Rotational symmetry number  1.
 Warning -- assumption of classical behavior for rotation
           may cause significant error
 Rotational temperatures (Kelvin)      0.15240     0.07224     0.05649
 Rotational constants (GHZ):           3.17558     1.50531     1.17715
 Zero-point vibrational energy     412037.6 (Joules/Mol)
                                   98.47935 (Kcal/Mol)
 Warning -- explicit consideration of  11 degrees of freedom as
           vibrations may cause significant error
 Vibrational temperatures:    225.22   252.21   311.82   331.42   355.26
          (Kelvin)            470.55   484.75   556.22   628.71   710.99
                              876.14   937.93  1055.56  1068.01  1100.95
                             1158.80  1247.45  1268.97  1319.02  1353.05
                             1395.62  1460.80  1515.91  1546.46  1550.61
                             1587.57  1621.70  1624.62  1644.07  1695.02
                             1734.86  1756.84  1768.62  1793.35  2002.62
                             2021.59  2053.05  2105.02  2144.92  2164.06
                             2193.06  4351.20  4443.19  4464.93  4477.53
                             4497.36  4505.46  4545.40  4608.30  4629.24
                             5497.32

 Zero-point correction=                           0.156937 (Hartree/Particle)
 Thermal correction to Energy=                    0.165371
 Thermal correction to Enthalpy=                  0.166315
 Thermal correction to Gibbs Free Energy=         0.124641
 Sum of electronic and zero-point Energies=           -422.930503
 Sum of electronic and thermal Energies=              -422.922069
 Sum of electronic and thermal Enthalpies=            -422.921125
 Sum of electronic and thermal Free Energies=         -422.962798

                     E (Thermal)             CV                S
                      KCal/Mol        Cal/Mol-Kelvin    Cal/Mol-Kelvin
 Total                  103.772             33.607             87.710
 Electronic               0.000              0.000              0.000
 Translational            0.889              2.981             40.409
 Rotational               0.889              2.981             28.437
 Vibrational            101.994             27.645             18.864
 Vibration     1          0.620              1.895              2.591
 Vibration     2          0.627              1.873              2.378
 Vibration     3          0.646              1.816              1.986
 Vibration     4          0.652              1.795              1.876
 Vibration     5          0.661              1.768              1.752
 Vibration     6          0.711              1.621              1.275
 Vibration     7          0.718              1.602              1.227
 Vibration     8          0.755              1.499              1.013
 Vibration     9          0.797              1.390              0.836
 Vibration    10          0.850              1.263              0.673
 Vibration    11          0.968              1.013              0.435

 Optimization completed.
    -- Stationary point found.
 Normal termination of Gaussian 09 at Mon Jan 27 16:45:12 2020.
