 Gaussian 09, Revision D.01,
 Gaussian 09:  ES64L-G09RevD.01 24-Apr-2013

 -----------------------------
 # b3lyp 6-31G(2df,p) opt Freq
 -----------------------------

 -----
 titel
 -----
 Symbolic Z-matrix:
 Charge =  0 Multiplicity = 1

 SCF Done:  E(RB3LYP) =  -423.181688835     A.U. after   14 cycles
 Optimization completed.
    -- Stationary point found.
 Normal termination of Gaussian 09 at Mon Jan 27 16:18:56 2020.

 ----------------------------------------------------------------------
 #N Geom=AllCheck Guess=TCheck SCRF=Check GenChk RB3LYP/6-31G(2df,p) Fr
 eq
 ----------------------------------------------------------------------

 Structure from the checkpoint file:  "/scratch/puck/g09_022dab93-67a5-43d9-a4a9-fcbb4c0805c0/Gau-69625.chk"
 -----
 titel
 -----
 Charge =  0 Multiplicity = 1

                         Standard orientation:
 ---------------------------------------------------------------------
 Center     Atomic      Atomic             Coordinates (Angstroms)
 Number     Number       Type             X           Y           Z
 ---------------------------------------------------------------------
      1          6           0        1.247921    1.706752    0.187312
      2          6           0        0.976154    0.208167    0.021667
      3          6           0        2.234366   -0.538873   -0.429761
      4          6           0        0.332556   -0.453129    1.304819
      5          6           0       -1.000902   -0.917069    0.696488
      6          8           0       -0.592007   -1.444891   -0.611131
      7          6           0       -0.205982   -0.070642   -0.946725
      8          6           0       -1.449133    0.319074   -0.117687
      9          8           0       -2.383029    1.053194   -0.189108
     10          1           0        0.354317    2.249769    0.512395
     11          1           0        2.032856    1.877502    0.931361
     12          1           0        1.583941    2.152145   -0.755757
     13          1           0        2.009291   -1.590601   -0.624751
     14          1           0        2.650519   -0.098975   -1.343115
     15          1           0        3.007653   -0.492936    0.345236
     16          1           0        0.918477   -1.300183    1.669951
     17          1           0        0.193372    0.255631    2.126465
     18          1           0       -1.673590   -1.564299    1.255658
     19          1           0       -0.086426    0.119850   -2.012215
 ---------------------------------------------------------------------

 SCF Done:  E(RB3LYP) =  -423.181688835     A.U. after    1 cycles

 The electronic state is 1-A.
 Alpha  occ. eigenvalues --  -19.16170 -19.14972 -10.27956 -10.24936 -10.24508
 Alpha  occ. eigenvalues --  -10.21235 -10.19728 -10.18542 -10.18056  -1.07902
 Alpha  occ. eigenvalues --   -1.04878  -0.83021  -0.75169  -0.70902  -0.69376
 Alpha  occ. eigenvalues --   -0.65189  -0.55801  -0.54961  -0.49773  -0.46737
 Alpha  occ. eigenvalues --   -0.46605  -0.45584  -0.43668  -0.41934  -0.39911
 Alpha  occ. eigenvalues --   -0.39757  -0.38586  -0.37709  -0.35653  -0.34914
 Alpha  occ. eigenvalues --   -0.33866  -0.32970  -0.27245  -0.24885
 Alpha virt. eigenvalues --   -0.01380   0.07465   0.08768   0.11537   0.12336
 Alpha virt. eigenvalues --    0.13154   0.13584   0.14748   0.15350   0.16121
 Alpha virt. eigenvalues --    0.16373   0.17414   0.18777   0.19936   0.20925

 Mulliken charges:
               1
     1  C   -0.456617
     2  C    0.317300
     3  C   -0.450560
     4  C   -0.284443
     5  C   -0.043583
     6  O   -0.295030
     7  C   -0.081431
     8  C    0.455302
     9  O   -0.320578
    10  H    0.129442
    11  H    0.121692
    12  H    0.119499
    13  H    0.133005
    14  H    0.112373
    15  H    0.115191
    16  H    0.114645
    17  H    0.112441
    18  H    0.103225
    19  H    0.098128
 Sum of Mulliken charges =   0.00000

 Dipole moment (field-independent basis, Debye):
    X=              2.4384    Y=             -0.1778    Z=              0.9824  Tot=              2.6349
 Quadrupole moment (field-independent basis, Debye-Ang):
   XX=            -58.7210   YY=            -56.4600   ZZ=            -50.5696
   XY=              3.8613   XZ=             -1.6596   YZ=             -2.0977

  Exact polarizability:  81.949  -1.619  71.998  -2.431  -3.332  69.790
 Approx polarizability: 115.074  -7.927 114.239  -3.031  -2.142 107.841

                      1                      2                      3
                      A                      A                      A
 Frequencies --    123.7316               159.1715               230.2773
 Red. masses --      5.2967                 3.4240                 1.1002
 Frc consts  --      0.0478                 0.0511                 0.0344
 IR Inten    --      2.3533                 2.7182                 0.0253

                      4                      5                      6
                      A                      A                      A
 Frequencies --    253.4939               259.7204               327.9017
 Red. masses --      2.6637                 1.0770                 2.4899
 Frc consts  --      0.1008                 0.0428                 0.1577
 IR Inten    --      3.1735                 0.0512                 0.3420

                      7                      8                      9
                      A                      A                      A
 Frequencies --    363.3633               423.9447               460.0278
 Red. masses --      2.4097                 2.3754                 3.1145
 Frc consts  --      0.1875                 0.2515                 0.3883
 IR Inten    --      0.9777                 0.8910                 4.9154

                     10                     11                     12
                      A                      A                      A
 Frequencies --    518.7114               580.1256               641.5252
 Red. masses --      4.8270                 3.9457                 3.9353
 Frc consts  --      0.7652                 0.7824                 0.9542
 IR Inten    --      6.6122                 0.2033                 1.5474

                     13                     14                     15
                      A                      A                      A
 Frequencies --    753.2026               775.8701               858.1011
 Red. masses --      4.6732                 3.8281                 3.2790
 Frc consts  --      1.5620                 1.3577                 1.4225
 IR Inten    --      3.8198                 1.4298                20.1086

                     16                     17                     18
                      A                      A                      A
 Frequencies --    871.2699               889.9322               937.0687
 Red. masses --      6.8859                 2.4565                 1.8392
 Frc consts  --      3.0798                 1.1462                 0.9515
 IR Inten    --     34.6713                24.8788                 6.0612

                     19                     20                     21
                      A                      A                      A
 Frequencies --    944.0622               960.0818               964.3248
 Red. masses --      2.2496                 1.5543                 1.7804
 Frc consts  --      1.1813                 0.8441                 0.9755
 IR Inten    --      9.4267                 0.5399                 2.9383

                     22                     23                     24
                      A                      A                      A
 Frequencies --   1032.1371              1034.6368              1058.8448
 Red. masses --      2.7861                 1.5123                 3.2047
 Frc consts  --      1.7487                 0.9538                 2.1169
 IR Inten    --      5.8651                 0.7034                 2.0722

                     25                     26                     27
                      A                      A                      A
 Frequencies --   1076.1844              1155.2624              1198.9550
 Red. masses --      1.3005                 1.5302                 1.7021
 Frc consts  --      0.8875                 1.2033                 1.4416
 IR Inten    --      9.2664                 1.8742                 0.5974

                     28                     29                     30
                      A                      A                      A
 Frequencies --   1207.1674              1236.5847              1261.0169
 Red. masses --      1.6758                 2.1878                 1.8785
 Frc consts  --      1.4388                 1.9710                 1.7599
 IR Inten    --      5.9239                 2.8619                 2.1021

                     31                     32                     33
                      A                      A                      A
 Frequencies --   1265.8392              1293.2795              1326.5332
 Red. masses --      1.9566                 1.7294                 1.7148
 Frc consts  --      1.8472                 1.7042                 1.7779
 IR Inten    --      8.5403                 1.2066                 1.5945

                     34                     35                     36
                      A                      A                      A
 Frequencies --   1400.2163              1423.4469              1486.2310
 Red. masses --      1.2462                 1.2222                 1.0512
 Frc consts  --      1.4396                 1.4591                 1.3680
 IR Inten    --      7.7692                 2.2576                 3.6965

                     37                     38                     39
                      A                      A                      A
 Frequencies --   1487.8070              1489.4193              1503.8175
 Red. masses --      1.0812                 1.0565                 1.0562
 Frc consts  --      1.4101                 1.3809                 1.4073
 IR Inten    --      4.1627                 0.5338                 1.6806

                     40                     41                     42
                      A                      A                      A
 Frequencies --   1512.4885              1922.4859              3026.4937
 Red. masses --      1.0543                12.3206                 1.0357
 Frc consts  --      1.4210                26.8293                 5.5891
 IR Inten    --      5.8025               318.8876                18.4637

                     43                     44                     45
                      A                      A                      A
 Frequencies --   3030.4375              3060.1354              3090.1091
 Red. masses --      1.0359                 1.0591                 1.1015
 Frc consts  --      5.6052                 5.8433                 6.1969
 IR Inten    --     24.5939                17.9421                 7.5593

                     46                     47                     48
                      A                      A                      A
 Frequencies --   3096.5956              3102.1489              3110.4498
 Red. masses --      1.1007                 1.1017                 1.1066
 Frc consts  --      6.2184                 6.2466                 6.3079
 IR Inten    --     32.4490                19.3548                14.2646

                     49                     50                     51
                      A                      A                      A
 Frequencies --   3118.7616              3143.3790              3152.0340
 Red. masses --      1.1004                 1.0904                 1.0929
 Frc consts  --      6.3061                 6.3478                 6.3973
 IR Inten    --     17.0244                23.1464                17.8302

 - Thermochemistry -
 -------------------
 Temperature   298.150 Kelvin.  Pressure   1.00000 Atm.
 Atom     1 has atomic number  6 and mass  12.00000

 Molecular mass:   126.06808 amu.
 Principal axes and moments of inertia in atomic units:
                           1         2         3
     Eigenvalues --   669.577901138.885751356.14768
           X            0.99929   0.03476  -0.01457
           Y           -0.03514   0.99903  -0.02668
           Z            0.01362   0.02717   0.99954
 This molecule is an asymmetric top.
 Rotational symmetry number  1.
 Warning -- assumption of classical behavior for rotation
           may cause significant error
 Rotational temperatures (Kelvin)      0.12936     0.07605     0.06387
 Rotational constants (GHZ):           2.69534     1.58466     1.33079
 Zero-point vibrational energy     416293.3 (Joules/Mol)
                                   99.49649 (Kcal/Mol)
 Warning -- explicit consideration of  11 degrees of freedom as
           vibrations may cause significant error
 Vibrational temperatures:    178.02   229.01   331.32   364.72   373.68
          (Kelvin)            471.78   522.80   609.96   661.88   746.31
                              834.67   923.01  1083.69  1116.30  1234.61
                             1253.56  1280.41  1348.23  1358.29  1381.34
                             1387.45  1485.01  1488.61  1523.44  1548.39
                             1662.16  1725.03  1736.84  1779.17  1814.32
                             1821.26  1860.74  1908.58  2014.60  2048.02
                             2138.35  2140.62  2142.94  2163.66  2176.13
                             2766.02  4354.44  4360.12  4402.85  4445.97
                             4455.30  4463.29  4475.24  4487.20  4522.62
                             4535.07

 Zero-point correction=                           0.158558 (Hartree/Particle)
 Thermal correction to Energy=                    0.166786
 Thermal correction to Enthalpy=                  0.167730
 Thermal correction to Gibbs Free Energy=         0.126264
 Sum of electronic and zero-point Energies=           -423.023131
 Sum of electronic and thermal Energies=              -423.014903
 Sum of electronic and thermal Enthalpies=            -423.013959
 Sum of electronic and thermal Free Energies=         -423.055424

                     E (Thermal)             CV                S
                      KCal/Mol        Cal/Mol-Kelvin    Cal/Mol-Kelvin
 Total                  104.660             32.353             87.271
 Electronic               0.000              0.000              0.000
 Translational            0.889              2.981             40.409
 Rotational               0.889              2.981             28.427
 Vibrational            102.882             26.391             18.436
 Vibration     1          0.610              1.929              3.041
 Vibration     2          0.621              1.892              2.560
 Vibration     3          0.652              1.795              1.877
 Vibration     4          0.665              1.757              1.706
 Vibration     5          0.668              1.746              1.664
 Vibration     6          0.711              1.620              1.270
 Vibration     7          0.737              1.548              1.108
 Vibration     8          0.786              1.418              0.879
 Vibration     9          0.818              1.339              0.766
 Vibration    10          0.874              1.209              0.613
 Vibration    11          0.937              1.074              0.485

 Optimization completed.
    -- Stationary point found.
 Normal termination of Gaussian 09 at Mon Jan 27 17:16:34 2020.
