 Gaussian 09, Revision D.01,
 Gaussian 09:  ES64L-G09RevD.01 24-Apr-2013

 -----------------------------
 # b3lyp 6-31G(2df,p) opt Freq
 -----------------------------

 -----
 titel
 -----
 Symbolic Z-matrix:
 Charge =  0 Multiplicity = 1

 SCF Done:  E(RB3LYP) =  -423.187233868     A.U. after   14 cycles
 Optimization completed.
    -- Stationary point found.
 Normal termination of Gaussian 09 at Mon Jan 27 13:34:57 2020.

 ----------------------------------------------------------------------
 #N Geom=AllCheck Guess=TCheck SCRF=Check GenChk RB3LYP/6-31G(2df,p) Fr
 eq
 ----------------------------------------------------------------------

 Structure from the checkpoint file:  "/scratch/puck/g09_0b18823f-229e-46d3-8cad-c82e5acca61c/Gau-76420.chk"
 -----
 titel
 -----
 Charge =  0 Multiplicity = 1

                         Standard orientation:
 ---------------------------------------------------------------------
 Center     Atomic      Atomic             Coordinates (Angstroms)
 Number     Number       Type             X           Y           Z
 ---------------------------------------------------------------------
      1          8           0       -3.022195   -0.008007   -0.512323
      2          6           0       -1.821168   -0.071896   -0.549890
      3          6           0       -0.905840    0.307473    0.613748
      4          6           0       -0.066929   -0.895286    1.096626
      5          8           0        0.635915   -1.607872    0.101972
      6          6           0        1.517318   -0.894434   -0.754016
      7          6           0        2.155475    0.373847   -0.181754
      8          6           0        1.220217    1.552234   -0.047999
      9          6           0       -0.077842    1.522656    0.259966
     10          1           0       -1.290520   -0.405013   -1.467646
     11          1           0       -1.578631    0.579563    1.436256
     12          1           0        0.609659   -0.535987    1.886520
     13          1           0       -0.732856   -1.636389    1.549440
     14          1           0        2.303572   -1.609583   -1.019631
     15          1           0        0.991427   -0.625083   -1.683524
     16          1           0        2.646438    0.149747    0.775482
     17          1           0        2.967700    0.652574   -0.863473
     18          1           0        1.668978    2.525995   -0.232373
     19          1           0       -0.622902    2.463637    0.281669
 ---------------------------------------------------------------------

 SCF Done:  E(RB3LYP) =  -423.187233868     A.U. after    1 cycles

 The electronic state is 1-A.
 Alpha  occ. eigenvalues --  -19.14531 -19.14028 -10.27062 -10.24063 -10.23688
 Alpha  occ. eigenvalues --  -10.20333 -10.20045 -10.19783 -10.19632  -1.04747
 Alpha  occ. eigenvalues --   -1.03687  -0.82472  -0.79418  -0.70786  -0.69265
 Alpha  occ. eigenvalues --   -0.61208  -0.57049  -0.54149  -0.51741  -0.49810
 Alpha  occ. eigenvalues --   -0.46266  -0.44996  -0.43699  -0.43402  -0.41980
 Alpha  occ. eigenvalues --   -0.40486  -0.39520  -0.37879  -0.37092  -0.33313
 Alpha  occ. eigenvalues --   -0.30786  -0.27455  -0.26020  -0.24044
 Alpha virt. eigenvalues --   -0.03213   0.02096   0.07436   0.10021   0.10382
 Alpha virt. eigenvalues --    0.12438   0.13938   0.14383   0.15020   0.16503
 Alpha virt. eigenvalues --    0.17261   0.19202   0.19689   0.20408   0.22055

 Mulliken charges:
               1
     1  O   -0.246993
     2  C    0.167360
     3  C   -0.145529
     4  C   -0.098848
     5  O   -0.256037
     6  C   -0.056335
     7  C   -0.283813
     8  C   -0.053413
     9  C   -0.080881
    10  H    0.087616
    11  H    0.102318
    12  H    0.101629
    13  H    0.121226
    14  H    0.110190
    15  H    0.094591
    16  H    0.126310
    17  H    0.112093
    18  H    0.096449
    19  H    0.102069
 Sum of Mulliken charges =   0.00000

 Dipole moment (field-independent basis, Debye):
    X=              3.0911    Y=              1.1649    Z=              0.4798  Tot=              3.3380
 Quadrupole moment (field-independent basis, Debye-Ang):
   XX=            -60.2188   YY=            -54.5049   ZZ=            -51.6096
   XY=              0.8271   XZ=             -3.3440   YZ=             -0.3202

  Exact polarizability:  98.629   1.139  70.816  -5.902   0.751  64.475
 Approx polarizability: 150.139   1.788 100.802  -9.617   1.193  97.502

                      1                      2                      3
                      A                      A                      A
 Frequencies --     22.7308                94.3963               168.2056
 Red. masses --      4.7110                 3.4963                 4.2833
 Frc consts  --      0.0014                 0.0184                 0.0714
 IR Inten    --      5.1846                 0.6529                 7.2680

                      4                      5                      6
                      A                      A                      A
 Frequencies --    206.4416               265.4302               316.1805
 Red. masses --      2.3515                 2.2211                 2.1209
 Frc consts  --      0.0590                 0.0922                 0.1249
 IR Inten    --      1.0765                 1.6923                 1.2581

                      7                      8                      9
                      A                      A                      A
 Frequencies --    354.2142               413.9512               474.8529
 Red. masses --      4.4685                 2.7203                 4.6276
 Frc consts  --      0.3303                 0.2746                 0.6148
 IR Inten    --      1.2524                 0.9014                10.9254

                     10                     11                     12
                      A                      A                      A
 Frequencies --    501.2721               617.1720               731.8542
 Red. masses --      3.1310                 2.1051                 1.6346
 Frc consts  --      0.4635                 0.4724                 0.5158
 IR Inten    --      1.5720                 4.9508                38.8824

                     13                     14                     15
                      A                      A                      A
 Frequencies --    769.1708               789.0863               849.1735
 Red. masses --      2.3452                 3.0397                 2.6261
 Frc consts  --      0.8175                 1.1152                 1.1157
 IR Inten    --     10.0432                 3.4743                 1.2478

                     16                     17                     18
                      A                      A                      A
 Frequencies --    883.6062               969.9128               972.0987
 Red. masses --      3.2862                 2.2663                 2.2887
 Frc consts  --      1.5117                 1.2561                 1.2742
 IR Inten    --      5.3209                13.7215                13.0580

                     19                     20                     21
                      A                      A                      A
 Frequencies --    995.6597              1012.3677              1040.7319
 Red. masses --      2.6210                 1.2131                 1.8587
 Frc consts  --      1.5309                 0.7326                 1.1861
 IR Inten    --     20.9536                 0.7443                13.5480

                     22                     23                     24
                      A                      A                      A
 Frequencies --   1083.8621              1095.1566              1116.8465
 Red. masses --      2.2238                 2.4124                 2.1523
 Frc consts  --      1.5392                 1.7047                 1.5817
 IR Inten    --      1.9802                 9.8332                21.0048

                     25                     26                     27
                      A                      A                      A
 Frequencies --   1170.6331              1232.8231              1242.8923
 Red. masses --      3.8569                 1.2836                 1.1570
 Frc consts  --      3.1141                 1.1494                 1.0531
 IR Inten    --     75.5641                25.5780                 1.8713

                     28                     29                     30
                      A                      A                      A
 Frequencies --   1256.7123              1305.5743              1328.1601
 Red. masses --      1.2022                 1.1851                 1.1674
 Frc consts  --      1.1186                 1.1902                 1.2133
 IR Inten    --      1.4471                21.2245                 2.8220

                     31                     32                     33
                      A                      A                      A
 Frequencies --   1336.8924              1370.5406              1395.0552
 Red. masses --      1.5147                 1.4892                 1.2623
 Frc consts  --      1.5950                 1.6481                 1.4474
 IR Inten    --      2.6743                 4.4478                 0.2532

                     34                     35                     36
                      A                      A                      A
 Frequencies --   1421.4186              1430.0634              1432.1156
 Red. masses --      1.2675                 1.2586                 1.2911
 Frc consts  --      1.5088                 1.5166                 1.5601
 IR Inten    --      2.9812                11.5841                 6.8580

                     37                     38                     39
                      A                      A                      A
 Frequencies --   1467.1826              1507.2790              1514.6253
 Red. masses --      1.0926                 1.0801                 1.0918
 Frc consts  --      1.3858                 1.4457                 1.4758
 IR Inten    --      5.3238                 3.9717                 1.4307

                     40                     41                     42
                      A                      A                      A
 Frequencies --   1716.6706              1826.6465              2901.6085
 Red. masses --      6.8642                10.2389                 1.0831
 Frc consts  --     11.9182                20.1285                 5.3725
 IR Inten    --      2.7826               218.5948                71.4377

                     43                     44                     45
                      A                      A                      A
 Frequencies --   2977.6869              2992.0216              3018.3238
 Red. masses --      1.0696                 1.0700                 1.0642
 Frc consts  --      5.5877                 5.6436                 5.7123
 IR Inten    --     72.0033                15.4318                25.0972

                     46                     47                     48
                      A                      A                      A
 Frequencies --   3040.1389              3056.2039              3062.9393
 Red. masses --      1.0839                 1.0984                 1.0906
 Frc consts  --      5.9023                 6.0445                 6.0284
 IR Inten    --     15.1438                17.8407                55.5537

                     49                     50                     51
                      A                      A                      A
 Frequencies --   3079.7657              3139.3696              3162.8348
 Red. masses --      1.0938                 1.0833                 1.0951
 Frc consts  --      6.1124                 6.2907                 6.4546
 IR Inten    --     25.1640                 3.2424                27.6739

 - Thermochemistry -
 -------------------
 Temperature   298.150 Kelvin.  Pressure   1.00000 Atm.
 Atom     1 has atomic number  8 and mass  15.99491

 Molecular mass:   126.06808 amu.
 Principal axes and moments of inertia in atomic units:
                           1         2         3
     Eigenvalues --   679.209081372.855201691.03868
           X            0.99980   0.00643  -0.01892
           Y           -0.00639   0.99998   0.00242
           Z            0.01894  -0.00229   0.99982
 This molecule is an asymmetric top.
 Rotational symmetry number  1.
 Warning -- assumption of classical behavior for rotation
           may cause significant error
 Rotational temperatures (Kelvin)      0.12752     0.06309     0.05122
 Rotational constants (GHZ):           2.65712     1.31459     1.06724
 Zero-point vibrational energy     419473.9 (Joules/Mol)
                                  100.25666 (Kcal/Mol)
 Warning -- explicit consideration of  11 degrees of freedom as
           vibrations may cause significant error
 Vibrational temperatures:     32.70   135.82   242.01   297.02   381.89
          (Kelvin)            454.91   509.63   595.58   683.21   721.22
                              887.97  1052.97  1106.66  1135.32  1221.77
                             1271.31  1395.49  1398.63  1432.53  1456.57
                             1497.38  1559.43  1575.68  1606.89  1684.28
                             1773.76  1788.24  1808.13  1878.43  1910.92
                             1923.49  1971.90  2007.17  2045.10  2057.54
                             2060.49  2110.95  2168.64  2179.21  2469.90
                             2628.13  4174.76  4284.22  4304.85  4342.69
                             4374.08  4397.19  4406.88  4431.09  4516.85
                             4550.61

 Zero-point correction=                           0.159769 (Hartree/Particle)
 Thermal correction to Energy=                    0.168339
 Thermal correction to Enthalpy=                  0.169283
 Thermal correction to Gibbs Free Energy=         0.125283
 Sum of electronic and zero-point Energies=           -423.027465
 Sum of electronic and thermal Energies=              -423.018895
 Sum of electronic and thermal Enthalpies=            -423.017951
 Sum of electronic and thermal Free Energies=         -423.061950

                     E (Thermal)             CV                S
                      KCal/Mol        Cal/Mol-Kelvin    Cal/Mol-Kelvin
 Total                  105.634             31.499             92.605
 Electronic               0.000              0.000              0.000
 Translational            0.889              2.981             40.409
 Rotational               0.889              2.981             28.846
 Vibrational            103.857             25.537             23.351
 Vibration     1          0.593              1.985              6.380
 Vibration     2          0.603              1.953              3.567
 Vibration     3          0.625              1.882              2.455
 Vibration     4          0.641              1.831              2.075
 Vibration     5          0.671              1.736              1.626
 Vibration     6          0.703              1.643              1.330
 Vibration     7          0.730              1.567              1.147
 Vibration     8          0.778              1.440              0.913
 Vibration     9          0.832              1.306              0.724
 Vibration    10          0.857              1.247              0.655
 Vibration    11          0.977              0.996              0.421

 Normal termination of Gaussian 09 at Mon Jan 27 14:16:40 2020.
