 Gaussian 09, Revision D.01,
 Gaussian 09:  ES64L-G09RevD.01 24-Apr-2013

 -----------------------------
 # b3lyp 6-31G(2df,p) opt Freq
 -----------------------------

 -----
 titel
 -----
 Symbolic Z-matrix:
 Charge =  0 Multiplicity = 1

 SCF Done:  E(RB3LYP) =  -423.202399705     A.U. after   14 cycles
 SCF Done:  E(RB3LYP) =  -423.202399274     A.U. after    8 cycles
 SCF Done:  E(RB3LYP) =  -423.202399701     A.U. after    7 cycles
 Optimization completed.
    -- Stationary point found.
 Normal termination of Gaussian 09 at Mon Jan 27 16:46:52 2020.

 ----------------------------------------------------------------------
 #N Geom=AllCheck Guess=TCheck SCRF=Check GenChk RB3LYP/6-31G(2df,p) Fr
 eq
 ----------------------------------------------------------------------

 Structure from the checkpoint file:  "/scratch/puck/g09_fe4ec309-f244-4047-aeba-b86900b9da4f/Gau-12110.chk"
 -----
 titel
 -----
 Charge =  0 Multiplicity = 1

                         Standard orientation:
 ---------------------------------------------------------------------
 Center     Atomic      Atomic             Coordinates (Angstroms)
 Number     Number       Type             X           Y           Z
 ---------------------------------------------------------------------
      1          6           0        2.249206   -1.351494   -0.326773
      2          6           0        1.445231   -0.099539   -0.029201
      3          6           0        1.691765    1.046832   -0.989019
      4          6           0        1.115048    0.199508    1.391372
      5          6           0        0.010176   -0.361935    0.503744
      6          6           0       -1.115930    0.505398    0.129935
      7          8           0       -1.118868    1.722338    0.113893
      8          6           0       -2.420183   -0.198056   -0.278350
      9          8           0       -2.575490   -1.390692   -0.285930
     10          1           0        3.322303   -1.131086   -0.286445
     11          1           0        2.042853   -2.147435    0.394700
     12          1           0        2.026365   -1.735015   -1.328299
     13          1           0        1.512151    0.737714   -2.024917
     14          1           0        1.054408    1.904576   -0.770642
     15          1           0        2.737404    1.367432   -0.917357
     16          1           0        1.490491   -0.452985    2.172541
     17          1           0        0.989767    1.239771    1.673927
     18          1           0       -0.258464   -1.405464    0.614246
     19          1           0       -3.214288    0.525037   -0.561706
 ---------------------------------------------------------------------

 SCF Done:  E(RB3LYP) =  -423.202399701     A.U. after    1 cycles

 The electronic state is 1-A.
 Alpha  occ. eigenvalues --  -19.16756 -19.14882 -10.28445 -10.27898 -10.22249
 Alpha  occ. eigenvalues --  -10.20403 -10.20053 -10.18830 -10.18007  -1.07320
 Alpha  occ. eigenvalues --   -1.05202  -0.88337  -0.74548  -0.70215  -0.69917
 Alpha  occ. eigenvalues --   -0.63193  -0.56877  -0.52278  -0.50946  -0.47344
 Alpha  occ. eigenvalues --   -0.46280  -0.44998  -0.44358  -0.43379  -0.41139
 Alpha  occ. eigenvalues --   -0.40130  -0.39209  -0.38131  -0.37214  -0.35404
 Alpha  occ. eigenvalues --   -0.31216  -0.30556  -0.28550  -0.24584
 Alpha virt. eigenvalues --   -0.08991   0.02933   0.08402   0.11101   0.12525
 Alpha virt. eigenvalues --    0.13338   0.13861   0.14618   0.15880   0.17267
 Alpha virt. eigenvalues --    0.18152   0.18860   0.19416   0.20666   0.21599

 Mulliken charges:
               1
     1  C   -0.444133
     2  C    0.335048
     3  C   -0.467654
     4  C   -0.323779
     5  C   -0.168475
     6  C    0.283007
     7  O   -0.317244
     8  C    0.095360
     9  O   -0.222969
    10  H    0.123161
    11  H    0.119259
    12  H    0.125222
    13  H    0.116121
    14  H    0.154609
    15  H    0.118514
    16  H    0.119440
    17  H    0.135988
    18  H    0.113204
    19  H    0.105321
 Sum of Mulliken charges =   0.00000

 Dipole moment (field-independent basis, Debye):
    X=              1.8398    Y=             -0.4551    Z=              0.1878  Tot=              1.9046
 Quadrupole moment (field-independent basis, Debye-Ang):
   XX=            -53.1399   YY=            -59.7045   ZZ=            -51.4263
   XY=             -2.8381   XZ=              0.1659   YZ=             -1.0491

  Exact polarizability:  94.567  -2.593  78.741   2.325  -0.864  64.586
 Approx polarizability: 123.809  -2.195 134.732   3.846  -0.024  95.776

                      1                      2                      3
                      A                      A                      A
 Frequencies --     54.5980               125.7921               135.4511
 Red. masses --      4.8909                 3.3782                 3.1399
 Frc consts  --      0.0086                 0.0315                 0.0339
 IR Inten    --      0.1942                 1.2074                14.1527

                      4                      5                      6
                      A                      A                      A
 Frequencies --    176.1365               210.8494               245.3619
 Red. masses --      3.7903                 1.1904                 3.0251
 Frc consts  --      0.0693                 0.0312                 0.1073
 IR Inten    --      4.0012                 1.4244                12.1241

                      7                      8                      9
                      A                      A                      A
 Frequencies --    250.1697               313.5034               362.1950
 Red. masses --      1.1550                 3.5672                 2.2800
 Frc consts  --      0.0426                 0.2066                 0.1762
 IR Inten    --      0.7640                 2.5996                 1.8877

                     10                     11                     12
                      A                      A                      A
 Frequencies --    391.7375               415.2864               522.0697
 Red. masses --      2.2575                 2.4922                 6.5088
 Frc consts  --      0.2041                 0.2532                 1.0452
 IR Inten    --      4.4223                 0.7525                 7.8274

                     13                     14                     15
                      A                      A                      A
 Frequencies --    597.4699               641.1184               689.2843
 Red. masses --      3.2223                 5.0071                 3.7423
 Frc consts  --      0.6777                 1.2126                 1.0476
 IR Inten    --      1.8106                44.2300                 3.6294

                     16                     17                     18
                      A                      A                      A
 Frequencies --    776.1761               823.2894               925.8777
 Red. masses --      2.3408                 3.2426                 1.3062
 Frc consts  --      0.8309                 1.2950                 0.6597
 IR Inten    --     13.0820                55.8677                 0.8184

                     19                     20                     21
                      A                      A                      A
 Frequencies --    954.0601               971.0252               978.8300
 Red. masses --      2.8413                 1.7164                 1.2415
 Frc consts  --      1.5238                 0.9535                 0.7008
 IR Inten    --     34.9626                 2.8331                 2.1892

                     22                     23                     24
                      A                      A                      A
 Frequencies --   1033.5418              1059.9744              1076.0689
 Red. masses --      1.9812                 1.3970                 1.4541
 Frc consts  --      1.2469                 0.9248                 0.9920
 IR Inten    --      1.1576                 0.8802                 9.8435

                     25                     26                     27
                      A                      A                      A
 Frequencies --   1091.1847              1124.6119              1145.9114
 Red. masses --      1.7440                 1.3346                 1.6592
 Frc consts  --      1.2234                 0.9945                 1.2837
 IR Inten    --      3.7165                27.1586                18.7275

                     28                     29                     30
                      A                      A                      A
 Frequencies --   1173.4465              1293.8419              1334.5941
 Red. masses --      2.2482                 2.7592                 2.2670
 Frc consts  --      1.8239                 2.7214                 2.3790
 IR Inten    --     15.7614                 6.3897                 2.4050

                     31                     32                     33
                      A                      A                      A
 Frequencies --   1364.2423              1411.4294              1421.6068
 Red. masses --      1.2154                 1.2862                 1.3935
 Frc consts  --      1.3328                 1.5097                 1.6593
 IR Inten    --      3.1748                 8.6119                39.1037

                     34                     35                     36
                      A                      A                      A
 Frequencies --   1429.8997              1476.2671              1484.9357
 Red. masses --      1.6542                 1.2319                 1.0483
 Frc consts  --      1.9927                 1.5818                 1.3619
 IR Inten    --     45.8351                23.0016                 1.0143

                     37                     38                     39
                      A                      A                      A
 Frequencies --   1490.0507              1509.8124              1511.3777
 Red. masses --      1.0571                 1.0483                 1.1735
 Frc consts  --      1.3829                 1.4079                 1.5794
 IR Inten    --      5.1542                 5.0592                10.2164

                     40                     41                     42
                      A                      A                      A
 Frequencies --   1766.8199              1824.1501              2922.4367
 Red. masses --     10.6888                10.9253                 1.0876
 Frc consts  --     19.6591                21.4192                 5.4729
 IR Inten    --    111.2622                93.5482               110.4145

                     43                     44                     45
                      A                      A                      A
 Frequencies --   3027.0136              3032.6397              3086.1869
 Red. masses --      1.0361                 1.0385                 1.1008
 Frc consts  --      5.5937                 5.6273                 6.1771
 IR Inten    --     18.0141                39.3255                 8.2756

                     46                     47                     48
                      A                      A                      A
 Frequencies --   3091.2830              3107.9042              3129.3917
 Red. masses --      1.1003                 1.1014                 1.0538
 Frc consts  --      6.1947                 6.2681                 6.0804
 IR Inten    --     32.2416                21.5898                10.2301

                     49                     50                     51
                      A                      A                      A
 Frequencies --   3142.9211              3191.5970              3222.1197
 Red. masses --      1.0973                 1.0884                 1.1168
 Frc consts  --      6.3861                 6.5323                 6.8314
 IR Inten    --      4.0954                 0.9647                 3.3134

 - Thermochemistry -
 -------------------
 Temperature   298.150 Kelvin.  Pressure   1.00000 Atm.
 Atom     1 has atomic number  6 and mass  12.00000

 Molecular mass:   126.06808 amu.
 Principal axes and moments of inertia in atomic units:
                           1         2         3
     Eigenvalues --   699.578511597.508291884.80866
           X            0.99971  -0.02265  -0.00778
           Y            0.02241   0.99929  -0.03013
           Z            0.00846   0.02995   0.99952
 This molecule is an asymmetric top.
 Rotational symmetry number  1.
 Warning -- assumption of classical behavior for rotation
           may cause significant error
 Rotational temperatures (Kelvin)      0.12381     0.05422     0.04595
 Rotational constants (GHZ):           2.57976     1.12972     0.95752
 Zero-point vibrational energy     409945.5 (Joules/Mol)
                                   97.97934 (Kcal/Mol)
 Warning -- explicit consideration of  13 degrees of freedom as
           vibrations may cause significant error
 Vibrational temperatures:     78.55   180.99   194.88   253.42   303.36
          (Kelvin)            353.02   359.94   451.06   521.12   563.62
                              597.50   751.14   859.62   922.43   991.73
                             1116.74  1184.53  1332.13  1372.68  1397.09
                             1408.32  1487.03  1525.06  1548.22  1569.97
                             1618.06  1648.71  1688.33  1861.55  1920.18
                             1962.84  2030.73  2045.37  2057.30  2124.02
                             2136.49  2143.85  2172.28  2174.53  2542.06
                             2624.54  4204.73  4355.19  4363.29  4440.33
                             4447.66  4471.58  4502.49  4521.96  4591.99
                             4635.91

 Zero-point correction=                           0.156140 (Hartree/Particle)
 Thermal correction to Energy=                    0.165851
 Thermal correction to Enthalpy=                  0.166796
 Thermal correction to Gibbs Free Energy=         0.121385
 Sum of electronic and zero-point Energies=           -423.046260
 Sum of electronic and thermal Energies=              -423.036548
 Sum of electronic and thermal Enthalpies=            -423.035604
 Sum of electronic and thermal Free Energies=         -423.081015

                     E (Thermal)             CV                S
                      KCal/Mol        Cal/Mol-Kelvin    Cal/Mol-Kelvin
 Total                  104.073             35.285             95.575
 Electronic               0.000              0.000              0.000
 Translational            0.889              2.981             40.409
 Rotational               0.889              2.981             29.134
 Vibrational            102.296             29.324             26.033
 Vibration     1          0.596              1.976              4.643
 Vibration     2          0.611              1.927              3.009
 Vibration     3          0.613              1.918              2.867
 Vibration     4          0.628              1.872              2.369
 Vibration     5          0.643              1.824              2.036
 Vibration     6          0.660              1.770              1.764
 Vibration     7          0.663              1.762              1.729
 Vibration     8          0.701              1.648              1.344
 Vibration     9          0.736              1.550              1.113
 Vibration    10          0.759              1.488              0.994
 Vibration    11          0.779              1.437              0.908
 Vibration    12          0.877              1.201              0.605
 Vibration    13          0.955              1.037              0.454

 Optimization completed.
    -- Stationary point found.
 Normal termination of Gaussian 09 at Mon Jan 27 18:32:22 2020.
 Normal termination of Gaussian 09 at Mon Jan 27 16:12:22 2020.
