 Gaussian 09, Revision D.01,
 Gaussian 09:  ES64L-G09RevD.01 24-Apr-2013

 -----------------------------
 # b3lyp 6-31G(2df,p) opt Freq
 -----------------------------

 -----
 titel
 -----
 Symbolic Z-matrix:
 Charge =  0 Multiplicity = 1

 SCF Done:  E(RB3LYP) =  -423.145512949     A.U. after   12 cycles
 Optimization completed.
    -- Stationary point found.
 Normal termination of Gaussian 09 at Mon Jan 27 18:52:06 2020.

 ----------------------------------------------------------------------
 #N Geom=AllCheck Guess=TCheck SCRF=Check GenChk RB3LYP/6-31G(2df,p) Fr
 eq
 ----------------------------------------------------------------------

 Structure from the checkpoint file:  "/scratch/puck/g09_a88800a3-a30e-4d4d-88d3-920cf16e5c3e/Gau-49780.chk"
 -----
 titel
 -----
 Charge =  0 Multiplicity = 1

                         Standard orientation:
 ---------------------------------------------------------------------
 Center     Atomic      Atomic             Coordinates (Angstroms)
 Number     Number       Type             X           Y           Z
 ---------------------------------------------------------------------
      1          6           0       -2.469510   -0.143889    0.000247
      2          6           0       -0.989082    0.113932    0.004907
      3          8           0       -0.739389    1.524306    0.006251
      4          6           0        0.683428    1.603876   -0.012009
      5          6           0        1.044753    0.120340   -0.008007
      6          8           0        2.382338   -0.249397   -0.091068
      7          6           0        0.029477   -0.597182   -0.947221
      8          6           0        0.053104   -1.816819    0.005982
      9          6           0        0.023636   -0.596594    0.956352
     10          1           0       -2.932624    0.304914    0.884257
     11          1           0       -2.927487    0.307761   -0.884980
     12          1           0       -2.691304   -1.213520   -0.001893
     13          1           0        1.038125    2.121318   -0.912239
     14          1           0        1.053524    2.140748    0.873048
     15          1           0        2.836342    0.062500    0.699229
     16          1           0        0.037997   -0.582204   -2.038098
     17          1           0       -0.819079   -2.474113    0.004311
     18          1           0        0.980676   -2.389730    0.005198
     19          1           0        0.025403   -0.578928    2.048188
 ---------------------------------------------------------------------

 SCF Done:  E(RB3LYP) =  -423.145512949     A.U. after    1 cycles

 The electronic state is 1-A.
 Alpha  occ. eigenvalues --  -19.15185 -19.13320 -10.24403 -10.24015 -10.22160
 Alpha  occ. eigenvalues --  -10.19228 -10.19155 -10.18448 -10.17674  -1.05122
 Alpha  occ. eigenvalues --   -1.02874  -0.89023  -0.75400  -0.68981  -0.64852
 Alpha  occ. eigenvalues --   -0.63729  -0.59017  -0.52764  -0.50392  -0.49615
 Alpha  occ. eigenvalues --   -0.46355  -0.45594  -0.43021  -0.41048  -0.39551
 Alpha  occ. eigenvalues --   -0.37707  -0.36178  -0.34284  -0.33574  -0.32098
 Alpha  occ. eigenvalues --   -0.31585  -0.29490  -0.26462  -0.23664
 Alpha virt. eigenvalues --    0.06527   0.10555   0.11505   0.12974   0.13701
 Alpha virt. eigenvalues --    0.14167   0.14536   0.15506   0.16370   0.16475
 Alpha virt. eigenvalues --    0.18698   0.19237   0.19576   0.21497   0.23000

 Mulliken charges:
               1
     1  C   -0.488382
     2  C    0.488030
     3  O   -0.318489
     4  C   -0.157678
     5  C    0.380890
     6  O   -0.482292
     7  C   -0.157748
     8  C   -0.271673
     9  C   -0.195465
    10  H    0.128784
    11  H    0.129732
    12  H    0.124311
    13  H    0.105167
    14  H    0.088637
    15  H    0.285885
    16  H    0.072582
    17  H    0.091621
    18  H    0.111136
    19  H    0.064950
 Sum of Mulliken charges =   0.00000

 Dipole moment (field-independent basis, Debye):
    X=              0.5211    Y=             -0.3805    Z=              1.0880  Tot=              1.2650
 Quadrupole moment (field-independent basis, Debye-Ang):
   XX=            -51.5536   YY=            -55.4054   ZZ=            -51.2601
   XY=              4.6073   XZ=              3.9018   YZ=              0.1004

  Exact polarizability:  81.227   3.736  76.383   1.343   0.339  66.588
 Approx polarizability: 112.369   2.429 110.416   1.115   0.910 106.061

                      1                      2                      3
                      A                      A                      A
 Frequencies --    189.8713               212.4008               270.1731
 Red. masses --      1.0216                 2.7005                 1.8364
 Frc consts  --      0.0217                 0.0718                 0.0790
 IR Inten    --      0.1499                 9.2307                13.3888

                      4                      5                      6
                      A                      A                      A
 Frequencies --    274.6018               302.0984               342.4127
 Red. masses --      1.5887                 2.4379                 3.1887
 Frc consts  --      0.0706                 0.1311                 0.2203
 IR Inten    --     41.0828                22.3677                14.9597

                      7                      8                      9
                      A                      A                      A
 Frequencies --    421.7228               440.4983               479.0631
 Red. masses --      2.8233                 2.7618                 2.8846
 Frc consts  --      0.2958                 0.3157                 0.3901
 IR Inten    --      5.5141                 1.6294                 6.4808

                     10                     11                     12
                      A                      A                      A
 Frequencies --    591.0924               681.7047               691.7015
 Red. masses --      5.3479                 4.1764                 3.6041
 Frc consts  --      1.1009                 1.1435                 1.0160
 IR Inten    --      3.9330                 0.3238                 1.6720

                     13                     14                     15
                      A                      A                      A
 Frequencies --    719.9112               734.3016               846.0756
 Red. masses --      3.7602                 3.2742                 2.4407
 Frc consts  --      1.1482                 1.0402                 1.0294
 IR Inten    --      0.5376                 0.3904                 1.7109

                     16                     17                     18
                      A                      A                      A
 Frequencies --    884.6792               892.7367               922.2633
 Red. masses --      2.1211                 2.0232                 2.0998
 Frc consts  --      0.9781                 0.9500                 1.0523
 IR Inten    --     34.2183                 3.6442                 5.3755

                     19                     20                     21
                      A                      A                      A
 Frequencies --   1004.1173              1014.9123              1046.1670
 Red. masses --      1.1032                 1.4797                 4.6950
 Frc consts  --      0.6553                 0.8980                 3.0275
 IR Inten    --      0.6885                 5.8978                68.4981

                     22                     23                     24
                      A                      A                      A
 Frequencies --   1059.3342              1074.8107              1108.4655
 Red. masses --      2.2740                 2.3531                 1.5591
 Frc consts  --      1.5035                 1.6016                 1.1286
 IR Inten    --      8.6987                 6.4701                 6.4739

                     25                     26                     27
                      A                      A                      A
 Frequencies --   1119.9527              1138.1516              1153.9046
 Red. masses --      2.0576                 1.4952                 2.1100
 Frc consts  --      1.5205                 1.1412                 1.6553
 IR Inten    --     65.2088                 6.5446                16.1751

                     28                     29                     30
                      A                      A                      A
 Frequencies --   1159.7251              1179.4252              1199.8766
 Red. masses --      1.6970                 1.5153                 1.7062
 Frc consts  --      1.3448                 1.2419                 1.4473
 IR Inten    --      2.8526                18.7935                 9.4637

                     31                     32                     33
                      A                      A                      A
 Frequencies --   1227.5925              1265.7585              1272.8260
 Red. masses --      1.6572                 2.1918                 2.9900
 Frc consts  --      1.4714                 2.0690                 2.8541
 IR Inten    --     10.9162                19.8216               164.4032

                     34                     35                     36
                      A                      A                      A
 Frequencies --   1331.0887              1349.8160              1394.6350
 Red. masses --      2.0472                 1.8515                 1.6897
 Frc consts  --      2.1371                 1.9875                 1.9363
 IR Inten    --     17.6510                 8.2894                 9.5123

                     37                     38                     39
                      A                      A                      A
 Frequencies --   1423.8019              1477.9269              1495.5901
 Red. masses --      1.7924                 1.0471                 1.0741
 Frc consts  --      2.1408                 1.3475                 1.4156
 IR Inten    --      5.6499                 4.0547                 1.2051

                     40                     41                     42
                      A                      A                      A
 Frequencies --   1514.4108              1521.8835              3000.6460
 Red. masses --      1.1143                 1.1026                 1.0598
 Frc consts  --      1.5058                 1.5047                 5.6220
 IR Inten    --      2.0275                 1.9936                75.8203

                     43                     44                     45
                      A                      A                      A
 Frequencies --   3045.5472              3046.4905              3071.0632
 Red. masses --      1.0362                 1.1042                 1.0568
 Frc consts  --      5.6628                 6.0381                 5.8723
 IR Inten    --     19.3031                34.8484                41.9069

                     46                     47                     48
                      A                      A                      A
 Frequencies --   3092.9105              3107.0817              3110.1728
 Red. masses --      1.0898                 1.0920                 1.1012
 Frc consts  --      6.1421                 6.2110                 6.2759
 IR Inten    --     70.2232                23.3892                13.1707

                     49                     50                     51
                      A                      A                      A
 Frequencies --   3127.9447              3139.0266              3805.1088
 Red. masses --      1.1004                 1.1081                 1.0659
 Frc consts  --      6.3436                 6.4329                 9.0930
 IR Inten    --     19.4974                21.1831                26.6958

 - Thermochemistry -
 -------------------
 Temperature   298.150 Kelvin.  Pressure   1.00000 Atm.
 Atom     1 has atomic number  6 and mass  12.00000

 Molecular mass:   126.06808 amu.
 Principal axes and moments of inertia in atomic units:
                           1         2         3
     Eigenvalues --   624.12938 978.385161360.04881
           X            0.99827   0.05815   0.00924
           Y           -0.05815   0.99831  -0.00003
           Z           -0.00922  -0.00050   0.99996
 This molecule is an asymmetric top.
 Rotational symmetry number  1.
 Warning -- assumption of classical behavior for rotation
           may cause significant error
 Rotational temperatures (Kelvin)      0.13878     0.08853     0.06368
 Rotational constants (GHZ):           2.89161     1.84461     1.32697
 Zero-point vibrational energy     418558.2 (Joules/Mol)
                                  100.03782 (Kcal/Mol)
 Warning -- explicit consideration of  10 degrees of freedom as
           vibrations may cause significant error
 Vibrational temperatures:    273.18   305.60   388.72   395.09   434.65
          (Kelvin)            492.65   606.76   633.78   689.26   850.45
                              980.82   995.20  1035.79  1056.49  1217.31
                             1272.85  1284.45  1326.93  1444.70  1460.23
                             1505.20  1524.14  1546.41  1594.83  1611.36
                             1637.54  1660.21  1668.58  1696.93  1726.35
                             1766.23  1821.14  1831.31  1915.14  1942.08
                             2006.57  2048.53  2126.40  2151.82  2178.90
                             2189.65  4317.25  4381.86  4383.21  4418.57
                             4450.00  4470.39  4474.84  4500.41  4516.35
                             5474.70

 Zero-point correction=                           0.159420 (Hartree/Particle)
 Thermal correction to Energy=                    0.167101
 Thermal correction to Enthalpy=                  0.168045
 Thermal correction to Gibbs Free Energy=         0.127992
 Sum of electronic and zero-point Energies=           -422.986093
 Sum of electronic and thermal Energies=              -422.978412
 Sum of electronic and thermal Enthalpies=            -422.977468
 Sum of electronic and thermal Free Energies=         -423.017521

                     E (Thermal)             CV                S
                      KCal/Mol        Cal/Mol-Kelvin    Cal/Mol-Kelvin
 Total                  104.857             31.483             84.299
 Electronic               0.000              0.000              0.000
 Translational            0.889              2.981             40.409
 Rotational               0.889              2.981             28.209
 Vibrational            103.080             25.521             15.681
 Vibration     1          0.633              1.854              2.229
 Vibration     2          0.643              1.822              2.023
 Vibration     3          0.674              1.728              1.595
 Vibration     4          0.677              1.720              1.567
 Vibration     5          0.694              1.670              1.405
 Vibration     6          0.722              1.591              1.201
 Vibration     7          0.784              1.423              0.886
 Vibration     8          0.800              1.382              0.825
 Vibration     9          0.835              1.296              0.713
 Vibration    10          0.949              1.051              0.465

 Normal termination of Gaussian 09 at Mon Jan 27 19:34:27 2020.
