 Gaussian 09, Revision D.01,
 Gaussian 09:  ES64L-G09RevD.01 24-Apr-2013

 -----------------------------
 # b3lyp 6-31G(2df,p) opt Freq
 -----------------------------

 -----
 titel
 -----
 Symbolic Z-matrix:
 Charge =  0 Multiplicity = 1

 SCF Done:  E(RB3LYP) =  -423.169890430     A.U. after   13 cycles
 Optimization completed.
    -- Stationary point found.
 Normal termination of Gaussian 09 at Mon Jan 27 17:33:43 2020.

 ----------------------------------------------------------------------
 #N Geom=AllCheck Guess=TCheck SCRF=Check GenChk RB3LYP/6-31G(2df,p) Fr
 eq
 ----------------------------------------------------------------------

 Structure from the checkpoint file:  "/scratch/puck/g09_481b4bb9-4e0c-4d91-9d30-3d359df5fc5f/Gau-50887.chk"
 -----
 titel
 -----
 Charge =  0 Multiplicity = 1

                         Standard orientation:
 ---------------------------------------------------------------------
 Center     Atomic      Atomic             Coordinates (Angstroms)
 Number     Number       Type             X           Y           Z
 ---------------------------------------------------------------------
      1          8           0        2.380635    0.165112   -0.683683
      2          6           0        1.143039    0.132874   -0.023477
      3          6           0        1.160113   -0.682543    1.230576
      4          6           0        0.407996   -1.185938    0.000464
      5          6           0       -1.082564   -1.160466    0.002369
      6          8           0       -1.726735   -0.443081   -1.073045
      7          6           0       -1.797876    0.099053    0.248072
      8          6           0       -1.035609    1.378874    0.520367
      9          6           0        0.341163    1.416249   -0.158834
     10          1           0        2.204982    0.238713   -1.628938
     11          1           0        2.097535   -1.170687    1.469353
     12          1           0        0.581040   -0.358210    2.088075
     13          1           0        0.875501   -2.002596   -0.541510
     14          1           0       -1.582425   -2.095141    0.257741
     15          1           0       -2.791180    0.046416    0.697036
     16          1           0       -1.629313    2.237802    0.186555
     17          1           0       -0.934092    1.484903    1.608174
     18          1           0        0.197457    1.601224   -1.230866
     19          1           0        0.931731    2.252717    0.230974
 ---------------------------------------------------------------------

 SCF Done:  E(RB3LYP) =  -423.169890430     A.U. after    1 cycles

 The electronic state is 1-A.
 Alpha  occ. eigenvalues --  -19.14324 -19.14094 -10.24023 -10.23477 -10.23407
 Alpha  occ. eigenvalues --  -10.19163 -10.18950 -10.18661 -10.18634  -1.06322
 Alpha  occ. eigenvalues --   -1.02805  -0.85658  -0.77908  -0.69575  -0.66771
 Alpha  occ. eigenvalues --   -0.60592  -0.58324  -0.54630  -0.52359  -0.49011
 Alpha  occ. eigenvalues --   -0.47943  -0.44602  -0.43538  -0.41243  -0.39805
 Alpha  occ. eigenvalues --   -0.38396  -0.37640  -0.35540  -0.35267  -0.32299
 Alpha  occ. eigenvalues --   -0.29015  -0.28131  -0.25982  -0.25094
 Alpha virt. eigenvalues --    0.08058   0.08983   0.09443   0.10847   0.12439
 Alpha virt. eigenvalues --    0.12881   0.13450   0.14854   0.16810   0.17566
 Alpha virt. eigenvalues --    0.17752   0.20014   0.21163   0.21223   0.22533

 Mulliken charges:
               1
     1  O   -0.476104
     2  C    0.432614
     3  C   -0.333376
     4  C   -0.134017
     5  C    0.050213
     6  O   -0.270953
     7  C    0.058962
     8  C   -0.268276
     9  C   -0.275455
    10  H    0.279933
    11  H    0.124508
    12  H    0.112929
    13  H    0.091151
    14  H    0.089155
    15  H    0.086211
    16  H    0.110634
    17  H    0.109735
    18  H    0.105834
    19  H    0.106303
 Sum of Mulliken charges =   0.00000

 Dipole moment (field-independent basis, Debye):
    X=             -0.4361    Y=              0.2637    Z=              0.8937  Tot=              1.0288
 Quadrupole moment (field-independent basis, Debye-Ang):
   XX=            -57.8608   YY=            -50.5928   ZZ=            -51.4313
   XY=             -1.4878   XZ=             -5.0912   YZ=             -0.7238

  Exact polarizability:  78.757  -2.088  75.409  -1.289  -0.454  67.290
 Approx polarizability: 107.788  -2.485 108.633   1.106   0.330 110.032

                      1                      2                      3
                      A                      A                      A
 Frequencies --    154.9385               196.2697               293.4736
 Red. masses --      4.5076                 2.4268                 2.0182
 Frc consts  --      0.0638                 0.0551                 0.1024
 IR Inten    --      4.6488                 2.7297                10.9314

                      4                      5                      6
                      A                      A                      A
 Frequencies --    325.3139               351.5103               377.6023
 Red. masses --      1.6602                 1.8095                 4.1639
 Frc consts  --      0.1035                 0.1317                 0.3498
 IR Inten    --     50.2542                20.5935                 1.1629

                      7                      8                      9
                      A                      A                      A
 Frequencies --    394.5352               441.7122               521.1969
 Red. masses --      4.0238                 2.9226                 3.1115
 Frc consts  --      0.3690                 0.3360                 0.4980
 IR Inten    --     18.5214                 5.3241                 5.2546

                     10                     11                     12
                      A                      A                      A
 Frequencies --    586.7890               666.4179               700.1171
 Red. masses --      4.3540                 2.9730                 2.7321
 Frc consts  --      0.8833                 0.7779                 0.7890
 IR Inten    --     11.6565                 1.1938                 1.6400

                     13                     14                     15
                      A                      A                      A
 Frequencies --    763.9019               789.8246               889.4352
 Red. masses --      2.2573                 2.9262                 2.1824
 Frc consts  --      0.7761                 1.0755                 1.0172
 IR Inten    --      0.9763                14.7790                12.5190

                     16                     17                     18
                      A                      A                      A
 Frequencies --    896.3789               912.2160               915.1323
 Red. masses --      2.2051                 1.9732                 3.1165
 Frc consts  --      1.0439                 0.9674                 1.5377
 IR Inten    --     12.1096                15.0309                11.2950

                     19                     20                     21
                      A                      A                      A
 Frequencies --    953.8364               998.1823              1004.6851
 Red. masses --      2.2582                 1.9673                 2.1317
 Frc consts  --      1.2105                 1.1549                 1.2678
 IR Inten    --     26.6506                 0.5926                13.8216

                     22                     23                     24
                      A                      A                      A
 Frequencies --   1058.8366              1065.5957              1082.0304
 Red. masses --      1.4373                 1.3263                 1.5725
 Frc consts  --      0.9494                 0.8873                 1.0847
 IR Inten    --      0.5243                 5.8948                 3.0768

                     25                     26                     27
                      A                      A                      A
 Frequencies --   1100.4678              1119.0153              1157.6979
 Red. masses --      1.9760                 1.5419                 1.3726
 Frc consts  --      1.4099                 1.1376                 1.0839
 IR Inten    --      1.3283                 2.9326                 0.8740

                     28                     29                     30
                      A                      A                      A
 Frequencies --   1214.0982              1217.4593              1265.4551
 Red. masses --      1.9071                 1.2586                 1.6327
 Frc consts  --      1.6563                 1.0991                 1.5405
 IR Inten    --     56.8108                36.0237                17.4712

                     31                     32                     33
                      A                      A                      A
 Frequencies --   1273.5651              1291.9339              1341.2520
 Red. masses --      1.5944                 1.2632                 1.5914
 Frc consts  --      1.5237                 1.2422                 1.6868
 IR Inten    --     20.2466                 3.3688                45.0401

                     34                     35                     36
                      A                      A                      A
 Frequencies --   1365.0700              1381.2326              1391.8576
 Red. masses --      1.6147                 1.4875                 1.6702
 Frc consts  --      1.7727                 1.6720                 1.9063
 IR Inten    --      1.7227                14.1228                 3.3990

                     37                     38                     39
                      A                      A                      A
 Frequencies --   1425.5256              1473.7935              1479.7861
 Red. masses --      1.4507                 1.8944                 1.3384
 Frc consts  --      1.7369                 2.4244                 1.7268
 IR Inten    --      2.9151                16.1150                 9.1213

                     40                     41                     42
                      A                      A                      A
 Frequencies --   1491.5756              1507.4904              3026.1987
 Red. masses --      1.3198                 1.5086                 1.0598
 Frc consts  --      1.7300                 2.0200                 5.7181
 IR Inten    --      5.0845                 7.7373                26.7265

                     43                     44                     45
                      A                      A                      A
 Frequencies --   3027.1170              3061.1682              3072.5032
 Red. masses --      1.0649                 1.0965                 1.1027
 Frc consts  --      5.7493                 6.0538                 6.1335
 IR Inten    --     17.0418                29.8195                30.0421

                     46                     47                     48
                      A                      A                      A
 Frequencies --   3091.4202              3107.2759              3139.9020
 Red. masses --      1.0855                 1.0900                 1.0545
 Frc consts  --      6.1124                 6.2005                 6.1252
 IR Inten    --     27.5723                57.3468                 9.7486

                     49                     50                     51
                      A                      A                      A
 Frequencies --   3154.8029              3230.9778              3788.4106
 Red. masses --      1.0892                 1.1167                 1.0658
 Frc consts  --      6.3868                 6.8684                 9.0125
 IR Inten    --     11.7171                 5.4098                15.0559

 - Thermochemistry -
 -------------------
 Temperature   298.150 Kelvin.  Pressure   1.00000 Atm.
 Atom     1 has atomic number  8 and mass  15.99491

 Molecular mass:   126.06808 amu.
 Principal axes and moments of inertia in atomic units:
                           1         2         3
     Eigenvalues --   631.501471168.600211353.60401
           X            0.99957  -0.02229  -0.01918
           Y            0.02200   0.99964  -0.01539
           Z            0.01951   0.01496   0.99970
 This molecule is an asymmetric top.
 Rotational symmetry number  1.
 Warning -- assumption of classical behavior for rotation
           may cause significant error
 Rotational temperatures (Kelvin)      0.13716     0.07412     0.06399
 Rotational constants (GHZ):           2.85786     1.54436     1.33329
 Zero-point vibrational energy     421904.9 (Joules/Mol)
                                  100.83768 (Kcal/Mol)
 Warning -- explicit consideration of  10 degrees of freedom as
           vibrations may cause significant error
 Vibrational temperatures:    222.92   282.39   422.24   468.05   505.74
          (Kelvin)            543.28   567.65   635.52   749.89   844.26
                              958.83  1007.31  1099.08  1136.38  1279.70
                             1289.69  1312.47  1316.67  1372.36  1436.16
                             1445.52  1523.43  1533.15  1556.80  1583.33
                             1610.01  1665.67  1746.81  1751.65  1820.71
                             1832.37  1858.80  1929.76  1964.03  1987.28
                             2002.57  2051.01  2120.46  2129.08  2146.04
                             2168.94  4354.02  4355.34  4404.33  4420.64
                             4447.86  4470.67  4517.61  4539.05  4648.65
                             5450.67

 Zero-point correction=                           0.160695 (Hartree/Particle)
 Thermal correction to Energy=                    0.168223
 Thermal correction to Enthalpy=                  0.169168
 Thermal correction to Gibbs Free Energy=         0.129225
 Sum of electronic and zero-point Energies=           -423.009195
 Sum of electronic and thermal Energies=              -423.001667
 Sum of electronic and thermal Enthalpies=            -423.000723
 Sum of electronic and thermal Free Energies=         -423.040665

                     E (Thermal)             CV                S
                      KCal/Mol        Cal/Mol-Kelvin    Cal/Mol-Kelvin
 Total                  105.562             30.948             84.066
 Electronic               0.000              0.000              0.000
 Translational            0.889              2.981             40.409
 Rotational               0.889              2.981             28.393
 Vibrational            103.784             24.987             15.264
 Vibration     1          0.620              1.897              2.611
 Vibration     2          0.636              1.845              2.168
 Vibration     3          0.688              1.686              1.454
 Vibration     4          0.709              1.625              1.283
 Vibration     5          0.728              1.572              1.159
 Vibration     6          0.748              1.518              1.049
 Vibration     7          0.762              1.482              0.983
 Vibration     8          0.801              1.379              0.821
 Vibration     9          0.876              1.203              0.607
 Vibration    10          0.944              1.060              0.473

 Normal termination of Gaussian 09 at Mon Jan 27 18:18:48 2020.
