 Gaussian 09, Revision D.01,
 Gaussian 09:  ES64L-G09RevD.01 24-Apr-2013

 -----------------------------
 # b3lyp 6-31G(2df,p) opt Freq
 -----------------------------

 -----
 titel
 -----
 Symbolic Z-matrix:
 Charge =  0 Multiplicity = 1

 SCF Done:  E(RB3LYP) =  -423.235507252     A.U. after   14 cycles
 Optimization completed.
    -- Stationary point found.
 Normal termination of Gaussian 09 at Tue Jan 28 08:13:28 2020.

 ----------------------------------------------------------------------
 #N Geom=AllCheck Guess=TCheck SCRF=Check GenChk RB3LYP/6-31G(2df,p) Fr
 eq
 ----------------------------------------------------------------------

 Structure from the checkpoint file:  "/scratch/puck/g09_e0023ed7-78c4-405c-a494-9c284212933f/Gau-14157.chk"
 -----
 titel
 -----
 Charge =  0 Multiplicity = 1

                         Standard orientation:
 ---------------------------------------------------------------------
 Center     Atomic      Atomic             Coordinates (Angstroms)
 Number     Number       Type             X           Y           Z
 ---------------------------------------------------------------------
      1          6           0       -2.619948   -0.210469   -0.127336
      2          6           0       -1.165833    0.168534   -0.402237
      3          6           0       -0.759370    1.537358    0.191004
      4          6           0        0.692540    1.904071   -0.135716
      5          6           0        1.677780    0.850364    0.403863
      6          6           0        1.311772   -0.549713   -0.055858
      7          8           0        2.098817   -1.354143   -0.487185
      8          6           0       -0.193975   -0.908709    0.068795
      9          8           0       -0.528853   -1.978008    0.514796
     10          1           0       -2.857676   -1.186520   -0.555682
     11          1           0       -2.807802   -0.272209    0.948946
     12          1           0       -3.298147    0.534696   -0.553376
     13          1           0       -1.007636    0.237516   -1.492175
     14          1           0       -1.439244    2.305262   -0.193152
     15          1           0       -0.900792    1.513299    1.280217
     16          1           0        0.812838    1.992009   -1.223037
     17          1           0        0.940172    2.883541    0.285533
     18          1           0        2.714497    1.053981    0.123375
     19          1           0        1.626279    0.847015    1.503376
 ---------------------------------------------------------------------

 SCF Done:  E(RB3LYP) =  -423.235507252     A.U. after    1 cycles

 The electronic state is 1-A.
 Alpha  occ. eigenvalues --  -19.14687 -19.14570 -10.27757 -10.27541 -10.21025
 Alpha  occ. eigenvalues --  -10.20742 -10.20558 -10.20488 -10.18357  -1.06539
 Alpha  occ. eigenvalues --   -1.04185  -0.84566  -0.78170  -0.71974  -0.68525
 Alpha  occ. eigenvalues --   -0.61256  -0.59362  -0.52371  -0.48996  -0.47582
 Alpha  occ. eigenvalues --   -0.45934  -0.45060  -0.44273  -0.42453  -0.41325
 Alpha  occ. eigenvalues --   -0.39276  -0.39162  -0.37388  -0.36914  -0.35094
 Alpha  occ. eigenvalues --   -0.34571  -0.33924  -0.29065  -0.23057
 Alpha virt. eigenvalues --   -0.06429   0.00949   0.08491   0.09877   0.10573
 Alpha virt. eigenvalues --    0.13329   0.14398   0.14705   0.15569   0.15966
 Alpha virt. eigenvalues --    0.16963   0.17739   0.19289   0.20577   0.21764

 Mulliken charges:
               1
     1  C   -0.403564
     2  C   -0.093417
     3  C   -0.203099
     4  C   -0.224943
     5  C   -0.305359
     6  C    0.318182
     7  O   -0.281499
     8  C    0.302591
     9  O   -0.289144
    10  H    0.137028
    11  H    0.127639
    12  H    0.112207
    13  H    0.105720
    14  H    0.109080
    15  H    0.107603
    16  H    0.112154
    17  H    0.111056
    18  H    0.127123
    19  H    0.130642
 Sum of Mulliken charges =   0.00000

 Dipole moment (field-independent basis, Debye):
    X=             -1.2248    Y=              4.3521    Z=             -0.0084  Tot=              4.5212
 Quadrupole moment (field-independent basis, Debye-Ang):
   XX=            -55.8815   YY=            -59.4971   ZZ=            -51.6264
   XY=              3.1565   XZ=              2.8880   YZ=              0.7865

  Exact polarizability:  85.446   0.426  81.477  -0.895  -0.003  60.877
 Approx polarizability: 112.872  -3.124 123.685  -5.593  -1.451  99.850

                      1                      2                      3
                      A                      A                      A
 Frequencies --     57.6862               101.9055               185.1164
 Red. masses --      7.2937                 2.6185                 1.1235
 Frc consts  --      0.0143                 0.0160                 0.0227
 IR Inten    --      0.2730                 1.3391                 0.4215

                      4                      5                      6
                      A                      A                      A
 Frequencies --    226.5604               273.9075               285.0835
 Red. masses --      2.7994                 3.0847                 2.1330
 Frc consts  --      0.0847                 0.1364                 0.1021
 IR Inten    --      1.9995                 5.0365                 0.6674

                      7                      8                      9
                      A                      A                      A
 Frequencies --    333.4572               347.7841               402.7560
 Red. masses --      8.2196                 3.2796                 3.1607
 Frc consts  --      0.5385                 0.2337                 0.3021
 IR Inten    --      5.1376                 0.9905                 0.9005

                     10                     11                     12
                      A                      A                      A
 Frequencies --    455.6879               555.3240               644.7300
 Red. masses --      3.3855                 2.7544                 4.1049
 Frc consts  --      0.4142                 0.5005                 1.0053
 IR Inten    --      5.6090                 6.8677                 1.1996

                     13                     14                     15
                      A                      A                      A
 Frequencies --    674.3897               743.9834               841.2455
 Red. masses --      2.9871                 2.8311                 2.0890
 Frc consts  --      0.8004                 0.9233                 0.8710
 IR Inten    --      4.9298                 0.2831                 0.2814

                     16                     17                     18
                      A                      A                      A
 Frequencies --    849.3581               900.3456               935.7955
 Red. masses --      1.5817                 2.9094                 2.2498
 Frc consts  --      0.6723                 1.3895                 1.1608
 IR Inten    --      5.7134                 3.6423                29.7670

                     19                     20                     21
                      A                      A                      A
 Frequencies --    964.4029              1005.0963              1054.1954
 Red. masses --      1.3788                 2.2579                 1.7316
 Frc consts  --      0.7555                 1.3439                 1.1338
 IR Inten    --      4.8895                23.3991                 1.5470

                     22                     23                     24
                      A                      A                      A
 Frequencies --   1086.8560              1095.7633              1127.4588
 Red. masses --      1.3172                 2.3249                 2.4469
 Frc consts  --      0.9167                 1.6447                 1.8326
 IR Inten    --      2.2339                 7.5350                10.4304

                     25                     26                     27
                      A                      A                      A
 Frequencies --   1140.3716              1202.6941              1236.8880
 Red. masses --      2.0957                 2.3518                 1.5025
 Frc consts  --      1.6057                 2.0043                 1.3544
 IR Inten    --     10.8351                21.1420                 4.4216

                     28                     29                     30
                      A                      A                      A
 Frequencies --   1267.1558              1314.3952              1332.8755
 Red. masses --      1.3946                 1.2937                 1.4740
 Frc consts  --      1.3193                 1.3168                 1.5429
 IR Inten    --      6.6448                 0.0919                 0.7098

                     31                     32                     33
                      A                      A                      A
 Frequencies --   1343.1865              1371.9033              1380.3721
 Red. masses --      1.3609                 1.4203                 1.7216
 Frc consts  --      1.4466                 1.5750                 1.9327
 IR Inten    --      7.3178                 6.6456                 0.4741

                     34                     35                     36
                      A                      A                      A
 Frequencies --   1412.7829              1460.0690              1487.7706
 Red. masses --      1.2249                 1.0907                 1.0592
 Frc consts  --      1.4405                 1.3700                 1.3814
 IR Inten    --      3.1221                 8.2609                 2.4018

                     37                     38                     39
                      A                      A                      A
 Frequencies --   1491.9355              1495.9758              1499.8480
 Red. masses --      1.0498                 1.0732                 1.0870
 Frc consts  --      1.3768                 1.4151                 1.4407
 IR Inten    --     10.7916                 3.0278                 2.1948

                     40                     41                     42
                      A                      A                      A
 Frequencies --   1811.2671              1820.3994              2968.1301
 Red. masses --     12.5893                12.4281                 1.0797
 Frc consts  --     24.3342                24.2654                 5.6041
 IR Inten    --    162.3370               103.8975                10.0825

                     43                     44                     45
                      A                      A                      A
 Frequencies --   3005.5983              3019.3734              3030.6585
 Red. masses --      1.0676                 1.0657                 1.0619
 Frc consts  --      5.6822                 5.7241                 5.7466
 IR Inten    --      5.0650                18.0086                27.9337

                     46                     47                     48
                      A                      A                      A
 Frequencies --   3046.1263              3071.7686              3079.8849
 Red. masses --      1.0362                 1.0970                 1.1010
 Frc consts  --      5.6646                 6.0985                 6.1531
 IR Inten    --     21.0607                28.4969                29.1370

                     49                     50                     51
                      A                      A                      A
 Frequencies --   3100.5355              3113.9208              3131.0012
 Red. masses --      1.0945                 1.1020                 1.1007
 Frc consts  --      6.1991                 6.2959                 6.3576
 IR Inten    --     15.3135                22.4097                13.0103

 - Thermochemistry -
 -------------------
 Temperature   298.150 Kelvin.  Pressure   1.00000 Atm.
 Atom     1 has atomic number  6 and mass  12.00000

 Molecular mass:   126.06808 amu.
 Principal axes and moments of inertia in atomic units:
                           1         2         3
     Eigenvalues --   827.050781093.479531762.15586
           X            0.99719   0.07370   0.01310
           Y           -0.07378   0.99726   0.00589
           Z           -0.01263  -0.00684   0.99990
 This molecule is an asymmetric top.
 Rotational symmetry number  1.
 Warning -- assumption of classical behavior for rotation
           may cause significant error
 Rotational temperatures (Kelvin)      0.10473     0.07921     0.04915
 Rotational constants (GHZ):           2.18214     1.65046     1.02417
 Zero-point vibrational energy     417411.6 (Joules/Mol)
                                   99.76378 (Kcal/Mol)
 Warning -- explicit consideration of  11 degrees of freedom as
           vibrations may cause significant error
 Vibrational temperatures:     83.00   146.62   266.34   325.97   394.09
          (Kelvin)            410.17   479.77   500.38   579.48   655.63
                              798.99   927.62   970.30  1070.42  1210.36
                             1222.04  1295.39  1346.40  1387.56  1446.11
                             1516.75  1563.74  1576.56  1622.16  1640.74
                             1730.41  1779.60  1823.15  1891.12  1917.71
                             1932.54  1973.86  1986.05  2032.68  2100.71
                             2140.57  2146.56  2152.37  2157.94  2606.01
                             2619.15  4270.47  4324.38  4344.20  4360.44
                             4382.69  4419.58  4431.26  4460.97  4480.23
                             4504.81

 Zero-point correction=                           0.158984 (Hartree/Particle)
 Thermal correction to Energy=                    0.167779
 Thermal correction to Enthalpy=                  0.168723
 Thermal correction to Gibbs Free Energy=         0.125221
 Sum of electronic and zero-point Energies=           -423.076524
 Sum of electronic and thermal Energies=              -423.067729
 Sum of electronic and thermal Enthalpies=            -423.066784
 Sum of electronic and thermal Free Energies=         -423.110287

                     E (Thermal)             CV                S
                      KCal/Mol        Cal/Mol-Kelvin    Cal/Mol-Kelvin
 Total                  105.283             32.687             91.558
 Electronic               0.000              0.000              0.000
 Translational            0.889              2.981             40.409
 Rotational               0.889              2.981             28.857
 Vibrational            103.505             26.726             22.293
 Vibration     1          0.596              1.974              4.535
 Vibration     2          0.604              1.948              3.418
 Vibration     3          0.631              1.860              2.276
 Vibration     4          0.650              1.801              1.906
 Vibration     5          0.676              1.722              1.571
 Vibration     6          0.683              1.701              1.503
 Vibration     7          0.715              1.609              1.243
 Vibration     8          0.725              1.580              1.176
 Vibration     9          0.768              1.464              0.953
 Vibration    10          0.814              1.348              0.779
 Vibration    11          0.911              1.128              0.533

 Optimization completed.
    -- Stationary point found.
 Normal termination of Gaussian 09 at Tue Jan 28 08:56:13 2020.
