 Gaussian 09, Revision D.01,
 Gaussian 09:  ES64L-G09RevD.01 24-Apr-2013

 -----------------------------
 # b3lyp 6-31G(2df,p) opt Freq
 -----------------------------

 -----
 titel
 -----
 Symbolic Z-matrix:
 Charge =  0 Multiplicity = 1

 SCF Done:  E(RB3LYP) =  -423.128175893     A.U. after   12 cycles
 Optimization completed.
    -- Stationary point found.
 Normal termination of Gaussian 09 at Mon Jan 27 22:05:18 2020.

 ----------------------------------------------------------------------
 #N Geom=AllCheck Guess=TCheck SCRF=Check GenChk RB3LYP/6-31G(2df,p) Fr
 eq
 ----------------------------------------------------------------------

 Structure from the checkpoint file:  "/scratch/puck/g09_7f9db528-8929-45c4-8314-5ab8772e4b48/Gau-111375.chk"
 -----
 titel
 -----
 Charge =  0 Multiplicity = 1

                         Standard orientation:
 ---------------------------------------------------------------------
 Center     Atomic      Atomic             Coordinates (Angstroms)
 Number     Number       Type             X           Y           Z
 ---------------------------------------------------------------------
      1          6           0        1.247422    1.529796    0.896027
      2          6           0        0.367932    0.703896   -0.000179
      3          6           0       -0.575670    1.331834   -1.064181
      4          6           0       -1.439283    0.079895   -0.918504
      5          6           0       -0.464440   -1.115259   -0.727401
      6          6           0        0.949990   -0.547893   -0.739936
      7          8           0        1.873423   -1.296868    0.020257
      8          6           0       -0.862107   -0.246486    0.432537
      9          8           0       -1.402904   -0.616657    1.637469
     10          1           0        1.927015    2.155132    0.304609
     11          1           0        0.660832    2.195209    1.539200
     12          1           0        1.863162    0.887955    1.533571
     13          1           0       -1.086577    2.225443   -0.691814
     14          1           0       -0.132068    1.549245   -2.043046
     15          1           0       -2.442600   -0.103325   -1.282489
     16          1           0       -0.783225   -2.126693   -0.947062
     17          1           0        1.437899   -0.359266   -1.702711
     18          1           0        1.408155   -1.631054    0.796973
     19          1           0       -1.959822    0.100867    1.960787
 ---------------------------------------------------------------------

 SCF Done:  E(RB3LYP) =  -423.128175893     A.U. after    1 cycles

 The electronic state is 1-A.
 Alpha  occ. eigenvalues --  -19.16201 -19.13282 -10.23856 -10.22721 -10.19285
 Alpha  occ. eigenvalues --  -10.19173 -10.18662 -10.18430 -10.17381  -1.04611
 Alpha  occ. eigenvalues --   -1.01725  -0.91635  -0.74930  -0.70547  -0.67189
 Alpha  occ. eigenvalues --   -0.61295  -0.56811  -0.56104  -0.49179  -0.48037
 Alpha  occ. eigenvalues --   -0.46368  -0.44977  -0.42118  -0.41149  -0.39921
 Alpha  occ. eigenvalues --   -0.39383  -0.36750  -0.35194  -0.33673  -0.32733
 Alpha  occ. eigenvalues --   -0.31007  -0.25786  -0.24344  -0.23703
 Alpha virt. eigenvalues --    0.06246   0.08789   0.10705   0.12027   0.12628
 Alpha virt. eigenvalues --    0.13294   0.14871   0.15061   0.16392   0.16866
 Alpha virt. eigenvalues --    0.17337   0.19272   0.20454   0.20966   0.22509

 Mulliken charges:
               1
     1  C   -0.503542
     2  C    0.202530
     3  C   -0.277577
     4  C   -0.157492
     5  C   -0.158995
     6  C    0.124223
     7  O   -0.445841
     8  C    0.299586
     9  O   -0.453994
    10  H    0.121097
    11  H    0.107210
    12  H    0.125124
    13  H    0.091964
    14  H    0.091590
    15  H    0.089789
    16  H    0.092294
    17  H    0.075603
    18  H    0.284843
    19  H    0.291588
 Sum of Mulliken charges =   0.00000

 Dipole moment (field-independent basis, Debye):
    X=             -1.9562    Y=              1.3965    Z=              0.4006  Tot=              2.4367
 Quadrupole moment (field-independent basis, Debye-Ang):
   XX=            -54.4682   YY=            -52.9296   ZZ=            -51.7958
   XY=              0.1826   XZ=             -0.6175   YZ=              1.2663

  Exact polarizability:  76.176   0.388  75.360   0.986   0.355  72.797
 Approx polarizability: 110.066  -2.695 109.987  -1.587  -1.678 112.203

                      1                      2                      3
                      A                      A                      A
 Frequencies --    146.2772               181.5791               184.1805
 Red. masses --      4.9664                 3.0815                 1.0551
 Frc consts  --      0.0626                 0.0599                 0.0211
 IR Inten    --      0.8146                 0.1869                 0.4639

                      4                      5                      6
                      A                      A                      A
 Frequencies --    235.6105               297.2435               344.7551
 Red. masses --      3.2770                 2.0010                 1.3236
 Frc consts  --      0.1072                 0.1042                 0.0927
 IR Inten    --      1.5135                44.0896                52.4325

                      7                      8                      9
                      A                      A                      A
 Frequencies --    345.6317               414.5157               432.6166
 Red. masses --      1.1572                 2.6470                 3.1229
 Frc consts  --      0.0815                 0.2680                 0.3444
 IR Inten    --     47.5122                41.3429                 8.1271

                     10                     11                     12
                      A                      A                      A
 Frequencies --    462.5385               525.5271               612.2549
 Red. masses --      2.5573                 3.9752                 4.2056
 Frc consts  --      0.3224                 0.6468                 0.9288
 IR Inten    --     10.2717                 3.0679                14.1277

                     13                     14                     15
                      A                      A                      A
 Frequencies --    655.5413               721.0406               802.2097
 Red. masses --      3.5001                 3.5395                 3.6151
 Frc consts  --      0.8862                 1.0842                 1.3707
 IR Inten    --      4.9179                 3.9006                 2.3321

                     16                     17                     18
                      A                      A                      A
 Frequencies --    836.3189               863.4425               888.5478
 Red. masses --      2.3188                 1.8544                 2.0879
 Frc consts  --      0.9556                 0.8146                 0.9712
 IR Inten    --      9.1461                 5.0775                 3.9146

                     19                     20                     21
                      A                      A                      A
 Frequencies --    918.1017               969.8396               989.9019
 Red. masses --      2.0897                 1.7126                 1.4249
 Frc consts  --      1.0378                 0.9491                 0.8227
 IR Inten    --     14.5679                 5.3580                 4.4519

                     22                     23                     24
                      A                      A                      A
 Frequencies --   1004.6261              1013.2823              1077.4418
 Red. masses --      1.5058                 1.9355                 2.2790
 Frc consts  --      0.8954                 1.1709                 1.5588
 IR Inten    --     18.6850                 2.2509                60.1933

                     25                     26                     27
                      A                      A                      A
 Frequencies --   1105.0433              1121.3100              1125.5478
 Red. masses --      2.1952                 1.8918                 1.9889
 Frc consts  --      1.5794                 1.4015                 1.4845
 IR Inten    --     11.1493                21.1995                17.8898

                     28                     29                     30
                      A                      A                      A
 Frequencies --   1185.6529              1222.2589              1232.8834
 Red. masses --      1.9880                 2.2171                 1.4798
 Frc consts  --      1.6466                 1.9515                 1.3253
 IR Inten    --      8.6865                18.1458                12.0744

                     31                     32                     33
                      A                      A                      A
 Frequencies --   1244.1528              1272.7255              1288.9747
 Red. masses --      1.9253                 1.7432                 1.5548
 Frc consts  --      1.7559                 1.6636                 1.5220
 IR Inten    --     42.2767                14.0236                11.6667

                     34                     35                     36
                      A                      A                      A
 Frequencies --   1311.6090              1337.9660              1408.2706
 Red. masses --      1.4971                 3.0139                 1.3856
 Frc consts  --      1.5174                 3.1789                 1.6190
 IR Inten    --     84.2461                10.0682                 3.4876

                     37                     38                     39
                      A                      A                      A
 Frequencies --   1427.3784              1472.5634              1487.7946
 Red. masses --      1.3668                 2.1488                 1.1638
 Frc consts  --      1.6407                 2.7453                 1.5177
 IR Inten    --     78.3940                21.6675                16.1485

                     40                     41                     42
                      A                      A                      A
 Frequencies --   1492.0641              1503.8622              3023.5550
 Red. masses --      1.0929                 1.2357                 1.0378
 Frc consts  --      1.4336                 1.6465                 5.5898
 IR Inten    --     14.7597                11.1971                26.6229

                     43                     44                     45
                      A                      A                      A
 Frequencies --   3028.1275              3050.8019              3082.6818
 Red. masses --      1.0578                 1.0841                 1.1039
 Frc consts  --      5.7146                 5.9449                 6.1804
 IR Inten    --     45.5168                58.5004                 3.3822

                     46                     47                     48
                      A                      A                      A
 Frequencies --   3084.7352              3103.2748              3190.5273
 Red. masses --      1.1024                 1.0998                 1.0920
 Frc consts  --      6.1805                 6.2403                 6.5491
 IR Inten    --     51.9667                15.5733                 6.8406

                     49                     50                     51
                      A                      A                      A
 Frequencies --   3199.9274              3782.5983              3784.2711
 Red. masses --      1.0946                 1.0653                 1.0661
 Frc consts  --      6.6040                 8.9807                 8.9950
 IR Inten    --     20.1569                14.7052                22.1169

 - Thermochemistry -
 -------------------
 Temperature   298.150 Kelvin.  Pressure   1.00000 Atm.
 Atom     1 has atomic number  6 and mass  12.00000

 Molecular mass:   126.06808 amu.
 Principal axes and moments of inertia in atomic units:
                           1         2         3
     Eigenvalues --   867.956891047.898281127.22745
           X            0.99620   0.06061   0.06247
           Y           -0.06741   0.99129   0.11313
           Z           -0.05507  -0.11691   0.99161
 This molecule is an asymmetric top.
 Rotational symmetry number  1.
 Warning -- assumption of classical behavior for rotation
           may cause significant error
 Rotational temperatures (Kelvin)      0.09979     0.08265     0.07684
 Rotational constants (GHZ):           2.07930     1.72225     1.60104
 Zero-point vibrational energy     415663.9 (Joules/Mol)
                                   99.34606 (Kcal/Mol)
 Warning -- explicit consideration of  12 degrees of freedom as
           vibrations may cause significant error
 Vibrational temperatures:    210.46   261.25   264.99   338.99   427.67
          (Kelvin)            496.03   497.29   596.39   622.44   665.49
                              756.12   880.90   943.18  1037.42  1154.20
                             1203.27  1242.30  1278.42  1320.94  1395.38
                             1424.25  1445.43  1457.89  1550.20  1589.91
                             1613.31  1619.41  1705.89  1758.56  1773.84
                             1790.06  1831.17  1854.54  1887.11  1925.03
                             2026.18  2053.68  2118.69  2140.60  2146.74
                             2163.72  4350.22  4356.79  4389.42  4435.29
                             4438.24  4464.91  4590.45  4603.98  5442.31
                             5444.72

 Zero-point correction=                           0.158318 (Hartree/Particle)
 Thermal correction to Energy=                    0.166768
 Thermal correction to Enthalpy=                  0.167712
 Thermal correction to Gibbs Free Energy=         0.126008
 Sum of electronic and zero-point Energies=           -422.969858
 Sum of electronic and thermal Energies=              -422.961408
 Sum of electronic and thermal Enthalpies=            -422.960464
 Sum of electronic and thermal Free Energies=         -423.002168

                     E (Thermal)             CV                S
                      KCal/Mol        Cal/Mol-Kelvin    Cal/Mol-Kelvin
 Total                  104.648             33.589             87.773
 Electronic               0.000              0.000              0.000
 Translational            0.889              2.981             40.409
 Rotational               0.889              2.981             28.418
 Vibrational            102.871             27.627             18.946
 Vibration     1          0.617              1.907              2.720
 Vibration     2          0.630              1.865              2.312
 Vibration     3          0.631              1.861              2.286
 Vibration     4          0.655              1.786              1.836
 Vibration     5          0.691              1.679              1.432
 Vibration     6          0.723              1.586              1.190
 Vibration     7          0.724              1.584              1.186
 Vibration     8          0.778              1.439              0.911
 Vibration     9          0.794              1.399              0.850
 Vibration    10          0.820              1.333              0.759
 Vibration    11          0.880              1.193              0.597
 Vibration    12          0.971              1.006              0.429

 Optimization completed.
    -- Stationary point found.
 Normal termination of Gaussian 09 at Mon Jan 27 23:02:34 2020.
