 Gaussian 09, Revision D.01,
 Gaussian 09:  ES64L-G09RevD.01 24-Apr-2013

 -----------------------------
 # b3lyp 6-31G(2df,p) opt Freq
 -----------------------------

 -----
 titel
 -----
 Symbolic Z-matrix:
 Charge =  0 Multiplicity = 1

 SCF Done:  E(RB3LYP) =  -423.209994281     A.U. after   15 cycles
 Optimization completed.
    -- Stationary point found.
 Normal termination of Gaussian 09 at Tue Jan 28 08:53:27 2020.

 ----------------------------------------------------------------------
 #N Geom=AllCheck Guess=TCheck SCRF=Check GenChk RB3LYP/6-31G(2df,p) Fr
 eq
 ----------------------------------------------------------------------

 Structure from the checkpoint file:  "/scratch/puck/g09_5b09e388-b7ef-4864-9fb1-8dfc64dd8612/Gau-103711.chk"
 -----
 titel
 -----
 Charge =  0 Multiplicity = 1

                         Standard orientation:
 ---------------------------------------------------------------------
 Center     Atomic      Atomic             Coordinates (Angstroms)
 Number     Number       Type             X           Y           Z
 ---------------------------------------------------------------------
      1          6           0        2.590677   -0.907652   -0.420775
      2          8           0        1.605669    0.023807   -0.815846
      3          6           0        0.557787    0.282875    0.117802
      4          6           0        1.099073    0.832508    1.448828
      5          6           0       -0.404536   -0.916150    0.315990
      6          6           0       -1.805988   -0.375365   -0.011526
      7          8           0       -2.851257   -0.949462    0.178560
      8          6           0       -1.615833    0.972326   -0.601755
      9          6           0       -0.327724    1.318287   -0.553610
     10          1           0        2.155081   -1.864079   -0.097520
     11          1           0        3.213380   -1.090964   -1.299807
     12          1           0        3.233074   -0.528396    0.385653
     13          1           0        0.271543    1.120291    2.103331
     14          1           0        1.695830    0.083167    1.976473
     15          1           0        1.724611    1.712996    1.272865
     16          1           0       -0.170612   -1.704405   -0.406574
     17          1           0       -0.389016   -1.360191    1.313975
     18          1           0       -2.438049    1.556020   -0.995891
     19          1           0        0.108117    2.239823   -0.923948
 ---------------------------------------------------------------------

 SCF Done:  E(RB3LYP) =  -423.209994281     A.U. after    1 cycles

 The electronic state is 1-A.
 Alpha  occ. eigenvalues --  -19.14684 -19.12261 -10.26479 -10.25613 -10.23046
 Alpha  occ. eigenvalues --  -10.21094 -10.19583 -10.18883 -10.18875  -1.03967
 Alpha  occ. eigenvalues --   -1.03249  -0.85311  -0.75318  -0.71991  -0.69957
 Alpha  occ. eigenvalues --   -0.62967  -0.56187  -0.54108  -0.50375  -0.47980
 Alpha  occ. eigenvalues --   -0.46409  -0.44854  -0.43254  -0.42121  -0.41406
 Alpha  occ. eigenvalues --   -0.40217  -0.39857  -0.38034  -0.36094  -0.35287
 Alpha  occ. eigenvalues --   -0.31408  -0.28308  -0.26618  -0.23912
 Alpha virt. eigenvalues --   -0.04845   0.05221   0.08296   0.11347   0.12840
 Alpha virt. eigenvalues --    0.13349   0.13613   0.14683   0.15510   0.15976
 Alpha virt. eigenvalues --    0.16286   0.17169   0.19084   0.19905   0.21735

 Mulliken charges:
               1
     1  C   -0.247570
     2  O   -0.288738
     3  C    0.351414
     4  C   -0.444658
     5  C   -0.390243
     6  C    0.380492
     7  O   -0.324978
     8  C   -0.199613
     9  C   -0.071612
    10  H    0.109273
    11  H    0.131526
    12  H    0.111344
    13  H    0.129195
    14  H    0.124808
    15  H    0.124458
    16  H    0.140524
    17  H    0.121962
    18  H    0.120152
    19  H    0.122264
 Sum of Mulliken charges =   0.00000

 Dipole moment (field-independent basis, Debye):
    X=              2.9828    Y=              1.1265    Z=              0.5425  Tot=              3.2342
 Quadrupole moment (field-independent basis, Debye-Ang):
   XX=            -60.6368   YY=            -51.0978   ZZ=            -53.2187
   XY=             -6.5757   XZ=              2.7360   YZ=             -0.0446

  Exact polarizability:  99.463   2.929  74.426   1.532  -4.107  61.333
 Approx polarizability: 148.709  17.008 113.162  -2.341  -9.164  92.424

                      1                      2                      3
                      A                      A                      A
 Frequencies --     62.2108               110.8083               176.5081
 Red. masses --      3.6216                 2.0998                 1.8445
 Frc consts  --      0.0083                 0.0152                 0.0339
 IR Inten    --      4.0215                 2.4729                 1.3808

                      4                      5                      6
                      A                      A                      A
 Frequencies --    188.3920               243.0677               295.4368
 Red. masses --      1.8083                 1.3753                 1.7181
 Frc consts  --      0.0378                 0.0479                 0.0884
 IR Inten    --      3.3854                 0.4658                 0.5048

                      7                      8                      9
                      A                      A                      A
 Frequencies --    333.9957               350.5708               420.6062
 Red. masses --      2.7920                 3.3955                 2.1162
 Frc consts  --      0.1835                 0.2459                 0.2206
 IR Inten    --      1.7807                 2.5746                 4.4387

                     10                     11                     12
                      A                      A                      A
 Frequencies --    429.8701               510.4188               570.0332
 Red. masses --      3.8375                 3.2292                 3.8763
 Frc consts  --      0.4178                 0.4957                 0.7421
 IR Inten    --      3.8757                 3.1949                 2.1062

                     13                     14                     15
                      A                      A                      A
 Frequencies --    619.1652               699.2007               804.4419
 Red. masses --      3.1425                 5.1348                 3.8764
 Frc consts  --      0.7098                 1.4790                 1.4780
 IR Inten    --      1.6056                 4.7336                 2.1420

                     16                     17                     18
                      A                      A                      A
 Frequencies --    823.7757               839.6373               883.1798
 Red. masses --      1.8878                 2.1669                 2.3604
 Frc consts  --      0.7548                 0.9000                 1.0847
 IR Inten    --     14.4384                17.5071                 9.2517

                     19                     20                     21
                      A                      A                      A
 Frequencies --    917.1590               965.2354              1001.7776
 Red. masses --      1.8773                 1.6820                 1.3853
 Frc consts  --      0.9304                 0.9233                 0.8191
 IR Inten    --      4.7683                 3.3732                 2.6520

                     22                     23                     24
                      A                      A                      A
 Frequencies --   1067.5450              1082.5909              1103.0462
 Red. masses --      2.1662                 1.3656                 2.7071
 Frc consts  --      1.4545                 0.9430                 1.9407
 IR Inten    --     21.1760                20.0092                64.2003

                     25                     26                     27
                      A                      A                      A
 Frequencies --   1153.1687              1178.6746              1185.2726
 Red. masses --      2.8983                 1.3219                 2.2397
 Frc consts  --      2.2708                 1.0820                 1.8539
 IR Inten    --     36.4841                 4.5554                60.9050

                     28                     29                     30
                      A                      A                      A
 Frequencies --   1205.5570              1225.0702              1256.3661
 Red. masses --      1.4522                 1.9063                 2.0934
 Frc consts  --      1.2435                 1.6857                 1.9468
 IR Inten    --      3.6407                67.5889                27.9768

                     31                     32                     33
                      A                      A                      A
 Frequencies --   1282.7202              1360.6109              1399.9312
 Red. masses --      2.3905                 1.8608                 1.2357
 Frc consts  --      2.3174                 2.0296                 1.4269
 IR Inten    --     40.4549                21.6835                10.4133

                     34                     35                     36
                      A                      A                      A
 Frequencies --   1445.3969              1474.7591              1485.2472
 Red. masses --      1.0898                 1.1158                 1.0570
 Frc consts  --      1.3415                 1.4299                 1.3738
 IR Inten    --      5.1589                 0.2727                 3.6689

                     37                     38                     39
                      A                      A                      A
 Frequencies --   1490.1941              1503.0138              1511.8150
 Red. masses --      1.0582                 1.0688                 1.0503
 Frc consts  --      1.3846                 1.4226                 1.4143
 IR Inten    --      1.2640                 3.9535                 7.1944

                     40                     41                     42
                      A                      A                      A
 Frequencies --   1658.7362              1820.5267              2992.2004
 Red. masses --      6.9160                12.3986                 1.0355
 Frc consts  --     11.2115                24.2112                 5.4626
 IR Inten    --     12.1206               297.4876                46.7063

                     43                     44                     45
                      A                      A                      A
 Frequencies --   3038.8011              3045.5645              3063.0605
 Red. masses --      1.0523                 1.0835                 1.0610
 Frc consts  --      5.7252                 5.9214                 5.8651
 IR Inten    --      3.1744                58.2716                 5.1347

                     46                     47                     48
                      A                      A                      A
 Frequencies --   3112.6735              3113.9931              3116.8115
 Red. masses --      1.0992                 1.1016                 1.1011
 Frc consts  --      6.2746                 6.2935                 6.3025
 IR Inten    --     27.1634                 4.3467                19.0178

                     49                     50                     51
                      A                      A                      A
 Frequencies --   3119.4023              3195.2012              3227.0821
 Red. masses --      1.1020                 1.0880                 1.1036
 Frc consts  --      6.3180                 6.5445                 6.7716
 IR Inten    --     17.9815                 3.9076                 5.3011

 - Thermochemistry -
 -------------------
 Temperature   298.150 Kelvin.  Pressure   1.00000 Atm.
 Atom     1 has atomic number  6 and mass  12.00000

 Molecular mass:   126.06808 amu.
 Principal axes and moments of inertia in atomic units:
                           1         2         3
     Eigenvalues --   579.041421587.307661714.20644
           X            0.99942  -0.03062   0.01500
           Y            0.03008   0.99894   0.03492
           Z           -0.01605  -0.03444   0.99928
 This molecule is an asymmetric top.
 Rotational symmetry number  1.
 Warning -- assumption of classical behavior for rotation
           may cause significant error
 Rotational temperatures (Kelvin)      0.14958     0.05457     0.05053
 Rotational constants (GHZ):           3.11677     1.13698     1.05281
 Zero-point vibrational energy     413671.8 (Joules/Mol)
                                   98.86993 (Kcal/Mol)
 Warning -- explicit consideration of  13 degrees of freedom as
           vibrations may cause significant error
 Vibrational temperatures:     89.51   159.43   253.96   271.05   349.72
          (Kelvin)            425.07   480.54   504.39   605.16   618.49
                              734.38   820.15   890.84  1005.99  1157.41
                             1185.23  1208.05  1270.70  1319.59  1388.76
                             1441.33  1535.96  1557.60  1587.04  1659.15
                             1695.85  1705.34  1734.53  1762.60  1807.63
                             1845.55  1957.61  2014.19  2079.60  2121.85
                             2136.94  2144.05  2162.50  2175.16  2386.55
                             2619.33  4305.10  4372.15  4381.88  4407.06
                             4478.44  4480.34  4484.39  4488.12  4597.18
                             4643.05

 Zero-point correction=                           0.157559 (Hartree/Particle)
 Thermal correction to Energy=                    0.166631
 Thermal correction to Enthalpy=                  0.167575
 Thermal correction to Gibbs Free Energy=         0.123676
 Sum of electronic and zero-point Energies=           -423.052435
 Sum of electronic and thermal Energies=              -423.043363
 Sum of electronic and thermal Enthalpies=            -423.042419
 Sum of electronic and thermal Free Energies=         -423.086318

                     E (Thermal)             CV                S
                      KCal/Mol        Cal/Mol-Kelvin    Cal/Mol-Kelvin
 Total                  104.562             33.891             92.393
 Electronic               0.000              0.000              0.000
 Translational            0.889              2.981             40.409
 Rotational               0.889              2.981             28.845
 Vibrational            102.785             27.930             23.140
 Vibration     1          0.597              1.972              4.386
 Vibration     2          0.607              1.941              3.255
 Vibration     3          0.628              1.871              2.365
 Vibration     4          0.633              1.856              2.244
 Vibration     5          0.659              1.774              1.780
 Vibration     6          0.690              1.682              1.443
 Vibration     7          0.716              1.608              1.241
 Vibration     8          0.727              1.574              1.164
 Vibration     9          0.783              1.425              0.890
 Vibration    10          0.791              1.405              0.859
 Vibration    11          0.866              1.227              0.633
 Vibration    12          0.926              1.096              0.504
 Vibration    13          0.979              0.991              0.418

 Optimization completed.
    -- Stationary point found.
 Normal termination of Gaussian 09 at Tue Jan 28 09:35:47 2020.
