 Gaussian 09, Revision D.01,
 Gaussian 09:  ES64L-G09RevD.01 24-Apr-2013

 -----------------------------
 # b3lyp 6-31G(2df,p) opt Freq
 -----------------------------

 -----
 titel
 -----
 Symbolic Z-matrix:
 Charge =  0 Multiplicity = 1

 SCF Done:  E(RB3LYP) =  -423.091285291     A.U. after   14 cycles
 Optimization completed.
    -- Stationary point found.
 Normal termination of Gaussian 09 at Tue Jan 28 04:02:38 2020.

 ----------------------------------------------------------------------
 #N Geom=AllCheck Guess=TCheck SCRF=Check GenChk RB3LYP/6-31G(2df,p) Fr
 eq
 ----------------------------------------------------------------------

 Structure from the checkpoint file:  "/scratch/puck/g09_25044629-47e3-428d-afa0-e55deba6275f/Gau-93620.chk"
 -----
 titel
 -----
 Charge =  0 Multiplicity = 1

                         Standard orientation:
 ---------------------------------------------------------------------
 Center     Atomic      Atomic             Coordinates (Angstroms)
 Number     Number       Type             X           Y           Z
 ---------------------------------------------------------------------
      1          6           0        1.849660   -1.468592   -0.324684
      2          6           0        1.308280   -0.290616    0.459091
      3          8           0        1.957784    0.964709    0.109272
      4          6           0        0.705920    1.602913   -0.206355
      5          6           0       -0.055683    0.300638    0.070935
      6          6           0       -1.358274    0.102719    0.872229
      7          6           0       -2.174834    0.596670   -0.344733
      8          6           0       -1.097530   -0.403511   -0.827497
      9          8           0       -1.431532   -1.277793    0.326260
     10          1           0        2.905331   -1.629672   -0.085537
     11          1           0        1.289026   -2.372839   -0.070068
     12          1           0        1.767081   -1.292286   -1.401645
     13          1           0        1.401736   -0.478052    1.538256
     14          1           0        0.480523    2.434717    0.475023
     15          1           0        0.679335    1.976078   -1.238369
     16          1           0       -1.542791    0.232784    1.939327
     17          1           0       -3.199489    0.226899   -0.392952
     18          1           0       -2.081355    1.644761   -0.641474
     19          1           0       -0.974635   -0.879042   -1.800734
 ---------------------------------------------------------------------

 SCF Done:  E(RB3LYP) =  -423.091285291     A.U. after    1 cycles

 The electronic state is 1-A.
 Alpha  occ. eigenvalues --  -19.13865 -19.12989 -10.25359 -10.25319 -10.23185
 Alpha  occ. eigenvalues --  -10.23128 -10.20690 -10.20029 -10.17354  -1.06251
 Alpha  occ. eigenvalues --   -1.03320  -0.80158  -0.75260  -0.70793  -0.66036
 Alpha  occ. eigenvalues --   -0.64813  -0.59876  -0.52815  -0.51913  -0.47889
 Alpha  occ. eigenvalues --   -0.47384  -0.46278  -0.42128  -0.40494  -0.40024
 Alpha  occ. eigenvalues --   -0.38294  -0.37559  -0.36203  -0.33983  -0.32234
 Alpha  occ. eigenvalues --   -0.30997  -0.30539  -0.24785  -0.24080
 Alpha virt. eigenvalues --    0.07636   0.08346   0.09235   0.10856   0.11403
 Alpha virt. eigenvalues --    0.12520   0.13020   0.13826   0.14768   0.15913
 Alpha virt. eigenvalues --    0.17659   0.18155   0.18646   0.19486   0.19994

 Mulliken charges:
               1
     1  C   -0.403238
     2  C    0.066383
     3  O   -0.299253
     4  C   -0.181282
     5  C    0.361360
     6  C   -0.029056
     7  C   -0.237427
     8  C   -0.023415
     9  O   -0.320113
    10  H    0.123723
    11  H    0.134120
    12  H    0.112175
    13  H    0.076959
    14  H    0.101406
    15  H    0.103880
    16  H    0.098267
    17  H    0.112161
    18  H    0.103191
    19  H    0.100160
 Sum of Mulliken charges =   0.00000

 Dipole moment (field-independent basis, Debye):
    X=             -1.2416    Y=              0.9680    Z=             -0.4682  Tot=              1.6425
 Quadrupole moment (field-independent basis, Debye-Ang):
   XX=            -57.7175   YY=            -54.7926   ZZ=            -50.0554
   XY=             -5.9529   XZ=              0.5131   YZ=              0.8276

  Exact polarizability:  80.723  -4.260  75.648   0.501  -0.467  68.382
 Approx polarizability: 107.469  -0.995 113.477  -0.150  -2.178 107.409

                      1                      2                      3
                      A                      A                      A
 Frequencies --     72.1319               159.7262               185.5753
 Red. masses --      3.4320                 3.2947                 2.8055
 Frc consts  --      0.0105                 0.0495                 0.0569
 IR Inten    --      5.1964                 2.1084                 1.9339

                      4                      5                      6
                      A                      A                      A
 Frequencies --    235.9681               267.0632               341.2840
 Red. masses --      1.1469                 2.3635                 2.7303
 Frc consts  --      0.0376                 0.0993                 0.1874
 IR Inten    --      0.2111                 0.2887                 1.2351

                      7                      8                      9
                      A                      A                      A
 Frequencies --    441.7448               467.9393               558.7717
 Red. masses --      4.5493                 2.8718                 2.4299
 Frc consts  --      0.5230                 0.3705                 0.4470
 IR Inten    --      0.6031                 3.8861                 2.1237

                     10                     11                     12
                      A                      A                      A
 Frequencies --    646.3870               742.1709               787.0788
 Red. masses --      3.5145                 5.0763                 2.8698
 Frc consts  --      0.8652                 1.6474                 1.0475
 IR Inten    --     10.6199                11.4143                 3.6406

                     13                     14                     15
                      A                      A                      A
 Frequencies --    795.4839               872.9187               875.3204
 Red. masses --      2.6055                 2.2537                 2.7695
 Frc consts  --      0.9714                 1.0118                 1.2502
 IR Inten    --      2.0170                 2.5088                35.8244

                     16                     17                     18
                      A                      A                      A
 Frequencies --    880.3095               921.2904               993.4860
 Red. masses --      2.7128                 2.6578                 1.8665
 Frc consts  --      1.2386                 1.3291                 1.0854
 IR Inten    --      7.6396                 9.0164                 0.7086

                     19                     20                     21
                      A                      A                      A
 Frequencies --   1017.8004              1025.4306              1028.5306
 Red. masses --      3.3046                 1.1780                 1.5363
 Frc consts  --      2.0170                 0.7298                 0.9575
 IR Inten    --     68.8602                 3.4724                 4.2681

                     22                     23                     24
                      A                      A                      A
 Frequencies --   1071.9560              1090.7537              1103.2750
 Red. masses --      2.8316                 1.9491                 4.3034
 Frc consts  --      1.9171                 1.3663                 3.0863
 IR Inten    --     36.7502                 5.1840                11.1126

                     25                     26                     27
                      A                      A                      A
 Frequencies --   1121.9655              1150.9317              1170.0019
 Red. masses --      1.4747                 1.4804                 1.6939
 Frc consts  --      1.0938                 1.1554                 1.3662
 IR Inten    --      4.1681                 5.4535                 1.5423

                     28                     29                     30
                      A                      A                      A
 Frequencies --   1173.1054              1180.2193              1207.9229
 Red. masses --      1.4096                 2.0016                 1.9357
 Frc consts  --      1.1429                 1.6427                 1.6640
 IR Inten    --      0.0901                 2.7087                14.6372

                     31                     32                     33
                      A                      A                      A
 Frequencies --   1215.6600              1269.6844              1285.2522
 Red. masses --      1.7735                 1.5470                 1.3841
 Frc consts  --      1.5442                 1.4694                 1.3471
 IR Inten    --     13.2784                 2.0021                 3.3772

                     34                     35                     36
                      A                      A                      A
 Frequencies --   1323.6264              1374.3180              1391.5368
 Red. masses --      1.7477                 1.4978                 1.8619
 Frc consts  --      1.8041                 1.6667                 2.1242
 IR Inten    --      3.5352                 2.6193                 4.2162

                     37                     38                     39
                      A                      A                      A
 Frequencies --   1399.8671              1484.7515              1486.1078
 Red. masses --      1.4572                 1.1482                 1.0734
 Frc consts  --      1.6824                 1.4913                 1.3968
 IR Inten    --     21.0230                 0.4661                 4.9524

                     40                     41                     42
                      A                      A                      A
 Frequencies --   1493.7275              1520.9746              2996.1189
 Red. masses --      1.0584                 1.1040                 1.0673
 Frc consts  --      1.3914                 1.5047                 5.6450
 IR Inten    --      2.4279                 0.3023                73.8277

                     43                     44                     45
                      A                      A                      A
 Frequencies --   3004.0140              3037.9435              3039.5675
 Red. masses --      1.0726                 1.0380                 1.1050
 Frc consts  --      5.7030                 5.6444                 6.0148
 IR Inten    --     32.0172                 6.5819                41.0235

                     46                     47                     48
                      A                      A                      A
 Frequencies --   3062.4025              3110.8406              3113.5788
 Red. masses --      1.0565                 1.1001                 1.0929
 Frc consts  --      5.8377                 6.2724                 6.2423
 IR Inten    --     34.3219                17.6835                73.4243

                     49                     50                     51
                      A                      A                      A
 Frequencies --   3120.3457              3121.1654              3148.8940
 Red. masses --      1.0981                 1.0991                 1.1091
 Frc consts  --      6.2994                 6.3087                 6.4792
 IR Inten    --      8.9409                18.7517                22.6134

 - Thermochemistry -
 -------------------
 Temperature   298.150 Kelvin.  Pressure   1.00000 Atm.
 Atom     1 has atomic number  6 and mass  12.00000

 Molecular mass:   126.06808 amu.
 Principal axes and moments of inertia in atomic units:
                           1         2         3
     Eigenvalues --   599.485381173.935071496.46218
           X            0.99730  -0.07340  -0.00022
           Y            0.07340   0.99725   0.01071
           Z           -0.00057  -0.01069   0.99994
 This molecule is an asymmetric top.
 Rotational symmetry number  1.
 Warning -- assumption of classical behavior for rotation
           may cause significant error
 Rotational temperatures (Kelvin)      0.14448     0.07378     0.05788
 Rotational constants (GHZ):           3.01048     1.53734     1.20601
 Zero-point vibrational energy     416222.2 (Joules/Mol)
                                   99.47950 (Kcal/Mol)
 Warning -- explicit consideration of   9 degrees of freedom as
           vibrations may cause significant error
 Vibrational temperatures:    103.78   229.81   267.00   339.51   384.24
          (Kelvin)            491.03   635.57   673.26   803.95   930.01
                             1067.82  1132.43  1144.52  1255.93  1259.39
                             1266.57  1325.53  1429.40  1464.39  1475.36
                             1479.82  1542.30  1569.35  1587.36  1614.26
                             1655.93  1683.37  1687.83  1698.07  1737.93
                             1749.06  1826.79  1849.19  1904.40  1977.33
                             2002.11  2014.09  2136.22  2138.17  2149.14
                             2188.34  4310.74  4322.10  4370.92  4373.25
                             4406.11  4475.80  4479.74  4489.48  4490.66
                             4530.55

 Zero-point correction=                           0.158531 (Hartree/Particle)
 Thermal correction to Energy=                    0.166455
 Thermal correction to Enthalpy=                  0.167399
 Thermal correction to Gibbs Free Energy=         0.125952
 Sum of electronic and zero-point Energies=           -422.932755
 Sum of electronic and thermal Energies=              -422.924830
 Sum of electronic and thermal Enthalpies=            -422.923886
 Sum of electronic and thermal Free Energies=         -422.965333

                     E (Thermal)             CV                S
                      KCal/Mol        Cal/Mol-Kelvin    Cal/Mol-Kelvin
 Total                  104.452             30.665             87.232
 Electronic               0.000              0.000              0.000
 Translational            0.889              2.981             40.409
 Rotational               0.889              2.981             28.445
 Vibrational            102.675             24.703             18.379
 Vibration     1          0.598              1.967              4.094
 Vibration     2          0.622              1.892              2.553
 Vibration     3          0.632              1.860              2.272
 Vibration     4          0.655              1.786              1.833
 Vibration     5          0.672              1.734              1.615
 Vibration     6          0.721              1.593              1.206
 Vibration     7          0.802              1.379              0.821
 Vibration     8          0.825              1.321              0.743
 Vibration     9          0.914              1.121              0.526

 Optimization completed.
    -- Stationary point found.
 Normal termination of Gaussian 09 at Tue Jan 28 04:46:31 2020.
