 Gaussian 09, Revision D.01,
 Gaussian 09:  ES64L-G09RevD.01 24-Apr-2013

 -----------------------------
 # b3lyp 6-31G(2df,p) opt Freq
 -----------------------------

 -----
 titel
 -----
 Symbolic Z-matrix:
 Charge =  0 Multiplicity = 1

 SCF Done:  E(RB3LYP) =  -423.205172233     A.U. after   14 cycles
 Optimization completed.
    -- Stationary point found.
 Normal termination of Gaussian 09 at Tue Jan 28 09:03:21 2020.

 ----------------------------------------------------------------------
 #N Geom=AllCheck Guess=TCheck SCRF=Check GenChk RB3LYP/6-31G(2df,p) Fr
 eq
 ----------------------------------------------------------------------

 Structure from the checkpoint file:  "/scratch/puck/g09_d8feef95-7eb9-432c-a328-2687484726a7/Gau-144469.chk"
 -----
 titel
 -----
 Charge =  0 Multiplicity = 1

                         Standard orientation:
 ---------------------------------------------------------------------
 Center     Atomic      Atomic             Coordinates (Angstroms)
 Number     Number       Type             X           Y           Z
 ---------------------------------------------------------------------
      1          6           0        2.334400   -1.164639    0.249606
      2          6           0        1.062919   -0.614149    0.904885
      3          6           0        0.045442   -0.063081   -0.096290
      4          6           0       -0.638072   -1.029280   -1.125977
      5          6           0       -2.055100   -0.555691   -0.689127
      6          6           0       -1.394103    0.154851    0.491026
      7          8           0       -1.773455    0.594866    1.532976
      8          6           0        0.509294    1.219563   -0.759625
      9          8           0        1.415762    1.906348   -0.365524
     10          1           0        2.107828   -1.974917   -0.452062
     11          1           0        2.868172   -0.380718   -0.293536
     12          1           0        3.011037   -1.566809    1.009401
     13          1           0        0.579488   -1.398122    1.499227
     14          1           0        1.318957    0.193414    1.596712
     15          1           0       -0.383105   -0.860855   -2.174260
     16          1           0       -0.446165   -2.075203   -0.880701
     17          1           0       -2.501218    0.168095   -1.380977
     18          1           0       -2.809211   -1.307439   -0.444280
     19          1           0       -0.072911    1.507394   -1.666131
 ---------------------------------------------------------------------

 SCF Done:  E(RB3LYP) =  -423.205172233     A.U. after    1 cycles

 The electronic state is 1-A.
 Alpha  occ. eigenvalues --  -19.15438 -19.14948 -10.28569 -10.28101 -10.21334
 Alpha  occ. eigenvalues --  -10.21149 -10.20988 -10.19264 -10.17933  -1.06439
 Alpha  occ. eigenvalues --   -1.05612  -0.87072  -0.77701  -0.70647  -0.65132
 Alpha  occ. eigenvalues --   -0.63250  -0.59049  -0.52719  -0.49104  -0.48037
 Alpha  occ. eigenvalues --   -0.46307  -0.45655  -0.44392  -0.42502  -0.41219
 Alpha  occ. eigenvalues --   -0.39225  -0.38512  -0.37566  -0.36665  -0.35149
 Alpha  occ. eigenvalues --   -0.34954  -0.33138  -0.26875  -0.24805
 Alpha virt. eigenvalues --   -0.05148  -0.01009   0.07576   0.09303   0.10997
 Alpha virt. eigenvalues --    0.12419   0.13324   0.14527   0.15313   0.16649
 Alpha virt. eigenvalues --    0.16740   0.17437   0.18737   0.19690   0.22144

 Mulliken charges:
               1
     1  C   -0.401064
     2  C   -0.235424
     3  C    0.094045
     4  C   -0.291693
     5  C   -0.339889
     6  C    0.369720
     7  O   -0.282504
     8  C    0.137615
     9  O   -0.252419
    10  H    0.111911
    11  H    0.139070
    12  H    0.120616
    13  H    0.098196
    14  H    0.134514
    15  H    0.115916
    16  H    0.125167
    17  H    0.140521
    18  H    0.138424
    19  H    0.077279
 Sum of Mulliken charges =   0.00000

 Dipole moment (field-independent basis, Debye):
    X=             -0.9238    Y=             -2.7129    Z=             -2.4165  Tot=              3.7487
 Quadrupole moment (field-independent basis, Debye-Ang):
   XX=            -55.9551   YY=            -56.1286   ZZ=            -54.6704
   XY=             -1.8704   XZ=              5.2401   YZ=             -2.0433

  Exact polarizability:  87.529   3.385  71.385   2.641   0.830  73.025
 Approx polarizability: 123.543  10.999 108.906  -0.891   5.641 115.863

                      1                      2                      3
                      A                      A                      A
 Frequencies --     65.9394                95.3092               104.6888
 Red. masses --      3.8396                 3.3899                 2.3891
 Frc consts  --      0.0098                 0.0181                 0.0154
 IR Inten    --      2.9036                 3.9354                 0.2617

                      4                      5                      6
                      A                      A                      A
 Frequencies --    142.6673               201.2440               212.7680
 Red. masses --      3.6305                 1.3183                 2.6007
 Frc consts  --      0.0435                 0.0315                 0.0694
 IR Inten    --      1.0190                 1.9783                 3.0009

                      7                      8                      9
                      A                      A                      A
 Frequencies --    289.3202               309.9752               340.8702
 Red. masses --      2.8733                 2.4722                 2.4189
 Frc consts  --      0.1417                 0.1400                 0.1656
 IR Inten    --      6.8639                 0.7497                 0.8485

                     10                     11                     12
                      A                      A                      A
 Frequencies --    476.4426               505.2235               564.8404
 Red. masses --      2.3251                 3.7541                 4.0514
 Frc consts  --      0.3110                 0.5646                 0.7616
 IR Inten    --      1.1321                 2.8952                 2.8226

                     13                     14                     15
                      A                      A                      A
 Frequencies --    687.5997               735.1451               750.6268
 Red. masses --      3.3173                 1.8855                 1.6781
 Frc consts  --      0.9241                 0.6004                 0.5571
 IR Inten    --      3.1634                 4.8849                 0.6378

                     16                     17                     18
                      A                      A                      A
 Frequencies --    790.9359               839.6000               903.3802
 Red. masses --      1.3884                 3.0476                 2.6560
 Frc consts  --      0.5117                 1.2658                 1.2771
 IR Inten    --      8.3202                87.8348                12.4622

                     19                     20                     21
                      A                      A                      A
 Frequencies --    933.5834               982.4111              1017.7809
 Red. masses --      2.6966                 2.0921                 1.7595
 Frc consts  --      1.3848                 1.1896                 1.0739
 IR Inten    --      7.3619                 3.2671                 8.0212

                     22                     23                     24
                      A                      A                      A
 Frequencies --   1032.6682              1053.5998              1086.6379
 Red. masses --      1.9821                 3.4997                 1.5130
 Frc consts  --      1.2454                 2.2890                 1.0526
 IR Inten    --      4.8650               100.3778                 0.4247

                     25                     26                     27
                      A                      A                      A
 Frequencies --   1115.0150              1184.9183              1206.5930
 Red. masses --      2.1227                 2.2624                 1.4647
 Frc consts  --      1.5549                 1.8715                 1.2563
 IR Inten    --      5.4336                 3.9538                 0.7876

                     28                     29                     30
                      A                      A                      A
 Frequencies --   1217.7624              1246.8110              1279.2358
 Red. masses --      1.7269                 1.5183                 2.0163
 Frc consts  --      1.5088                 1.3906                 1.9440
 IR Inten    --      9.3498                10.6865                 7.8029

                     31                     32                     33
                      A                      A                      A
 Frequencies --   1319.9340              1362.1970              1409.3783
 Red. masses --      1.2265                 1.4123                 1.2308
 Frc consts  --      1.2590                 1.5440                 1.4404
 IR Inten    --      2.5013                 6.4152                 4.1271

                     34                     35                     36
                      A                      A                      A
 Frequencies --   1436.5869              1438.6037              1475.6386
 Red. masses --      1.1906                 1.0967                 1.0759
 Frc consts  --      1.4478                 1.3373                 1.3804
 IR Inten    --      5.2251                 8.2305                 4.3786

                     37                     38                     39
                      A                      A                      A
 Frequencies --   1490.0750              1498.0910              1507.7025
 Red. masses --      1.0949                 1.0439                 1.0533
 Frc consts  --      1.4324                 1.3804                 1.4107
 IR Inten    --      2.5390                 5.4297                 3.5461

                     40                     41                     42
                      A                      A                      A
 Frequencies --   1811.6991              1895.4143              2855.3176
 Red. masses --     10.7831                12.6595                 1.0824
 Frc consts  --     20.8529                26.7964                 5.1993
 IR Inten    --    205.3013               250.0504               106.5427

                     43                     44                     45
                      A                      A                      A
 Frequencies --   3038.5071              3041.0606              3050.0752
 Red. masses --      1.0372                 1.0657                 1.0623
 Frc consts  --      5.6420                 5.8069                 5.8227
 IR Inten    --     21.2702                17.9868                 7.8570

                     46                     47                     48
                      A                      A                      A
 Frequencies --   3077.0949              3090.3132              3107.0801
 Red. masses --      1.0593                 1.0963                 1.0992
 Frc consts  --      5.9093                 6.1684                 6.2519
 IR Inten    --     17.1203                 3.4410                31.6488

                     49                     50                     51
                      A                      A                      A
 Frequencies --   3111.7154              3125.1804              3133.6088
 Red. masses --      1.1024                 1.1017                 1.1074
 Frc consts  --      6.2890                 6.3396                 6.4068
 IR Inten    --      4.2980                16.9545                15.7824

 - Thermochemistry -
 -------------------
 Temperature   298.150 Kelvin.  Pressure   1.00000 Atm.
 Atom     1 has atomic number  6 and mass  12.00000

 Molecular mass:   126.06808 amu.
 Principal axes and moments of inertia in atomic units:
                           1         2         3
     Eigenvalues --   833.066501356.187981495.70970
           X            0.99762  -0.04127   0.05531
           Y            0.04270   0.99878  -0.02483
           Z           -0.05422   0.02714   0.99816
 This molecule is an asymmetric top.
 Rotational symmetry number  1.
 Warning -- assumption of classical behavior for rotation
           may cause significant error
 Rotational temperatures (Kelvin)      0.10397     0.06387     0.05791
 Rotational constants (GHZ):           2.16638     1.33075     1.20661
 Zero-point vibrational energy     410611.4 (Joules/Mol)
                                   98.13848 (Kcal/Mol)
 Warning -- explicit consideration of  12 degrees of freedom as
           vibrations may cause significant error
 Vibrational temperatures:     94.87   137.13   150.62   205.27   289.54
          (Kelvin)            306.13   416.27   445.98   490.44   685.49
                              726.90   812.68   989.30  1057.71  1079.98
                             1137.98  1208.00  1299.76  1343.22  1413.47
                             1464.36  1485.78  1515.89  1563.43  1604.26
                             1704.83  1736.02  1752.09  1793.88  1840.53
                             1899.09  1959.90  2027.78  2066.93  2069.83
                             2123.11  2143.88  2155.42  2169.24  2606.63
                             2727.07  4108.16  4371.73  4375.40  4388.37
                             4427.25  4446.27  4470.39  4477.06  4496.43
                             4508.56

 Zero-point correction=                           0.156394 (Hartree/Particle)
 Thermal correction to Energy=                    0.165993
 Thermal correction to Enthalpy=                  0.166937
 Thermal correction to Gibbs Free Energy=         0.121495
 Sum of electronic and zero-point Energies=           -423.048779
 Sum of electronic and thermal Energies=              -423.039179
 Sum of electronic and thermal Enthalpies=            -423.038235
 Sum of electronic and thermal Free Energies=         -423.083677

                     E (Thermal)             CV                S
                      KCal/Mol        Cal/Mol-Kelvin    Cal/Mol-Kelvin
 Total                  104.162             34.369             95.640
 Electronic               0.000              0.000              0.000
 Translational            0.889              2.981             40.409
 Rotational               0.889              2.981             28.915
 Vibrational            102.385             28.407             26.317
 Vibration     1          0.597              1.971              4.271
 Vibration     2          0.603              1.953              3.548
 Vibration     3          0.605              1.945              3.365
 Vibration     4          0.616              1.911              2.768
 Vibration     5          0.638              1.838              2.122
 Vibration     6          0.644              1.821              2.020
 Vibration     7          0.686              1.694              1.478
 Vibration     8          0.699              1.655              1.362
 Vibration     9          0.720              1.594              1.208
 Vibration    10          0.833              1.302              0.720
 Vibration    11          0.860              1.238              0.645
 Vibration    12          0.921              1.107              0.514

 Optimization completed.
    -- Stationary point found.
 Normal termination of Gaussian 09 at Tue Jan 28 09:47:35 2020.
