 Gaussian 09, Revision D.01,
 Gaussian 09:  ES64L-G09RevD.01 24-Apr-2013

 -----------------------------
 # b3lyp 6-31G(2df,p) opt Freq
 -----------------------------

 -----
 titel
 -----
 Symbolic Z-matrix:
 Charge =  0 Multiplicity = 1

 SCF Done:  E(RB3LYP) =  -423.219568431     A.U. after   14 cycles
 Optimization completed.
    -- Stationary point found.
 Normal termination of Gaussian 09 at Mon Jan 27 16:11:01 2020.

 ----------------------------------------------------------------------
 #N Geom=AllCheck Guess=TCheck SCRF=Check GenChk RB3LYP/6-31G(2df,p) Fr
 eq
 ----------------------------------------------------------------------

 Structure from the checkpoint file:  "/scratch/puck/g09_cfe1c8e0-157e-41ac-be12-c531c50a62b8/Gau-83358.chk"
 -----
 titel
 -----
 Charge =  0 Multiplicity = 1

                         Standard orientation:
 ---------------------------------------------------------------------
 Center     Atomic      Atomic             Coordinates (Angstroms)
 Number     Number       Type             X           Y           Z
 ---------------------------------------------------------------------
      1          6           0        2.420923   -0.291513   -0.667462
      2          6           0        1.065098   -0.109596    0.025949
      3          8           0        1.139902   -0.582418    1.378623
      4          6           0       -0.044741   -0.872675   -0.732856
      5          6           0       -1.419398   -0.551770   -0.176935
      6          8           0       -2.204792   -1.399721    0.170775
      7          6           0       -1.748763    0.935865   -0.119515
      8          6           0       -0.540336    1.813651    0.062926
      9          6           0        0.707109    1.357182    0.133041
     10          1           0        2.415218    0.135531   -1.675045
     11          1           0        3.205147    0.199582   -0.084032
     12          1           0        2.671483   -1.355300   -0.754539
     13          1           0        1.443963   -1.497494    1.355270
     14          1           0       -0.023849   -0.571578   -1.788991
     15          1           0        0.117182   -1.953635   -0.682455
     16          1           0       -2.266335    1.196016   -1.056507
     17          1           0       -2.485757    1.094661    0.675469
     18          1           0       -0.730017    2.879949    0.161346
     19          1           0        1.532731    2.042517    0.303413
 ---------------------------------------------------------------------

 SCF Done:  E(RB3LYP) =  -423.219568431     A.U. after    1 cycles

 The electronic state is 1-A.
 Alpha  occ. eigenvalues --  -19.13842 -19.12526 -10.26685 -10.25248 -10.19640
 Alpha  occ. eigenvalues --  -10.19615 -10.18997 -10.18646 -10.18538  -1.03714
 Alpha  occ. eigenvalues --   -1.02164  -0.83251  -0.76855  -0.73464  -0.69867
 Alpha  occ. eigenvalues --   -0.61799  -0.56607  -0.51994  -0.50006  -0.47444
 Alpha  occ. eigenvalues --   -0.45685  -0.44901  -0.43738  -0.42587  -0.41626
 Alpha  occ. eigenvalues --   -0.39175  -0.38468  -0.37031  -0.35235  -0.35146
 Alpha  occ. eigenvalues --   -0.32127  -0.27567  -0.26327  -0.23786
 Alpha virt. eigenvalues --   -0.01191   0.00845   0.06841   0.10285   0.12003
 Alpha virt. eigenvalues --    0.12904   0.14029   0.15056   0.15686   0.16924
 Alpha virt. eigenvalues --    0.17994   0.18640   0.20351   0.22144   0.23473

 Mulliken charges:
               1
     1  C   -0.441741
     2  C    0.306779
     3  O   -0.462795
     4  C   -0.335027
     5  C    0.390841
     6  O   -0.310377
     7  C   -0.357745
     8  C   -0.074323
     9  C   -0.040396
    10  H    0.122057
    11  H    0.127308
    12  H    0.108976
    13  H    0.277787
    14  H    0.116882
    15  H    0.105993
    16  H    0.134752
    17  H    0.140885
    18  H    0.098576
    19  H    0.091567
 Sum of Mulliken charges =   0.00000

 Dipole moment (field-independent basis, Debye):
    X=              2.0433    Y=              1.2279    Z=             -1.8551  Tot=              3.0207
 Quadrupole moment (field-independent basis, Debye-Ang):
   XX=            -55.2357   YY=            -51.2694   ZZ=            -54.7762
   XY=             -7.8057   XZ=              0.8168   YZ=             -0.1801

  Exact polarizability:  92.918  -3.851  80.232  -1.273  -0.502  58.930
 Approx polarizability: 133.135  -2.690 117.486  -1.385  -4.601  93.238

                      1                      2                      3
                      A                      A                      A
 Frequencies --     70.4758                94.7825               237.6548
 Red. masses --      2.8264                 5.2891                 1.9935
 Frc consts  --      0.0083                 0.0280                 0.0663
 IR Inten    --      2.6021                 2.8743                 0.6662

                      4                      5                      6
                      A                      A                      A
 Frequencies --    263.5701               291.1572               299.5176
 Red. masses --      1.1885                 1.1720                 2.4969
 Frc consts  --      0.0486                 0.0585                 0.1320
 IR Inten    --      0.3586                82.5794                 3.9554

                      7                      8                      9
                      A                      A                      A
 Frequencies --    337.4628               405.0088               419.6979
 Red. masses --      3.2191                 2.4388                 2.8629
 Frc consts  --      0.2160                 0.2357                 0.2971
 IR Inten    --     17.7277                 4.6325                 5.0986

                     10                     11                     12
                      A                      A                      A
 Frequencies --    473.2780               507.9549               517.6775
 Red. masses --      2.9154                 4.0694                 2.9153
 Frc consts  --      0.3847                 0.6186                 0.4603
 IR Inten    --      4.4950                 7.7198                 7.9673

                     13                     14                     15
                      A                      A                      A
 Frequencies --    585.5858               673.9886               728.1536
 Red. masses --      3.9687                 4.9751                 1.5482
 Frc consts  --      0.8018                 1.3316                 0.4836
 IR Inten    --      7.0859                 2.4754                 8.9177

                     16                     17                     18
                      A                      A                      A
 Frequencies --    796.3093               832.3569               910.9122
 Red. masses --      2.8629                 2.0439                 3.0996
 Frc consts  --      1.0696                 0.8343                 1.5153
 IR Inten    --      4.5559                 6.5972                 3.0550

                     19                     20                     21
                      A                      A                      A
 Frequencies --    923.9898               941.8178               980.5550
 Red. masses --      2.2244                 2.0808                 1.7285
 Frc consts  --      1.1189                 1.0875                 0.9792
 IR Inten    --     27.3604                 7.6238                 6.5764

                     22                     23                     24
                      A                      A                      A
 Frequencies --    993.0442              1009.5570              1085.8496
 Red. masses --      1.6583                 1.3763                 1.6030
 Frc consts  --      0.9635                 0.8264                 1.1136
 IR Inten    --      0.4228                 1.0970                17.0404

                     25                     26                     27
                      A                      A                      A
 Frequencies --   1099.7474              1149.5014              1172.9104
 Red. masses --      2.3190                 1.7818                 1.7219
 Frc consts  --      1.6525                 1.3872                 1.3957
 IR Inten    --      7.1308                52.4271                68.3442

                     28                     29                     30
                      A                      A                      A
 Frequencies --   1210.4304              1234.2726              1255.2336
 Red. masses --      1.2486                 1.3819                 2.0461
 Frc consts  --      1.0778                 1.2403                 1.8995
 IR Inten    --     19.6421                11.9293                17.8811

                     31                     32                     33
                      A                      A                      A
 Frequencies --   1308.6099              1334.2490              1367.7731
 Red. masses --      1.8212                 1.8492                 1.5415
 Frc consts  --      1.8375                 1.9396                 1.6991
 IR Inten    --     21.1036                13.1201                35.5686

                     34                     35                     36
                      A                      A                      A
 Frequencies --   1403.0779              1424.6336              1437.1113
 Red. masses --      1.2889                 1.5333                 1.0891
 Frc consts  --      1.4950                 1.8335                 1.3253
 IR Inten    --     10.5853                 7.9372                 9.0253

                     37                     38                     39
                      A                      A                      A
 Frequencies --   1457.8615              1491.0495              1496.1927
 Red. masses --      1.1106                 1.0512                 1.0940
 Frc consts  --      1.3907                 1.3770                 1.4429
 IR Inten    --      2.0831                 1.7721                 4.2851

                     40                     41                     42
                      A                      A                      A
 Frequencies --   1728.3593              1827.2546              2995.9016
 Red. masses --      7.2029                11.6337                 1.0701
 Frc consts  --     12.6773                22.8858                 5.6586
 IR Inten    --      8.1710               188.1832                11.0109

                     43                     44                     45
                      A                      A                      A
 Frequencies --   3023.6189              3029.6923              3068.7816
 Red. masses --      1.0578                 1.0404                 1.0886
 Frc consts  --      5.6979                 5.6266                 6.0401
 IR Inten    --      6.0805                20.6817                 6.1853

                     46                     47                     48
                      A                      A                      A
 Frequencies --   3090.9350              3099.0375              3117.0174
 Red. masses --      1.0996                 1.0995                 1.1024
 Frc consts  --      6.1896                 6.2213                 6.3106
 IR Inten    --      6.2381                35.0386                18.8064

                     49                     50                     51
                      A                      A                      A
 Frequencies --   3148.5871              3174.0735              3786.6208
 Red. masses --      1.0842                 1.0966                 1.0657
 Frc consts  --      6.3328                 6.5093                 9.0033
 IR Inten    --      7.6080                24.1538                 9.9470

 - Thermochemistry -
 -------------------
 Temperature   298.150 Kelvin.  Pressure   1.00000 Atm.
 Atom     1 has atomic number  6 and mass  12.00000

 Molecular mass:   126.06808 amu.
 Principal axes and moments of inertia in atomic units:
                           1         2         3
     Eigenvalues --   713.246021239.312011567.23841
           X            0.99793  -0.06246  -0.01531
           Y            0.06274   0.99785   0.01871
           Z            0.01410  -0.01963   0.99971
 This molecule is an asymmetric top.
 Rotational symmetry number  1.
 Warning -- assumption of classical behavior for rotation
           may cause significant error
 Rotational temperatures (Kelvin)      0.12144     0.06989     0.05527
 Rotational constants (GHZ):           2.53032     1.45624     1.15154
 Zero-point vibrational energy     414583.2 (Joules/Mol)
                                   99.08775 (Kcal/Mol)
 Warning -- explicit consideration of  13 degrees of freedom as
           vibrations may cause significant error
 Vibrational temperatures:    101.40   136.37   341.93   379.22   418.91
          (Kelvin)            430.94   485.53   582.72   603.85   680.94
                              730.83   744.82   842.53   969.72  1047.65
                             1145.71  1197.57  1310.60  1329.41  1355.06
                             1410.80  1428.77  1452.53  1562.29  1582.29
                             1653.87  1687.55  1741.54  1775.84  1806.00
                             1882.80  1919.68  1967.92  2018.71  2049.73
                             2067.68  2097.53  2145.29  2152.68  2486.72
                             2629.01  4310.43  4350.31  4359.05  4415.29
                             4447.16  4458.82  4484.69  4530.11  4566.78
                             5448.10

 Zero-point correction=                           0.157906 (Hartree/Particle)
 Thermal correction to Energy=                    0.166751
 Thermal correction to Enthalpy=                  0.167695
 Thermal correction to Gibbs Free Energy=         0.124524
 Sum of electronic and zero-point Energies=           -423.061662
 Sum of electronic and thermal Energies=              -423.052818
 Sum of electronic and thermal Enthalpies=            -423.051873
 Sum of electronic and thermal Free Energies=         -423.095044

                     E (Thermal)             CV                S
                      KCal/Mol        Cal/Mol-Kelvin    Cal/Mol-Kelvin
 Total                  104.638             34.110             90.861
 Electronic               0.000              0.000              0.000
 Translational            0.889              2.981             40.409
 Rotational               0.889              2.981             28.717
 Vibrational            102.860             28.148             21.735
 Vibration     1          0.598              1.968              4.140
 Vibration     2          0.603              1.953              3.559
 Vibration     3          0.656              1.783              1.820
 Vibration     4          0.670              1.740              1.638
 Vibration     5          0.687              1.690              1.467
 Vibration     6          0.692              1.675              1.420
 Vibration     7          0.718              1.601              1.224
 Vibration     8          0.770              1.459              0.944
 Vibration     9          0.782              1.427              0.893
 Vibration    10          0.830              1.309              0.728
 Vibration    11          0.863              1.232              0.639
 Vibration    12          0.873              1.211              0.615
 Vibration    13          0.943              1.063              0.475

 Optimization completed.
    -- Stationary point found.
 Normal termination of Gaussian 09 at Mon Jan 27 16:53:40 2020.
