 Gaussian 09, Revision D.01,
 Gaussian 09:  ES64L-G09RevD.01 24-Apr-2013

 -----------------------------
 # b3lyp 6-31G(2df,p) opt Freq
 -----------------------------

 -----
 titel
 -----
 Symbolic Z-matrix:
 Charge =  0 Multiplicity = 1

 SCF Done:  E(RB3LYP) =  -423.175671489     A.U. after   14 cycles
 Optimization completed.
    -- Stationary point found.
 Normal termination of Gaussian 09 at Tue Jan 28 04:06:14 2020.

 ----------------------------------------------------------------------
 #N Geom=AllCheck Guess=TCheck SCRF=Check GenChk RB3LYP/6-31G(2df,p) Fr
 eq
 ----------------------------------------------------------------------

 Structure from the checkpoint file:  "/scratch/puck/g09_230d79e8-93bd-4102-9a1d-6755e1a41977/Gau-4081.chk"
 -----
 titel
 -----
 Charge =  0 Multiplicity = 1

                         Standard orientation:
 ---------------------------------------------------------------------
 Center     Atomic      Atomic             Coordinates (Angstroms)
 Number     Number       Type             X           Y           Z
 ---------------------------------------------------------------------
      1          6           0        2.030768    1.171562   -0.811115
      2          6           0        1.223178   -0.089772   -0.591057
      3          8           0        1.840554   -0.982135    0.365746
      4          6           0        0.644313   -1.030594    1.159411
      5          6           0       -0.082041   -0.012712    0.252009
      6          6           0       -0.723521    1.296100    0.793054
      7          6           0       -2.109263    0.888503    0.199731
      8          6           0       -1.434429   -0.367672   -0.373909
      9          8           0       -1.797054   -1.276799   -1.064042
     10          1           0        2.179231    1.717518    0.125110
     11          1           0        3.014447    0.909165   -1.212958
     12          1           0        1.535156    1.831466   -1.531462
     13          1           0        1.052135   -0.612218   -1.542507
     14          1           0        0.194857   -2.031610    1.170215
     15          1           0        0.814177   -0.693102    2.189719
     16          1           0       -0.701476    1.388473    1.881120
     17          1           0       -0.307525    2.208133    0.360419
     18          1           0       -2.889673    0.664540    0.933260
     19          1           0       -2.533355    1.556624   -0.555297
 ---------------------------------------------------------------------

 SCF Done:  E(RB3LYP) =  -423.175671489     A.U. after    1 cycles

 The electronic state is 1-A.
 Alpha  occ. eigenvalues --  -19.14225 -19.13423 -10.27088 -10.24359 -10.23883
 Alpha  occ. eigenvalues --  -10.20353 -10.20042 -10.19858 -10.18461  -1.05139
 Alpha  occ. eigenvalues --   -1.04124  -0.84978  -0.75909  -0.71804  -0.65146
 Alpha  occ. eigenvalues --   -0.64181  -0.58727  -0.52262  -0.49530  -0.48349
 Alpha  occ. eigenvalues --   -0.46952  -0.45048  -0.43096  -0.42253  -0.39814
 Alpha  occ. eigenvalues --   -0.39240  -0.38415  -0.37968  -0.36330  -0.35271
 Alpha  occ. eigenvalues --   -0.31350  -0.31014  -0.25240  -0.24267
 Alpha virt. eigenvalues --   -0.03175   0.07452   0.08498   0.10565   0.11123
 Alpha virt. eigenvalues --    0.11846   0.13636   0.14125   0.15778   0.16355
 Alpha virt. eigenvalues --    0.17262   0.18019   0.18982   0.19976   0.21643

 Mulliken charges:
               1
     1  C   -0.405604
     2  C    0.106836
     3  O   -0.292776
     4  C   -0.122259
     5  C    0.153127
     6  C   -0.326237
     7  C   -0.346672
     8  C    0.342781
     9  O   -0.297200
    10  H    0.122398
    11  H    0.134544
    12  H    0.117918
    13  H    0.093305
    14  H    0.116410
    15  H    0.105057
    16  H    0.112098
    17  H    0.116140
    18  H    0.135661
    19  H    0.134473
 Sum of Mulliken charges =   0.00000

 Dipole moment (field-independent basis, Debye):
    X=             -0.3685    Y=              2.7997    Z=              1.2649  Tot=              3.0942
 Quadrupole moment (field-independent basis, Debye-Ang):
   XX=            -57.6387   YY=            -55.3479   ZZ=            -51.7837
   XY=             -1.1190   XZ=             -4.6249   YZ=             -3.2132

  Exact polarizability:  82.688   0.076  74.095  -1.006   0.598  71.025
 Approx polarizability: 111.123   1.347 110.528   2.569   5.660 108.021

                      1                      2                      3
                      A                      A                      A
 Frequencies --     30.5735                69.8537               135.6801
 Red. masses --      2.5129                 3.5603                 3.6448
 Frc consts  --      0.0014                 0.0102                 0.0395
 IR Inten    --      1.7501                 2.8504                 3.2783

                      4                      5                      6
                      A                      A                      A
 Frequencies --    204.1145               238.7745               260.2106
 Red. masses --      2.6437                 1.3221                 2.0375
 Frc consts  --      0.0649                 0.0444                 0.0813
 IR Inten    --      0.9727                 1.2646                 0.8025

                      7                      8                      9
                      A                      A                      A
 Frequencies --    345.5218               424.6312               479.8931
 Red. masses --      2.5530                 3.3017                 3.4737
 Frc consts  --      0.1796                 0.3508                 0.4713
 IR Inten    --      3.8064                 1.7455                 0.4861

                     10                     11                     12
                      A                      A                      A
 Frequencies --    508.0375               587.3111               700.1759
 Red. masses --      2.0090                 4.0759                 5.0314
 Frc consts  --      0.3055                 0.8283                 1.4533
 IR Inten    --      0.0271                 2.7579                 1.4367

                     13                     14                     15
                      A                      A                      A
 Frequencies --    731.8467               775.5803               856.4156
 Red. masses --      1.3637                 2.2505                 2.8183
 Frc consts  --      0.4303                 0.7976                 1.2179
 IR Inten    --      1.0753                 0.8086                 3.9391

                     16                     17                     18
                      A                      A                      A
 Frequencies --    876.7313               886.7134               933.5018
 Red. masses --      2.1569                 2.5307                 2.9803
 Frc consts  --      0.9768                 1.1723                 1.5302
 IR Inten    --      6.3721                19.3549                 3.4664

                     19                     20                     21
                      A                      A                      A
 Frequencies --   1001.4157              1023.2989              1040.5251
 Red. masses --      1.3528                 3.9065                 5.4096
 Frc consts  --      0.7993                 2.4102                 3.4508
 IR Inten    --      1.5023                12.8052               120.0560

                     22                     23                     24
                      A                      A                      A
 Frequencies --   1078.8958              1089.3837              1105.3951
 Red. masses --      1.4936                 3.2646                 2.4361
 Frc consts  --      1.0243                 2.2826                 1.7538
 IR Inten    --      1.8382                77.1964                 8.0616

                     25                     26                     27
                      A                      A                      A
 Frequencies --   1157.5901              1161.6079              1179.8969
 Red. masses --      1.6613                 2.3588                 1.4583
 Frc consts  --      1.3116                 1.8753                 1.1962
 IR Inten    --      5.2706                 3.7383                 6.3014

                     28                     29                     30
                      A                      A                      A
 Frequencies --   1209.7399              1223.0389              1227.4091
 Red. masses --      2.0503                 1.1918                 1.7722
 Frc consts  --      1.7679                 1.0504                 1.5730
 IR Inten    --      5.6710                 0.9842                 1.2211

                     31                     32                     33
                      A                      A                      A
 Frequencies --   1286.2770              1294.3391              1353.4302
 Red. masses --      2.0023                 1.4048                 1.4609
 Frc consts  --      1.9519                 1.3866                 1.5767
 IR Inten    --     12.6488                15.8714                26.3982

                     34                     35                     36
                      A                      A                      A
 Frequencies --   1376.3072              1405.2768              1436.8354
 Red. masses --      1.3074                 1.3224                 1.0932
 Frc consts  --      1.4591                 1.5387                 1.3298
 IR Inten    --     11.3444                13.5347                 5.5752

                     37                     38                     39
                      A                      A                      A
 Frequencies --   1478.9499              1487.1272              1493.2357
 Red. masses --      1.0693                 1.0794                 1.0495
 Frc consts  --      1.3780                 1.4065                 1.3788
 IR Inten    --      4.8805                 0.4255                 3.5241

                     40                     41                     42
                      A                      A                      A
 Frequencies --   1515.1560              1882.6497              3004.4508
 Red. masses --      1.1022                12.7198                 1.0645
 Frc consts  --      1.4909                26.5625                 5.6614
 IR Inten    --      0.3921               226.0214                76.8156

                     43                     44                     45
                      A                      A                      A
 Frequencies --   3011.7826              3035.5204              3054.9082
 Red. masses --      1.0737                 1.0353                 1.1111
 Frc consts  --      5.7381                 5.6206                 6.1093
 IR Inten    --     17.9597                 8.9594                27.1412

                     46                     47                     48
                      A                      A                      A
 Frequencies --   3059.5170              3073.8993              3106.3333
 Red. masses --      1.0590                 1.0599                 1.1056
 Frc consts  --      5.8406                 5.9003                 6.2857
 IR Inten    --     14.5983                19.3326                 2.5216

                     49                     50                     51
                      A                      A                      A
 Frequencies --   3107.4902              3116.6519              3127.3887
 Red. masses --      1.1009                 1.1023                 1.1067
 Frc consts  --      6.2633                 6.3084                 6.3771
 IR Inten    --     13.4808                24.2807                17.6382

 - Thermochemistry -
 -------------------
 Temperature   298.150 Kelvin.  Pressure   1.00000 Atm.
 Atom     1 has atomic number  6 and mass  12.00000

 Molecular mass:   126.06808 amu.
 Principal axes and moments of inertia in atomic units:
                           1         2         3
     Eigenvalues --   712.882991329.533311501.45406
           X            0.99935  -0.00148  -0.03607
           Y           -0.00105   0.99755  -0.06993
           Z            0.03608   0.06992   0.99690
 This molecule is an asymmetric top.
 Rotational symmetry number  1.
 Warning -- assumption of classical behavior for rotation
           may cause significant error
 Rotational temperatures (Kelvin)      0.12150     0.06515     0.05769
 Rotational constants (GHZ):           2.53161     1.35742     1.20200
 Zero-point vibrational energy     414214.7 (Joules/Mol)
                                   98.99969 (Kcal/Mol)
 Warning -- explicit consideration of  11 degrees of freedom as
           vibrations may cause significant error
 Vibrational temperatures:     43.99   100.50   195.21   293.67   343.54
          (Kelvin)            374.38   497.13   610.95   690.46   730.95
                              845.01  1007.40  1052.96  1115.89  1232.19
                             1261.42  1275.78  1343.10  1440.81  1472.30
                             1497.08  1552.29  1567.38  1590.41  1665.51
                             1671.29  1697.61  1740.54  1759.68  1765.97
                             1850.66  1862.26  1947.28  1980.20  2021.88
                             2067.28  2127.88  2139.64  2148.43  2179.97
                             2708.71  4322.73  4333.28  4367.43  4395.33
                             4401.96  4422.65  4469.32  4470.98  4484.16
                             4499.61

 Zero-point correction=                           0.157766 (Hartree/Particle)
 Thermal correction to Energy=                    0.166628
 Thermal correction to Enthalpy=                  0.167572
 Thermal correction to Gibbs Free Energy=         0.123051
 Sum of electronic and zero-point Energies=           -423.017905
 Sum of electronic and thermal Energies=              -423.009044
 Sum of electronic and thermal Enthalpies=            -423.008099
 Sum of electronic and thermal Free Energies=         -423.052620

                     E (Thermal)             CV                S
                      KCal/Mol        Cal/Mol-Kelvin    Cal/Mol-Kelvin
 Total                  104.561             32.393             93.701
 Electronic               0.000              0.000              0.000
 Translational            0.889              2.981             40.409
 Rotational               0.889              2.981             28.744
 Vibrational            102.783             26.432             24.549
 Vibration     1          0.594              1.984              5.792
 Vibration     2          0.598              1.968              4.157
 Vibration     3          0.614              1.918              2.864
 Vibration     4          0.640              1.834              2.096
 Vibration     5          0.657              1.781              1.812
 Vibration     6          0.668              1.745              1.660
 Vibration     7          0.724              1.584              1.187
 Vibration     8          0.787              1.417              0.876
 Vibration     9          0.836              1.295              0.710
 Vibration    10          0.863              1.232              0.638
 Vibration    11          0.944              1.059              0.472

 Optimization completed.
    -- Stationary point found.
 Normal termination of Gaussian 09 at Tue Jan 28 04:46:42 2020.
