 Gaussian 09, Revision D.01,
 Gaussian 09:  ES64L-G09RevD.01 24-Apr-2013

 -----------------------------
 # b3lyp 6-31G(2df,p) opt Freq
 -----------------------------

 -----
 titel
 -----
 Symbolic Z-matrix:
 Charge =  0 Multiplicity = 1

 SCF Done:  E(RB3LYP) =  -423.125500971     A.U. after   13 cycles
 Optimization completed.
    -- Stationary point found.
 Normal termination of Gaussian 09 at Tue Jan 28 01:54:09 2020.

 ----------------------------------------------------------------------
 #N Geom=AllCheck Guess=TCheck SCRF=Check GenChk RB3LYP/6-31G(2df,p) Fr
 eq
 ----------------------------------------------------------------------

 Structure from the checkpoint file:  "/scratch/puck/g09_c336d2f4-f8f6-48ab-8720-d0e639a57bc5/Gau-38040.chk"
 -----
 titel
 -----
 Charge =  0 Multiplicity = 1

                         Standard orientation:
 ---------------------------------------------------------------------
 Center     Atomic      Atomic             Coordinates (Angstroms)
 Number     Number       Type             X           Y           Z
 ---------------------------------------------------------------------
      1          6           0       -0.625728    2.022491    0.006969
      2          6           0       -0.802634    0.540107    0.044382
      3          8           0       -1.927944    0.016758    0.781865
      4          6           0       -1.776013   -0.372823   -0.588182
      5          6           0       -0.764668   -1.531483   -0.622851
      6          6           0        0.245054   -0.569531    0.051492
      7          6           0        1.273933   -0.851512    1.115198
      8          6           0        1.712474   -0.452690   -0.261629
      9          8           0        2.320134    0.804667   -0.368350
     10          1           0       -1.599248    2.508244   -0.099552
     11          1           0       -0.158806    2.383480    0.929240
     12          1           0        0.017037    2.323939   -0.824586
     13          1           0       -2.604726   -0.171932   -1.258298
     14          1           0       -1.061557   -2.417588   -0.055500
     15          1           0       -0.466956   -1.821686   -1.635246
     16          1           0        1.399173   -0.105330    1.893226
     17          1           0        1.429388   -1.876263    1.435549
     18          1           0        2.145544   -1.226099   -0.898196
     19          1           0        2.188115    1.124484   -1.267030
 ---------------------------------------------------------------------

 SCF Done:  E(RB3LYP) =  -423.125500971     A.U. after    1 cycles

 The electronic state is 1-A.
 Alpha  occ. eigenvalues --  -19.14852 -19.14062 -10.23845 -10.23787 -10.23101
 Alpha  occ. eigenvalues --  -10.19652 -10.18881 -10.18370 -10.18181  -1.06826
 Alpha  occ. eigenvalues --   -1.03162  -0.85501  -0.76397  -0.74059  -0.62233
 Alpha  occ. eigenvalues --   -0.60589  -0.59629  -0.54266  -0.51791  -0.49544
 Alpha  occ. eigenvalues --   -0.45760  -0.43186  -0.42394  -0.41923  -0.40562
 Alpha  occ. eigenvalues --   -0.39386  -0.37784  -0.36939  -0.33365  -0.32311
 Alpha  occ. eigenvalues --   -0.30255  -0.27160  -0.25034  -0.24441
 Alpha virt. eigenvalues --    0.06245   0.09529   0.10688   0.11010   0.11646
 Alpha virt. eigenvalues --    0.12762   0.13216   0.14867   0.15653   0.16100
 Alpha virt. eigenvalues --    0.17292   0.19310   0.19895   0.20537   0.22822

 Mulliken charges:
               1
     1  C   -0.496024
     2  C    0.342734
     3  O   -0.288934
     4  C   -0.039209
     5  C   -0.349353
     6  C    0.280088
     7  C   -0.364546
     8  C    0.028714
     9  O   -0.419390
    10  H    0.129812
    11  H    0.136747
    12  H    0.111037
    13  H    0.099625
    14  H    0.111425
    15  H    0.101884
    16  H    0.126947
    17  H    0.115959
    18  H    0.085675
    19  H    0.286810
 Sum of Mulliken charges =   0.00000

 Dipole moment (field-independent basis, Debye):
    X=              0.4704    Y=             -0.1106    Z=             -2.5209  Tot=              2.5668
 Quadrupole moment (field-independent basis, Debye-Ang):
   XX=            -58.4257   YY=            -50.1300   ZZ=            -50.5892
   XY=             -1.3951   XZ=              1.1609   YZ=             -0.9697

  Exact polarizability:  81.061   0.687  78.747   3.719   1.199  67.509
 Approx polarizability: 114.813   4.417 108.384   1.726   2.485 107.379

                      1                      2                      3
                      A                      A                      A
 Frequencies --    106.1467               148.6718               175.5560
 Red. masses --      2.8643                 3.1481                 1.6957
 Frc consts  --      0.0190                 0.0410                 0.0308
 IR Inten    --      1.2558                 0.7906                 0.6070

                      4                      5                      6
                      A                      A                      A
 Frequencies --    204.4654               275.7398               298.0494
 Red. masses --      1.8246                 2.5128                 2.4832
 Frc consts  --      0.0449                 0.1126                 0.1300
 IR Inten    --      7.4785                 8.8296                11.7976

                      7                      8                      9
                      A                      A                      A
 Frequencies --    349.4026               405.1739               441.9037
 Red. masses --      1.2299                 2.5546                 2.6231
 Frc consts  --      0.0885                 0.2471                 0.3018
 IR Inten    --    109.6161                10.8305                 8.3522

                     10                     11                     12
                      A                      A                      A
 Frequencies --    455.4444               579.3654               601.2894
 Red. masses --      2.7132                 4.2501                 3.8478
 Frc consts  --      0.3316                 0.8405                 0.8196
 IR Inten    --      8.8597                 2.6462                11.2448

                     13                     14                     15
                      A                      A                      A
 Frequencies --    654.1627               759.2210               812.2653
 Red. masses --      3.4879                 3.6836                 2.4162
 Frc consts  --      0.8794                 1.2510                 0.9392
 IR Inten    --      2.2578                 4.7641                11.2498

                     16                     17                     18
                      A                      A                      A
 Frequencies --    856.2896               868.1342               889.8639
 Red. masses --      2.7153                 1.6874                 1.9833
 Frc consts  --      1.1730                 0.7493                 0.9253
 IR Inten    --     18.1929                11.3450                 2.7171

                     19                     20                     21
                      A                      A                      A
 Frequencies --    920.9537               966.0255               995.5506
 Red. masses --      2.0337                 1.4413                 2.4682
 Frc consts  --      1.0163                 0.7925                 1.4413
 IR Inten    --      2.8963                 7.8602                 5.8043

                     22                     23                     24
                      A                      A                      A
 Frequencies --   1039.6713              1044.2719              1067.8483
 Red. masses --      1.5327                 1.7451                 2.5429
 Frc consts  --      0.9761                 1.1212                 1.7085
 IR Inten    --      2.3111                 8.1295                 4.2014

                     25                     26                     27
                      A                      A                      A
 Frequencies --   1096.2136              1111.4941              1142.1690
 Red. masses --      1.6918                 1.6921                 2.0548
 Frc consts  --      1.1978                 1.2316                 1.5793
 IR Inten    --      8.3240                26.4410                 2.3592

                     28                     29                     30
                      A                      A                      A
 Frequencies --   1161.1231              1176.3361              1211.9745
 Red. masses --      1.4172                 2.3336                 1.9992
 Frc consts  --      1.1258                 1.9025                 1.7302
 IR Inten    --      2.0060                29.9532                20.1003

                     31                     32                     33
                      A                      A                      A
 Frequencies --   1247.3866              1261.9791              1291.1199
 Red. masses --      1.6701                 1.4873                 1.3403
 Frc consts  --      1.5311                 1.3955                 1.3164
 IR Inten    --      8.6924                15.2441                83.7414

                     34                     35                     36
                      A                      A                      A
 Frequencies --   1352.7594              1402.8464              1426.8347
 Red. masses --      2.1710                 1.3052                 1.2877
 Frc consts  --      2.3407                 1.5134                 1.5445
 IR Inten    --     12.1745                 1.6702                 2.8866

                     37                     38                     39
                      A                      A                      A
 Frequencies --   1452.5842              1473.0562              1483.9798
 Red. masses --      2.0030                 1.0975                 1.4111
 Frc consts  --      2.4900                 1.4032                 1.8309
 IR Inten    --     13.3075                 2.0503                22.3220

                     40                     41                     42
                      A                      A                      A
 Frequencies --   1487.6658              1492.3994              3042.1856
 Red. masses --      1.0881                 2.2354                 1.0355
 Frc consts  --      1.4188                 2.9334                 5.6467
 IR Inten    --      1.3624                 7.3155                20.5548

                     43                     44                     45
                      A                      A                      A
 Frequencies --   3050.2851              3083.6439              3105.9771
 Red. masses --      1.0574                 1.0872                 1.0996
 Frc consts  --      5.7966                 6.0909                 6.2502
 IR Inten    --     30.9271                38.6501                12.8238

                     46                     47                     48
                      A                      A                      A
 Frequencies --   3106.4590              3125.0426              3129.5837
 Red. masses --      1.1078                 1.1019                 1.0545
 Frc consts  --      6.2986                 6.3405                 6.0850
 IR Inten    --     21.3251                17.0098                 8.1710

                     49                     50                     51
                      A                      A                      A
 Frequencies --   3178.0934              3217.8362              3805.8037
 Red. masses --      1.0940                 1.1167                 1.0661
 Frc consts  --      6.5101                 6.8126                 9.0983
 IR Inten    --     25.4832                 5.0702                17.1344

 - Thermochemistry -
 -------------------
 Temperature   298.150 Kelvin.  Pressure   1.00000 Atm.
 Atom     1 has atomic number  6 and mass  12.00000

 Molecular mass:   126.06808 amu.
 Principal axes and moments of inertia in atomic units:
                           1         2         3
     Eigenvalues --   683.103041189.562031512.40962
           X            0.99955  -0.02430   0.01738
           Y            0.02428   0.99970   0.00099
           Z           -0.01740  -0.00056   0.99985
 This molecule is an asymmetric top.
 Rotational symmetry number  1.
 Warning -- assumption of classical behavior for rotation
           may cause significant error
 Rotational temperatures (Kelvin)      0.12679     0.07281     0.05727
 Rotational constants (GHZ):           2.64198     1.51715     1.19329
 Zero-point vibrational energy     412904.8 (Joules/Mol)
                                   98.68662 (Kcal/Mol)
 Warning -- explicit consideration of  12 degrees of freedom as
           vibrations may cause significant error
 Vibrational temperatures:    152.72   213.91   252.59   294.18   396.73
          (Kelvin)            428.83   502.71   582.95   635.80   655.28
                              833.58   865.12   941.19  1092.35  1168.67
                             1232.01  1249.05  1280.31  1325.05  1389.89
                             1432.37  1495.85  1502.47  1536.39  1577.20
                             1599.19  1643.32  1670.60  1692.48  1743.76
                             1794.71  1815.70  1857.63  1946.32  2018.38
                             2052.89  2089.94  2119.40  2135.11  2140.42
                             2147.23  4377.02  4388.67  4436.67  4468.80
                             4469.50  4496.23  4502.77  4572.56  4629.74
                             5475.70

 Zero-point correction=                           0.157267 (Hartree/Particle)
 Thermal correction to Energy=                    0.165935
 Thermal correction to Enthalpy=                  0.166880
 Thermal correction to Gibbs Free Energy=         0.124357
 Sum of electronic and zero-point Energies=           -422.968234
 Sum of electronic and thermal Energies=              -422.959566
 Sum of electronic and thermal Enthalpies=            -422.958621
 Sum of electronic and thermal Free Energies=         -423.001144

                     E (Thermal)             CV                S
                      KCal/Mol        Cal/Mol-Kelvin    Cal/Mol-Kelvin
 Total                  104.126             33.594             89.496
 Electronic               0.000              0.000              0.000
 Translational            0.889              2.981             40.409
 Rotational               0.889              2.981             28.598
 Vibrational            102.349             27.633             20.489
 Vibration     1          0.605              1.944              3.338
 Vibration     2          0.618              1.904              2.689
 Vibration     3          0.628              1.873              2.375
 Vibration     4          0.640              1.834              2.093
 Vibration     5          0.677              1.718              1.560
 Vibration     6          0.691              1.677              1.428
 Vibration     7          0.727              1.576              1.169
 Vibration     8          0.770              1.459              0.944
 Vibration     9          0.802              1.379              0.821
 Vibration    10          0.814              1.349              0.779
 Vibration    11          0.936              1.076              0.487
 Vibration    12          0.960              1.029              0.447

 Normal termination of Gaussian 09 at Tue Jan 28 02:44:36 2020.
