 Gaussian 09, Revision D.01,
 Gaussian 09:  ES64L-G09RevD.01 24-Apr-2013

 -----------------------------
 # b3lyp 6-31G(2df,p) opt Freq
 -----------------------------

 -----
 titel
 -----
 Symbolic Z-matrix:
 Charge =  0 Multiplicity = 1

 SCF Done:  E(RB3LYP) =  -423.139303538     A.U. after   13 cycles
 Optimization completed.
    -- Stationary point found.
 Normal termination of Gaussian 09 at Tue Jan 28 02:51:57 2020.

 ----------------------------------------------------------------------
 #N Geom=AllCheck Guess=TCheck SCRF=Check GenChk RB3LYP/6-31G(2df,p) Fr
 eq
 ----------------------------------------------------------------------

 Structure from the checkpoint file:  "/scratch/puck/g09_6eedd2ab-4d16-4314-9708-f5c4194d9b73/Gau-112744.chk"
 -----
 titel
 -----
 Charge =  0 Multiplicity = 1

                         Standard orientation:
 ---------------------------------------------------------------------
 Center     Atomic      Atomic             Coordinates (Angstroms)
 Number     Number       Type             X           Y           Z
 ---------------------------------------------------------------------
      1          8           0        2.652953   -0.627447   -0.060399
      2          6           0        1.396619   -0.236655   -0.552993
      3          6           0        0.971993    1.283633   -0.527097
      4          6           0       -0.299868    0.845149    0.200695
      5          6           0       -0.020524    0.183972    1.511354
      6          6           0        0.117896   -0.613571    0.219818
      7          6           0       -1.087947   -1.376053   -0.282915
      8          6           0       -2.221335   -0.294451   -0.232086
      9          8           0       -1.596944    1.002226   -0.270839
     10          1           0        2.668031   -0.462273    0.888167
     11          1           0        1.350350   -0.622957   -1.574598
     12          1           0        1.627364    1.968766    0.019226
     13          1           0        0.784595    1.683950   -1.524628
     14          1           0        0.859067    0.459312    2.089135
     15          1           0       -0.877451   -0.067835    2.125591
     16          1           0       -0.911027   -1.701035   -1.313470
     17          1           0       -1.369150   -2.259049    0.299059
     18          1           0       -2.917824   -0.353817   -1.073101
     19          1           0       -2.803039   -0.395427    0.693869
 ---------------------------------------------------------------------

 SCF Done:  E(RB3LYP) =  -423.139303538     A.U. after    1 cycles

 The electronic state is 1-A.
 Alpha  occ. eigenvalues --  -19.14803 -19.13633 -10.24036 -10.23473 -10.23408
 Alpha  occ. eigenvalues --  -10.19778 -10.19565 -10.18679 -10.18577  -1.04925
 Alpha  occ. eigenvalues --   -1.02023  -0.88577  -0.76680  -0.72942  -0.65111
 Alpha  occ. eigenvalues --   -0.63599  -0.58176  -0.53853  -0.50993  -0.48143
 Alpha  occ. eigenvalues --   -0.47228  -0.44136  -0.43508  -0.41626  -0.41326
 Alpha  occ. eigenvalues --   -0.39463  -0.37961  -0.36922  -0.34067  -0.33581
 Alpha  occ. eigenvalues --   -0.30512  -0.27039  -0.26172  -0.21904
 Alpha virt. eigenvalues --    0.06777   0.08242   0.08920   0.10585   0.11499
 Alpha virt. eigenvalues --    0.13332   0.13927   0.15096   0.16787   0.17014
 Alpha virt. eigenvalues --    0.17445   0.18782   0.19926   0.21794   0.22915

 Mulliken charges:
               1
     1  O   -0.427672
     2  C    0.087299
     3  C   -0.344294
     4  C    0.392887
     5  C   -0.412965
     6  C    0.162038
     7  C   -0.324733
     8  C   -0.097656
     9  O   -0.292029
    10  H    0.280537
    11  H    0.096380
    12  H    0.098197
    13  H    0.116186
    14  H    0.101105
    15  H    0.124768
    16  H    0.111781
    17  H    0.108043
    18  H    0.115108
    19  H    0.105019
 Sum of Mulliken charges =   0.00000

 Dipole moment (field-independent basis, Debye):
    X=             -0.8476    Y=             -0.7209    Z=              0.8505  Tot=              1.4005
 Quadrupole moment (field-independent basis, Debye-Ang):
   XX=            -56.5135   YY=            -55.7851   ZZ=            -49.4605
   XY=              5.9660   XZ=              2.6762   YZ=              0.2804

  Exact polarizability:  82.184   5.278  67.728   1.440   0.731  71.109
 Approx polarizability: 111.721   1.438 106.139   2.701   0.621 108.454

                      1                      2                      3
                      A                      A                      A
 Frequencies --    126.1466               186.4892               217.9047
 Red. masses --      3.4459                 2.1434                 1.3597
 Frc consts  --      0.0323                 0.0439                 0.0380
 IR Inten    --      3.3748                 4.1108                40.5171

                      4                      5                      6
                      A                      A                      A
 Frequencies --    266.3997               309.2252               381.5014
 Red. masses --      2.8309                 2.2155                 4.2245
 Frc consts  --      0.1184                 0.1248                 0.3623
 IR Inten    --      5.9832                34.7793                 5.1229

                      7                      8                      9
                      A                      A                      A
 Frequencies --    423.7981               466.1330               574.6186
 Red. masses --      2.0468                 2.6045                 3.8013
 Frc consts  --      0.2166                 0.3334                 0.7395
 IR Inten    --      2.0521                 1.0698                11.3545

                     10                     11                     12
                      A                      A                      A
 Frequencies --    646.0629               654.2641               708.3502
 Red. masses --      2.7593                 3.6303                 3.0730
 Frc consts  --      0.6786                 0.9156                 0.9085
 IR Inten    --     19.0675                 4.8451                 1.6518

                     13                     14                     15
                      A                      A                      A
 Frequencies --    809.7624               832.6064               847.5715
 Red. masses --      2.6368                 2.8573                 2.0649
 Frc consts  --      1.0187                 1.1671                 0.8740
 IR Inten    --      3.6086                 4.2130                 9.2197

                     16                     17                     18
                      A                      A                      A
 Frequencies --    854.9924               910.8267               928.7082
 Red. masses --      3.7862                 2.7861                 1.6107
 Frc consts  --      1.6307                 1.3618                 0.8185
 IR Inten    --     19.5228                12.5602                 0.6184

                     19                     20                     21
                      A                      A                      A
 Frequencies --    950.9237               961.3590              1011.8373
 Red. masses --      1.8233                 2.3631                 3.3099
 Frc consts  --      0.9714                 1.2868                 1.9966
 IR Inten    --     17.2698                 1.5863                43.2040

                     22                     23                     24
                      A                      A                      A
 Frequencies --   1030.9660              1059.4946              1089.8078
 Red. masses --      1.9134                 1.3591                 1.4674
 Frc consts  --      1.1982                 0.8989                 1.0268
 IR Inten    --     19.9294                 1.4140                 6.2125

                     25                     26                     27
                      A                      A                      A
 Frequencies --   1115.5080              1151.9249              1189.8652
 Red. masses --      2.8200                 2.2833                 1.3864
 Frc consts  --      2.0675                 1.7851                 1.1565
 IR Inten    --    207.2339                 3.9324                 8.4205

                     28                     29                     30
                      A                      A                      A
 Frequencies --   1219.0703              1229.7951              1240.2138
 Red. masses --      1.4453                 1.2632                 1.4354
 Frc consts  --      1.2655                 1.1256                 1.3008
 IR Inten    --      6.8987                 9.9875                 8.2977

                     31                     32                     33
                      A                      A                      A
 Frequencies --   1267.2790              1285.4093              1318.3154
 Red. masses --      1.6243                 1.8662                 2.1772
 Frc consts  --      1.5370                 1.8167                 2.2294
 IR Inten    --      9.5943                11.8825                18.8042

                     34                     35                     36
                      A                      A                      A
 Frequencies --   1325.2535              1361.2517              1393.6812
 Red. masses --      1.7882                 2.4491                 1.5878
 Frc consts  --      1.8504                 2.6739                 1.8170
 IR Inten    --     10.2434                18.5870                29.4294

                     37                     38                     39
                      A                      A                      A
 Frequencies --   1433.6782              1472.1115              1490.8198
 Red. masses --      1.2400                 1.1194                 1.1513
 Frc consts  --      1.5016                 1.4293                 1.5076
 IR Inten    --     55.2821                 7.2401                 6.8553

                     40                     41                     42
                      A                      A                      A
 Frequencies --   1496.7397              1525.5992              3013.2160
 Red. masses --      1.2145                 1.0917                 1.0688
 Frc consts  --      1.6030                 1.4971                 5.7177
 IR Inten    --      3.2525                 1.0111                50.0692

                     43                     44                     45
                      A                      A                      A
 Frequencies --   3046.7181              3055.3030              3075.0827
 Red. masses --      1.0597                 1.0630                 1.0876
 Frc consts  --      5.7956                 5.8464                 6.0595
 IR Inten    --     34.9660                36.0563                21.1342

                     46                     47                     48
                      A                      A                      A
 Frequencies --   3081.6541              3095.5499              3108.0473
 Red. masses --      1.0973                 1.1040                 1.0611
 Frc consts  --      6.1399                 6.2327                 6.0391
 IR Inten    --     25.3676                37.0346                19.0777

                     49                     50                     51
                      A                      A                      A
 Frequencies --   3127.9526              3209.7991              3810.3000
 Red. masses --      1.1029                 1.1099                 1.0657
 Frc consts  --      6.3580                 6.7372                 9.1159
 IR Inten    --     16.6901                 6.6101                11.8596

 - Thermochemistry -
 -------------------
 Temperature   298.150 Kelvin.  Pressure   1.00000 Atm.
 Atom     1 has atomic number  8 and mass  15.99491

 Molecular mass:   126.06808 amu.
 Principal axes and moments of inertia in atomic units:
                           1         2         3
     Eigenvalues --   542.385891259.270391399.09309
           X            0.99884   0.04789   0.00460
           Y           -0.04795   0.99875   0.01390
           Z           -0.00393  -0.01410   0.99989
 This molecule is an asymmetric top.
 Rotational symmetry number  1.
 Warning -- assumption of classical behavior for rotation
           may cause significant error
 Rotational temperatures (Kelvin)      0.15969     0.06878     0.06191
 Rotational constants (GHZ):           3.32741     1.43316     1.28994
 Zero-point vibrational energy     421025.0 (Joules/Mol)
                                  100.62740 (Kcal/Mol)
 Warning -- explicit consideration of   9 degrees of freedom as
           vibrations may cause significant error
 Vibrational temperatures:    181.50   268.32   313.52   383.29   444.91
          (Kelvin)            548.89   609.75   670.66   826.75   929.54
                              941.34  1019.16  1165.07  1197.93  1219.46
                             1230.14  1310.47  1336.20  1368.17  1383.18
                             1455.81  1483.33  1524.37  1567.99  1604.97
                             1657.36  1711.95  1753.97  1769.40  1784.39
                             1823.33  1849.42  1896.76  1906.74  1958.54
                             2005.19  2062.74  2118.04  2144.95  2153.47
                             2194.99  4335.34  4383.54  4395.89  4424.35
                             4433.81  4453.80  4471.78  4500.42  4618.18
                             5482.16

 Zero-point correction=                           0.160360 (Hartree/Particle)
 Thermal correction to Energy=                    0.168063
 Thermal correction to Enthalpy=                  0.169007
 Thermal correction to Gibbs Free Energy=         0.128541
 Sum of electronic and zero-point Energies=           -422.978944
 Sum of electronic and thermal Energies=              -422.971240
 Sum of electronic and thermal Enthalpies=            -422.970296
 Sum of electronic and thermal Free Energies=         -423.010762

                     E (Thermal)             CV                S
                      KCal/Mol        Cal/Mol-Kelvin    Cal/Mol-Kelvin
 Total                  105.461             30.950             85.168
 Electronic               0.000              0.000              0.000
 Translational            0.889              2.981             40.409
 Rotational               0.889              2.981             28.348
 Vibrational            103.684             24.989             16.411
 Vibration     1          0.611              1.927              3.004
 Vibration     2          0.632              1.858              2.262
 Vibration     3          0.646              1.814              1.976
 Vibration     4          0.672              1.735              1.619
 Vibration     5          0.699              1.656              1.366
 Vibration     6          0.751              1.510              1.033
 Vibration     7          0.786              1.418              0.879
 Vibration     8          0.823              1.325              0.748
 Vibration     9          0.931              1.086              0.495

 Normal termination of Gaussian 09 at Tue Jan 28 03:41:17 2020.
 Normal termination of Gaussian 09 at Tue Jan 28 02:45:07 2020.
