 Gaussian 09, Revision D.01,
 Gaussian 09:  ES64L-G09RevD.01 24-Apr-2013

 -----------------------------
 # b3lyp 6-31G(2df,p) opt Freq
 -----------------------------

 -----
 titel
 -----
 Symbolic Z-matrix:
 Charge =  0 Multiplicity = 1

 SCF Done:  E(RB3LYP) =  -423.155300887     A.U. after   13 cycles
 Optimization completed.
    -- Stationary point found.
 Normal termination of Gaussian 09 at Mon Jan 27 17:03:38 2020.

 ----------------------------------------------------------------------
 #N Geom=AllCheck Guess=TCheck SCRF=Check GenChk RB3LYP/6-31G(2df,p) Fr
 eq
 ----------------------------------------------------------------------

 Structure from the checkpoint file:  "/scratch/puck/g09_493de64c-9b51-44ae-b664-640ea12fab4b/Gau-167356.chk"
 -----
 titel
 -----
 Charge =  0 Multiplicity = 1

                         Standard orientation:
 ---------------------------------------------------------------------
 Center     Atomic      Atomic             Coordinates (Angstroms)
 Number     Number       Type             X           Y           Z
 ---------------------------------------------------------------------
      1          8           0        1.694400   -1.235975    0.924809
      2          6           0        0.920048   -0.309385    0.254117
      3          6           0        1.162237    0.558192   -0.999468
      4          6           0        0.395359    1.707920   -0.351113
      5          6           0        0.059377    0.801923    0.888619
      6          6           0       -1.418243    0.415118    1.078940
      7          6           0       -1.803203   -0.690251    0.078258
      8          8           0       -1.129786   -0.530476   -1.170406
      9          6           0        0.259106   -0.659811   -1.027982
     10          1           0        2.361987   -0.761272    1.433002
     11          1           0        2.020073    0.636590   -1.656331
     12          1           0        1.037177    2.549413   -0.080745
     13          1           0       -0.467749    2.077404   -0.911182
     14          1           0        0.489562    1.208562    1.807249
     15          1           0       -1.603845    0.054495    2.097022
     16          1           0       -2.045727    1.302150    0.936341
     17          1           0       -1.558162   -1.676016    0.499967
     18          1           0       -2.872315   -0.676649   -0.147988
     19          1           0        0.673997   -1.525303   -1.540779
 ---------------------------------------------------------------------

 SCF Done:  E(RB3LYP) =  -423.155300887     A.U. after    1 cycles

 The electronic state is 1-A.
 Alpha  occ. eigenvalues --  -19.15222 -19.13516 -10.23588 -10.22525 -10.22247
 Alpha  occ. eigenvalues --  -10.19185 -10.18401 -10.18260 -10.17970  -1.04240
 Alpha  occ. eigenvalues --   -1.02620  -0.87874  -0.77819  -0.70073  -0.65793
 Alpha  occ. eigenvalues --   -0.62149  -0.56266  -0.53893  -0.52449  -0.49042
 Alpha  occ. eigenvalues --   -0.46619  -0.44094  -0.42166  -0.41052  -0.40181
 Alpha  occ. eigenvalues --   -0.39322  -0.37334  -0.35297  -0.33149  -0.32505
 Alpha  occ. eigenvalues --   -0.30460  -0.26303  -0.25237  -0.23224
 Alpha virt. eigenvalues --    0.07360   0.09342   0.10242   0.12066   0.12598
 Alpha virt. eigenvalues --    0.14087   0.15050   0.15281   0.16638   0.16989
 Alpha virt. eigenvalues --    0.18080   0.18975   0.21080   0.22455   0.23200

 Mulliken charges:
               1
     1  O   -0.461326
     2  C    0.326141
     3  C   -0.184927
     4  C   -0.233446
     5  C   -0.090099
     6  C   -0.234680
     7  C   -0.070153
     8  O   -0.259529
     9  C    0.064935
    10  H    0.284414
    11  H    0.086893
    12  H    0.096652
    13  H    0.106242
    14  H    0.066482
    15  H    0.098440
    16  H    0.103296
    17  H    0.100976
    18  H    0.104766
    19  H    0.094923
 Sum of Mulliken charges =   0.00000

 Dipole moment (field-independent basis, Debye):
    X=              0.9326    Y=              1.1655    Z=              1.6178  Tot=              2.2012
 Quadrupole moment (field-independent basis, Debye-Ang):
   XX=            -48.8148   YY=            -54.7122   ZZ=            -53.1830
   XY=              1.6993   XZ=             -0.7222   YZ=              1.0361

  Exact polarizability:  78.215   1.563  72.247  -2.934  -0.184  70.608
 Approx polarizability: 108.713   0.886 106.342   0.215  -2.756 108.492

                      1                      2                      3
                      A                      A                      A
 Frequencies --    176.8932               197.0609               290.9726
 Red. masses --      2.1741                 3.1330                 2.1806
 Frc consts  --      0.0401                 0.0717                 0.1088
 IR Inten    --      1.1392                 2.4634                19.6501

                      4                      5                      6
                      A                      A                      A
 Frequencies --    300.4079               347.9629               395.7877
 Red. masses --      2.9458                 1.4511                 2.7898
 Frc consts  --      0.1566                 0.1035                 0.2575
 IR Inten    --      1.3230                58.1289                25.0985

                      7                      8                      9
                      A                      A                      A
 Frequencies --    476.1179               492.3733               545.8795
 Red. masses --      3.1986                 3.5138                 3.9949
 Frc consts  --      0.4272                 0.5019                 0.7014
 IR Inten    --      2.4677                 7.9891                 1.8080

                     10                     11                     12
                      A                      A                      A
 Frequencies --    608.6086               698.4046               780.3944
 Red. masses --      3.0194                 4.4266                 2.2863
 Frc consts  --      0.6589                 1.2721                 0.8204
 IR Inten    --      3.5626                 6.2933                 6.4288

                     13                     14                     15
                      A                      A                      A
 Frequencies --    811.1774               828.8557               861.8834
 Red. masses --      1.8711                 2.8153                 2.6089
 Frc consts  --      0.7254                 1.1395                 1.1418
 IR Inten    --      7.9446                 2.8231                 4.5338

                     16                     17                     18
                      A                      A                      A
 Frequencies --    898.5856               928.1098               942.0657
 Red. masses --      2.7505                 1.8763                 1.9887
 Frc consts  --      1.3085                 0.9522                 1.0399
 IR Inten    --     11.4681                 3.4300                 7.2134

                     19                     20                     21
                      A                      A                      A
 Frequencies --    989.5335              1014.3559              1043.6307
 Red. masses --      1.7013                 2.2457                 2.1207
 Frc consts  --      0.9815                 1.3614                 1.3609
 IR Inten    --      3.6554                25.2500                 5.9462

                     22                     23                     24
                      A                      A                      A
 Frequencies --   1058.9256              1084.4330              1106.6081
 Red. masses --      1.7553                 2.0009                 2.1753
 Frc consts  --      1.1596                 1.3864                 1.5695
 IR Inten    --     10.9778                 4.5517                47.5130

                     25                     26                     27
                      A                      A                      A
 Frequencies --   1125.4084              1153.6408              1190.9755
 Red. masses --      3.4285                 1.3695                 1.5274
 Frc consts  --      2.5584                 1.0739                 1.2764
 IR Inten    --     62.0949                 4.5494                12.8421

                     28                     29                     30
                      A                      A                      A
 Frequencies --   1196.2597              1240.2048              1252.0981
 Red. masses --      1.9655                 1.9018                 1.4272
 Frc consts  --      1.6572                 1.7235                 1.3183
 IR Inten    --     30.1942                31.7377                 3.6763

                     31                     32                     33
                      A                      A                      A
 Frequencies --   1281.4318              1288.7635              1304.9189
 Red. masses --      1.4782                 1.5140                 1.7615
 Frc consts  --      1.4301                 1.4816                 1.7673
 IR Inten    --     28.2906                 1.0494               107.6825

                     34                     35                     36
                      A                      A                      A
 Frequencies --   1325.3677              1343.4462              1369.2054
 Red. masses --      1.3755                 1.2604                 1.4888
 Frc consts  --      1.4236                 1.3403                 1.6445
 IR Inten    --      1.8234                 9.9413                16.1419

                     37                     38                     39
                      A                      A                      A
 Frequencies --   1409.8808              1471.9058              1483.4782
 Red. masses --      1.2977                 1.5824                 1.1238
 Frc consts  --      1.5198                 2.0199                 1.4572
 IR Inten    --      6.1598                 5.0851                 2.4179

                     40                     41                     42
                      A                      A                      A
 Frequencies --   1498.1993              1506.0741              2996.1304
 Red. masses --      1.2315                 1.3792                 1.0700
 Frc consts  --      1.6286                 1.8432                 5.6591
 IR Inten    --      7.3425                15.9534                45.2771

                     43                     44                     45
                      A                      A                      A
 Frequencies --   3033.2507              3057.8942              3069.4946
 Red. masses --      1.0602                 1.0607                 1.0914
 Frc consts  --      5.7474                 5.8434                 6.0587
 IR Inten    --     27.3133                27.5553                40.1441

                     46                     47                     48
                      A                      A                      A
 Frequencies --   3075.7983              3097.5517              3112.7416
 Red. masses --      1.0940                 1.0968                 1.1075
 Frc consts  --      6.0981                 6.2006                 6.3223
 IR Inten    --     31.5359                39.3785                29.1342

                     49                     50                     51
                      A                      A                      A
 Frequencies --   3134.1227              3186.9059              3788.0665
 Red. masses --      1.0880                 1.0933                 1.0659
 Frc consts  --      6.2966                 6.5420                 9.0116
 IR Inten    --     18.4726                19.0055                17.9496

 - Thermochemistry -
 -------------------
 Temperature   298.150 Kelvin.  Pressure   1.00000 Atm.
 Atom     1 has atomic number  8 and mass  15.99491

 Molecular mass:   126.06808 amu.
 Principal axes and moments of inertia in atomic units:
                           1         2         3
     Eigenvalues --   759.579841038.473101065.86628
           X            0.99748   0.03831  -0.05972
           Y           -0.03207   0.99425   0.10219
           Z            0.06329  -0.10001   0.99297
 This molecule is an asymmetric top.
 Rotational symmetry number  1.
 Warning -- assumption of classical behavior for rotation
           may cause significant error
 Rotational temperatures (Kelvin)      0.11403     0.08340     0.08126
 Rotational constants (GHZ):           2.37597     1.73788     1.69322
 Zero-point vibrational energy     423910.2 (Joules/Mol)
                                  101.31696 (Kcal/Mol)
 Warning -- explicit consideration of  10 degrees of freedom as
           vibrations may cause significant error
 Vibrational temperatures:    254.51   283.53   418.64   432.22   500.64
          (Kelvin)            569.45   685.03   708.41   785.40   875.65
                             1004.85  1122.81  1167.10  1192.54  1240.06
                             1292.86  1335.34  1355.42  1423.72  1459.43
                             1501.55  1523.56  1560.26  1592.16  1619.21
                             1659.83  1713.55  1721.15  1784.38  1801.49
                             1843.69  1854.24  1877.48  1906.91  1932.92
                             1969.98  2028.50  2117.74  2134.39  2155.57
                             2166.90  4310.76  4364.17  4399.62  4416.31
                             4425.38  4456.68  4478.54  4509.30  4585.24
                             5450.18

 Zero-point correction=                           0.161459 (Hartree/Particle)
 Thermal correction to Energy=                    0.168737
 Thermal correction to Enthalpy=                  0.169681
 Thermal correction to Gibbs Free Energy=         0.130255
 Sum of electronic and zero-point Energies=           -422.993842
 Sum of electronic and thermal Energies=              -422.986564
 Sum of electronic and thermal Enthalpies=            -422.985620
 Sum of electronic and thermal Free Energies=         -423.025046

                     E (Thermal)             CV                S
                      KCal/Mol        Cal/Mol-Kelvin    Cal/Mol-Kelvin
 Total                  105.884             30.035             82.979
 Electronic               0.000              0.000              0.000
 Translational            0.889              2.981             40.409
 Rotational               0.889              2.981             28.221
 Vibrational            104.106             24.073             14.349
 Vibration     1          0.628              1.871              2.361
 Vibration     2          0.636              1.844              2.160
 Vibration     3          0.687              1.691              1.468
 Vibration     4          0.693              1.673              1.415
 Vibration     5          0.726              1.579              1.175
 Vibration     6          0.763              1.479              0.978
 Vibration     7          0.833              1.303              0.721
 Vibration     8          0.848              1.267              0.677
 Vibration     9          0.901              1.149              0.553
 Vibration    10          0.967              1.014              0.435

 Optimization completed.
    -- Stationary point found.
 Normal termination of Gaussian 09 at Mon Jan 27 17:50:19 2020.
