 Gaussian 09, Revision D.01,
 Gaussian 09:  ES64L-G09RevD.01 24-Apr-2013

 -----------------------------
 # b3lyp 6-31G(2df,p) opt Freq
 -----------------------------

 -----
 titel
 -----
 Symbolic Z-matrix:
 Charge =  0 Multiplicity = 1

 SCF Done:  E(RB3LYP) =  -423.176651010     A.U. after   13 cycles
 Optimization completed.
    -- Stationary point found.
 Normal termination of Gaussian 09 at Mon Jan 27 18:57:34 2020.

 ----------------------------------------------------------------------
 #N Geom=AllCheck Guess=TCheck SCRF=Check GenChk RB3LYP/6-31G(2df,p) Fr
 eq
 ----------------------------------------------------------------------

 Structure from the checkpoint file:  "/scratch/puck/g09_184127ce-d94b-4a4f-bb92-dc4d2b0c73d2/Gau-183462.chk"
 -----
 titel
 -----
 Charge =  0 Multiplicity = 1

                         Standard orientation:
 ---------------------------------------------------------------------
 Center     Atomic      Atomic             Coordinates (Angstroms)
 Number     Number       Type             X           Y           Z
 ---------------------------------------------------------------------
      1          8           0       -1.761382   -1.332702   -0.324189
      2          6           0       -0.799619   -0.357972   -0.019620
      3          6           0       -1.291464    1.101441   -0.026963
      4          8           0       -0.073873    1.854629    0.038242
      5          6           0        0.960675    0.953137   -0.321361
      6          6           0        1.400035   -0.125805    0.740627
      7          6           0        1.540974   -1.099684   -0.461971
      8          6           0        0.368692   -0.280387   -1.041197
      9          6           0        0.024678   -0.543262    1.296316
     10          1           0       -2.380563   -1.388158    0.411367
     11          1           0       -1.848507    1.334046   -0.946510
     12          1           0       -1.917244    1.349883    0.838720
     13          1           0        1.776680    1.490339   -0.804543
     14          1           0        2.210411    0.042286    1.449968
     15          1           0        2.463082   -0.953461   -1.030035
     16          1           0        1.383926   -2.163929   -0.271134
     17          1           0        0.087688   -0.281098   -2.093764
     18          1           0        0.016967   -1.585355    1.629948
     19          1           0       -0.334232    0.095212    2.108564
 ---------------------------------------------------------------------

 SCF Done:  E(RB3LYP) =  -423.176651010     A.U. after    1 cycles

 The electronic state is 1-A.
 Alpha  occ. eigenvalues --  -19.14424 -19.13587 -10.23894 -10.23041 -10.22145
 Alpha  occ. eigenvalues --  -10.19037 -10.18593 -10.18408 -10.18112  -1.04305
 Alpha  occ. eigenvalues --   -1.02268  -0.87635  -0.74608  -0.70594  -0.66532
 Alpha  occ. eigenvalues --   -0.61969  -0.56118  -0.54870  -0.52672  -0.49270
 Alpha  occ. eigenvalues --   -0.47143  -0.44511  -0.43106  -0.40459  -0.38683
 Alpha  occ. eigenvalues --   -0.37486  -0.36396  -0.35122  -0.34588  -0.31990
 Alpha  occ. eigenvalues --   -0.31673  -0.28691  -0.26641  -0.23707
 Alpha virt. eigenvalues --    0.06694   0.10104   0.10765   0.12815   0.13063
 Alpha virt. eigenvalues --    0.14127   0.14813   0.15967   0.16557   0.17033
 Alpha virt. eigenvalues --    0.18770   0.18881   0.20701   0.21433   0.22961

 Mulliken charges:
               1
     1  O   -0.503667
     2  C    0.380836
     3  C   -0.128979
     4  O   -0.281172
     5  C    0.144451
     6  C   -0.066834
     7  C   -0.257538
     8  C   -0.092554
     9  C   -0.278264
    10  H    0.278890
    11  H    0.094932
    12  H    0.093688
    13  H    0.083663
    14  H    0.062823
    15  H    0.099882
    16  H    0.103219
    17  H    0.072330
    18  H    0.097409
    19  H    0.096886
 Sum of Mulliken charges =   0.00000

 Dipole moment (field-independent basis, Debye):
    X=             -0.1333    Y=             -0.8117    Z=              0.8946  Tot=              1.2153
 Quadrupole moment (field-independent basis, Debye-Ang):
   XX=            -48.4804   YY=            -58.4945   ZZ=            -52.0478
   XY=             -0.2106   XZ=             -3.6605   YZ=             -2.6472

  Exact polarizability:  80.482  -2.433  69.619  -2.205  -1.179  69.261
 Approx polarizability: 113.013  -0.212 105.400  -2.298   0.416 105.111

                      1                      2                      3
                      A                      A                      A
 Frequencies --    230.2956               252.5824               278.1574
 Red. masses --      2.4209                 1.2203                 3.0482
 Frc consts  --      0.0756                 0.0459                 0.1390
 IR Inten    --      2.3027                84.1933                 7.6808

                      4                      5                      6
                      A                      A                      A
 Frequencies --    359.8299               424.4002               443.9796
 Red. masses --      4.0111                 2.9864                 2.6867
 Frc consts  --      0.3060                 0.3169                 0.3120
 IR Inten    --      6.1260                 8.4394                 5.6868

                      7                      8                      9
                      A                      A                      A
 Frequencies --    456.6654               588.4391               616.9386
 Red. masses --      1.7855                 4.0560                 5.1997
 Frc consts  --      0.2194                 0.8275                 1.1660
 IR Inten    --      0.9145                 0.7652                 1.3787

                     10                     11                     12
                      A                      A                      A
 Frequencies --    688.7518               764.9960               798.3695
 Red. masses --      5.3169                 3.3573                 3.5398
 Frc consts  --      1.4861                 1.1576                 1.3293
 IR Inten    --      5.4345                 2.3069                 0.5375

                     13                     14                     15
                      A                      A                      A
 Frequencies --    826.8233               865.4853               882.9566
 Red. masses --      2.7756                 2.0230                 1.9937
 Frc consts  --      1.1180                 0.8928                 0.9158
 IR Inten    --      4.0645                 2.7466                 5.6459

                     16                     17                     18
                      A                      A                      A
 Frequencies --    937.3931               959.5386               981.0903
 Red. masses --      1.8597                 1.7270                 2.4217
 Frc consts  --      0.9628                 0.9368                 1.3734
 IR Inten    --     10.5410                 2.5730                11.2201

                     19                     20                     21
                      A                      A                      A
 Frequencies --   1003.6294              1011.0223              1023.5245
 Red. masses --      2.1919                 1.5571                 2.1108
 Frc consts  --      1.3008                 0.9377                 1.3028
 IR Inten    --      1.3643                10.4240                12.5470

                     22                     23                     24
                      A                      A                      A
 Frequencies --   1049.1306              1065.1438              1086.6192
 Red. masses --      1.6940                 1.3899                 3.6464
 Frc consts  --      1.0986                 0.9291                 2.5367
 IR Inten    --     10.0546                 6.4414                88.6985

                     25                     26                     27
                      A                      A                      A
 Frequencies --   1119.4607              1159.1428              1165.9135
 Red. masses --      1.9859                 2.0030                 1.5976
 Frc consts  --      1.4663                 1.5856                 1.2795
 IR Inten    --     85.8761                 7.1392                20.5729

                     28                     29                     30
                      A                      A                      A
 Frequencies --   1190.3569              1204.6978              1223.1864
 Red. masses --      1.2663                 1.6949                 1.6350
 Frc consts  --      1.0572                 1.4493                 1.4413
 IR Inten    --      1.5812                 2.8127                 0.6622

                     31                     32                     33
                      A                      A                      A
 Frequencies --   1235.0906              1263.9737              1267.2016
 Red. masses --      1.8260                 1.5350                 2.0154
 Frc consts  --      1.6412                 1.4449                 1.9068
 IR Inten    --     10.4871                18.0853                24.0598

                     34                     35                     36
                      A                      A                      A
 Frequencies --   1283.7778              1325.9045              1343.8229
 Red. masses --      1.5051                 1.5744                 1.5886
 Frc consts  --      1.4615                 1.6308                 1.6903
 IR Inten    --      6.2861                 1.3304                50.3325

                     37                     38                     39
                      A                      A                      A
 Frequencies --   1358.5377              1404.5456              1487.3314
 Red. masses --      1.5337                 1.7321                 1.0971
 Frc consts  --      1.6678                 2.0133                 1.4299
 IR Inten    --     11.5885                 3.4651                 1.4278

                     40                     41                     42
                      A                      A                      A
 Frequencies --   1511.8248              1523.7149              2994.7486
 Red. masses --      1.1187                 1.0955                 1.0619
 Frc consts  --      1.5065                 1.4985                 5.6113
 IR Inten    --      2.6700                 1.1334                73.6109

                     43                     44                     45
                      A                      A                      A
 Frequencies --   3047.6738              3053.1958              3062.5675
 Red. masses --      1.0626                 1.0972                 1.0566
 Frc consts  --      5.8149                 6.0264                 5.8390
 IR Inten    --     12.5464                57.1414                32.1824

                     46                     47                     48
                      A                      A                      A
 Frequencies --   3098.7634              3112.0849              3117.9903
 Red. masses --      1.1072                 1.0896                 1.1060
 Frc consts  --      6.2642                 6.2175                 6.3349
 IR Inten    --     23.7838                29.8976                12.6757

                     49                     50                     51
                      A                      A                      A
 Frequencies --   3120.1065              3129.3650              3807.4991
 Red. masses --      1.0912                 1.0928                 1.0660
 Frc consts  --      6.2590                 6.3053                 9.1053
 IR Inten    --     60.5848                33.4277                19.7318

 - Thermochemistry -
 -------------------
 Temperature   298.150 Kelvin.  Pressure   1.00000 Atm.
 Atom     1 has atomic number  8 and mass  15.99491

 Molecular mass:   126.06808 amu.
 Principal axes and moments of inertia in atomic units:
                           1         2         3
     Eigenvalues --   740.47550 837.364831132.04716
           X            0.98559  -0.16735  -0.02472
           Y            0.16679   0.98571  -0.02351
           Z            0.02830   0.01905   0.99942
 This molecule is an asymmetric top.
 Rotational symmetry number  1.
 Warning -- assumption of classical behavior for rotation
           may cause significant error
 Rotational temperatures (Kelvin)      0.11697     0.10344     0.07651
 Rotational constants (GHZ):           2.43727     2.15526     1.59423
 Zero-point vibrational energy     425919.9 (Joules/Mol)
                                  101.79729 (Kcal/Mol)
 Warning -- explicit consideration of   9 degrees of freedom as
           vibrations may cause significant error
 Vibrational temperatures:    331.34   363.41   400.21   517.71   610.62
          (Kelvin)            638.79   657.04   846.63   887.64   990.96
                             1100.66  1148.67  1189.61  1245.24  1270.38
                             1348.70  1380.56  1411.57  1444.00  1454.63
                             1472.62  1509.46  1532.50  1563.40  1610.65
                             1667.75  1677.49  1712.66  1733.29  1759.89
                             1777.02  1818.57  1823.22  1847.07  1907.68
                             1933.46  1954.63  2020.83  2139.94  2175.18
                             2192.28  4308.77  4384.92  4392.86  4406.35
                             4458.42  4477.59  4486.09  4489.13  4502.45
                             5478.14

 Zero-point correction=                           0.162224 (Hartree/Particle)
 Thermal correction to Energy=                    0.168993
 Thermal correction to Enthalpy=                  0.169937
 Thermal correction to Gibbs Free Energy=         0.131611
 Sum of electronic and zero-point Energies=           -423.014427
 Sum of electronic and thermal Energies=              -423.007658
 Sum of electronic and thermal Enthalpies=            -423.006714
 Sum of electronic and thermal Free Energies=         -423.045040

                     E (Thermal)             CV                S
                      KCal/Mol        Cal/Mol-Kelvin    Cal/Mol-Kelvin
 Total                  106.045             28.871             80.665
 Electronic               0.000              0.000              0.000
 Translational            0.889              2.981             40.409
 Rotational               0.889              2.981             28.042
 Vibrational            104.267             22.909             12.214
 Vibration     1          0.652              1.795              1.877
 Vibration     2          0.664              1.758              1.712
 Vibration     3          0.679              1.714              1.545
 Vibration     4          0.734              1.555              1.123
 Vibration     5          0.786              1.417              0.877
 Vibration     6          0.803              1.374              0.814
 Vibration     7          0.815              1.346              0.776
 Vibration     8          0.946              1.056              0.470
 Vibration     9          0.977              0.996              0.421

 Optimization completed.
    -- Stationary point found.
 Normal termination of Gaussian 09 at Mon Jan 27 19:47:32 2020.
