 Gaussian 09, Revision D.01,
 Gaussian 09:  ES64L-G09RevD.01 24-Apr-2013

 -----------------------------
 # b3lyp 6-31G(2df,p) opt Freq
 -----------------------------

 -----
 titel
 -----
 Symbolic Z-matrix:
 Charge =  0 Multiplicity = 1

 SCF Done:  E(RB3LYP) =  -423.149387253     A.U. after   14 cycles
 Optimization completed.
    -- Stationary point found.
 Normal termination of Gaussian 09 at Tue Jan 28 09:08:32 2020.

 ----------------------------------------------------------------------
 #N Geom=AllCheck Guess=TCheck SCRF=Check GenChk RB3LYP/6-31G(2df,p) Fr
 eq
 ----------------------------------------------------------------------

 Structure from the checkpoint file:  "/scratch/puck/g09_e2e89865-c7e7-4e68-9e7f-27ec5854f5ca/Gau-20208.chk"
 -----
 titel
 -----
 Charge =  0 Multiplicity = 1

                         Standard orientation:
 ---------------------------------------------------------------------
 Center     Atomic      Atomic             Coordinates (Angstroms)
 Number     Number       Type             X           Y           Z
 ---------------------------------------------------------------------
      1          8           0        1.711434   -1.769471   -0.051263
      2          6           0        0.732995   -1.156386    0.757086
      3          6           0        0.169857    0.150335    0.138395
      4          6           0       -0.959707    0.726889    1.051479
      5          6           0       -2.254220    0.436226    0.256859
      6          8           0       -1.907946   -0.542210   -0.713447
      7          6           0       -0.613009   -0.195665   -1.160840
      8          6           0        1.270648    1.074408   -0.102072
      9          6           0        2.215902    1.790834   -0.307718
     10          1           0        2.421496   -1.127443   -0.174996
     11          1           0       -0.090569   -1.871400    0.848009
     12          1           0        1.114417   -0.937156    1.766036
     13          1           0       -0.955774    0.217684    2.019841
     14          1           0       -0.823776    1.793129    1.237789
     15          1           0       -3.064728    0.031954    0.867751
     16          1           0       -2.615220    1.351838   -0.237182
     17          1           0       -0.177291   -1.047825   -1.684956
     18          1           0       -0.641471    0.674626   -1.834166
     19          1           0        3.030221    2.448201   -0.489577
 ---------------------------------------------------------------------

 SCF Done:  E(RB3LYP) =  -423.149387253     A.U. after    1 cycles

 The electronic state is 1-A.
 Alpha  occ. eigenvalues --  -19.14375 -19.13775 -10.23255 -10.23234 -10.22856
 Alpha  occ. eigenvalues --  -10.22060 -10.19562 -10.19092 -10.18344  -1.04423
 Alpha  occ. eigenvalues --   -1.02116  -0.82407  -0.75208  -0.73433  -0.67501
 Alpha  occ. eigenvalues --   -0.61317  -0.60587  -0.53431  -0.51183  -0.50437
 Alpha  occ. eigenvalues --   -0.49263  -0.46144  -0.43311  -0.42395  -0.40806
 Alpha  occ. eigenvalues --   -0.38430  -0.36899  -0.35625  -0.33537  -0.32251
 Alpha  occ. eigenvalues --   -0.28744  -0.27497  -0.26551  -0.25606
 Alpha virt. eigenvalues --    0.04143   0.04452   0.08090   0.09821   0.10980
 Alpha virt. eigenvalues --    0.12146   0.13115   0.13322   0.15296   0.16288
 Alpha virt. eigenvalues --    0.16607   0.17477   0.19414   0.20708   0.21547

 Mulliken charges:
               1
     1  O   -0.421845
     2  C   -0.099339
     3  C    0.098985
     4  C   -0.302496
     5  C   -0.074440
     6  O   -0.245443
     7  C   -0.123067
     8  C    0.257927
     9  C   -0.460574
    10  H    0.286361
    11  H    0.122800
    12  H    0.092527
    13  H    0.114500
    14  H    0.118693
    15  H    0.113129
    16  H    0.096152
    17  H    0.133552
    18  H    0.093412
    19  H    0.199166
 Sum of Mulliken charges =   0.00000

 Dipole moment (field-independent basis, Debye):
    X=              0.4199    Y=              2.1108    Z=              1.0551  Tot=              2.3968
 Quadrupole moment (field-independent basis, Debye-Ang):
   XX=            -50.3250   YY=            -56.1591   ZZ=            -52.6719
   XY=              1.9863   XZ=             -3.1930   YZ=             -1.6643

  Exact polarizability:  90.880   8.859  74.653  -6.119  -2.492  65.159
 Approx polarizability: 129.805  20.794 113.929 -10.618  -3.388  95.741

                      1                      2                      3
                      A                      A                      A
 Frequencies --     62.5746               122.8363               153.2588
 Red. masses --      2.5338                 4.5517                 3.5652
 Frc consts  --      0.0058                 0.0405                 0.0493
 IR Inten    --      0.0609                 2.1405                 0.2823

                      4                      5                      6
                      A                      A                      A
 Frequencies --    173.8511               239.3172               267.3983
 Red. masses --      3.1921                 2.7994                 2.5043
 Frc consts  --      0.0568                 0.0945                 0.1055
 IR Inten    --      0.3408                 3.9048                 1.0418

                      7                      8                      9
                      A                      A                      A
 Frequencies --    359.7010               403.0977               448.2516
 Red. masses --      2.2128                 1.5495                 2.0301
 Frc consts  --      0.1687                 0.1483                 0.2403
 IR Inten    --      8.4665                67.7585                57.9582

                     10                     11                     12
                      A                      A                      A
 Frequencies --    494.4233               527.5257               611.6850
 Red. masses --      6.3118                 5.2959                 3.8128
 Frc consts  --      0.9091                 0.8683                 0.8405
 IR Inten    --      3.1304                 3.2871                 5.4111

                     13                     14                     15
                      A                      A                      A
 Frequencies --    626.7352               648.6108               688.7296
 Red. masses --      1.2406                 1.2263                 3.0022
 Frc consts  --      0.2871                 0.3040                 0.8390
 IR Inten    --     48.5035                41.8428                 5.3116

                     16                     17                     18
                      A                      A                      A
 Frequencies --    778.2863               827.7242               917.5899
 Red. masses --      3.6299                 1.6617                 1.8427
 Frc consts  --      1.2955                 0.6708                 0.9141
 IR Inten    --      8.1334                 3.2071                16.1663

                     19                     20                     21
                      A                      A                      A
 Frequencies --    936.5577               968.6222               974.2340
 Red. masses --      2.7656                 2.5281                 3.1112
 Frc consts  --      1.4293                 1.3975                 1.7398
 IR Inten    --      6.2948                 1.3209                23.3854

                     22                     23                     24
                      A                      A                      A
 Frequencies --   1022.7590              1084.2370              1096.7115
 Red. masses --      1.7900                 5.0207                 4.1185
 Frc consts  --      1.1032                 3.4775                 2.9186
 IR Inten    --      2.5817               120.2666                27.3966

                     25                     26                     27
                      A                      A                      A
 Frequencies --   1130.7861              1137.0341              1164.3761
 Red. masses --      3.2138                 2.4760                 1.8944
 Frc consts  --      2.4212                 1.8861                 1.5133
 IR Inten    --     28.6497                37.8944                 2.9025

                     28                     29                     30
                      A                      A                      A
 Frequencies --   1233.3562              1234.5903              1274.8576
 Red. masses --      1.2922                 1.1816                 1.4046
 Frc consts  --      1.1581                 1.0611                 1.3450
 IR Inten    --      7.3483                 5.8872                 7.4431

                     31                     32                     33
                      A                      A                      A
 Frequencies --   1295.8533              1311.5877              1354.2561
 Red. masses --      1.4618                 1.2928                 1.3224
 Frc consts  --      1.4462                 1.3103                 1.4289
 IR Inten    --     14.8386                 1.1545                 0.8162

                     34                     35                     36
                      A                      A                      A
 Frequencies --   1378.4965              1397.1593              1424.2811
 Red. masses --      1.2362                 1.3217                 1.2332
 Frc consts  --      1.3840                 1.5201                 1.4739
 IR Inten    --      1.3033                 6.0873                55.8606

                     37                     38                     39
                      A                      A                      A
 Frequencies --   1493.9005              1503.2583              1507.1442
 Red. masses --      1.0851                 1.0813                 1.0795
 Frc consts  --      1.4268                 1.4397                 1.4448
 IR Inten    --      3.5201                 3.6215                 1.5439

                     40                     41                     42
                      A                      A                      A
 Frequencies --   1523.8465              2223.9847              2981.4787
 Red. masses --      1.1028                 5.9733                 1.0709
 Frc consts  --      1.5088                17.4072                 5.6087
 IR Inten    --      2.4240                 5.1812                50.5234

                     43                     44                     45
                      A                      A                      A
 Frequencies --   2987.4794              2990.1014              3060.8672
 Red. masses --      1.0680                 1.0707                 1.0654
 Frc consts  --      5.6160                 5.6399                 5.8813
 IR Inten    --     72.6248                43.2525                19.0769

                     46                     47                     48
                      A                      A                      A
 Frequencies --   3087.4332              3098.4666              3122.5959
 Red. masses --      1.0954                 1.0914                 1.1021
 Frc consts  --      6.1521                 6.1733                 6.3316
 IR Inten    --     15.6705                29.9311                19.6919

                     49                     50                     51
                      A                      A                      A
 Frequencies --   3124.7073              3498.4769              3777.0926
 Red. masses --      1.0946                 1.1605                 1.0655
 Frc consts  --      6.2969                 8.3686                 8.9560
 IR Inten    --      9.3882                76.7761                25.1731

 - Thermochemistry -
 -------------------
 Temperature   298.150 Kelvin.  Pressure   1.00000 Atm.
 Atom     1 has atomic number  8 and mass  15.99491

 Molecular mass:   126.06808 amu.
 Principal axes and moments of inertia in atomic units:
                           1         2         3
     Eigenvalues --   765.874271303.868021615.98062
           X            0.99982  -0.01209  -0.01471
           Y            0.01187   0.99982  -0.01467
           Z            0.01489   0.01449   0.99978
 This molecule is an asymmetric top.
 Rotational symmetry number  1.
 Warning -- assumption of classical behavior for rotation
           may cause significant error
 Rotational temperatures (Kelvin)      0.11309     0.06643     0.05360
 Rotational constants (GHZ):           2.35645     1.38414     1.11681
 Zero-point vibrational energy     417210.7 (Joules/Mol)
                                   99.71576 (Kcal/Mol)
 Warning -- explicit consideration of  12 degrees of freedom as
           vibrations may cause significant error
 Vibrational temperatures:     90.03   176.73   220.50   250.13   344.32
          (Kelvin)            384.73   517.53   579.97   644.93   711.36
                              758.99   880.08   901.73   933.21   990.93
                             1119.78  1190.91  1320.21  1347.50  1393.63
                             1401.70  1471.52  1559.97  1577.92  1626.95
                             1635.94  1675.28  1774.52  1776.30  1834.23
                             1864.44  1887.08  1948.47  1983.35  2010.20
                             2049.22  2149.39  2162.85  2168.44  2192.47
                             3199.81  4289.68  4298.31  4302.08  4403.90
                             4442.12  4458.00  4492.71  4495.75  5033.52
                             5434.39

 Zero-point correction=                           0.158907 (Hartree/Particle)
 Thermal correction to Energy=                    0.167950
 Thermal correction to Enthalpy=                  0.168895
 Thermal correction to Gibbs Free Energy=         0.125019
 Sum of electronic and zero-point Energies=           -422.990480
 Sum of electronic and thermal Energies=              -422.981437
 Sum of electronic and thermal Enthalpies=            -422.980493
 Sum of electronic and thermal Free Energies=         -423.024369

                     E (Thermal)             CV                S
                      KCal/Mol        Cal/Mol-Kelvin    Cal/Mol-Kelvin
 Total                  105.390             34.016             92.345
 Electronic               0.000              0.000              0.000
 Translational            0.889              2.981             40.409
 Rotational               0.889              2.981             28.869
 Vibrational            103.613             28.054             23.067
 Vibration     1          0.597              1.972              4.374
 Vibration     2          0.610              1.930              3.055
 Vibration     3          0.619              1.899              2.631
 Vibration     4          0.627              1.875              2.393
 Vibration     5          0.657              1.780              1.808
 Vibration     6          0.673              1.733              1.613
 Vibration     7          0.734              1.555              1.123
 Vibration     8          0.768              1.463              0.951
 Vibration     9          0.807              1.365              0.801
 Vibration    10          0.850              1.262              0.672
 Vibration    11          0.882              1.189              0.593
 Vibration    12          0.971              1.007              0.430

 Optimization completed.
    -- Stationary point found.
 Normal termination of Gaussian 09 at Tue Jan 28 09:51:59 2020.
