 Gaussian 09, Revision D.01,
 Gaussian 09:  ES64L-G09RevD.01 24-Apr-2013

 -----------------------------
 # b3lyp 6-31G(2df,p) opt Freq
 -----------------------------

 -----
 titel
 -----
 Symbolic Z-matrix:
 Charge =  0 Multiplicity = 1

 SCF Done:  E(RB3LYP) =  -423.179922118     A.U. after   14 cycles
 Optimization completed.
    -- Stationary point found.
 Normal termination of Gaussian 09 at Tue Jan 28 02:56:39 2020.

 ----------------------------------------------------------------------
 #N Geom=AllCheck Guess=TCheck SCRF=Check GenChk RB3LYP/6-31G(2df,p) Fr
 eq
 ----------------------------------------------------------------------

 Structure from the checkpoint file:  "/scratch/puck/g09_a3d980dd-df73-4664-a4df-462f60ee7f00/Gau-44282.chk"
 -----
 titel
 -----
 Charge =  0 Multiplicity = 1

                         Standard orientation:
 ---------------------------------------------------------------------
 Center     Atomic      Atomic             Coordinates (Angstroms)
 Number     Number       Type             X           Y           Z
 ---------------------------------------------------------------------
      1          6           0       -2.384304   -1.398750   -0.027151
      2          6           0       -1.083579   -0.666541   -0.095889
      3          6           0        0.143721   -1.126862    0.165036
      4          6           0        1.183268   -0.079449   -0.001628
      5          6           0        2.442106   -0.046973    0.762034
      6          8           0        2.433954   -0.448182   -0.607812
      7          6           0        0.455801    1.152531   -0.542195
      8          6           0       -1.053160    0.819046   -0.425070
      9          8           0       -1.743976    1.585664    0.563882
     10          1           0       -2.858943   -1.440871   -1.015928
     11          1           0       -2.261521   -2.421974    0.336598
     12          1           0       -3.083773   -0.870307    0.630151
     13          1           0        0.394777   -2.140068    0.460093
     14          1           0        2.916758    0.912666    0.968298
     15          1           0        2.666180   -0.834977    1.481551
     16          1           0        0.688013    2.074007   -0.002469
     17          1           0        0.748308    1.297123   -1.586188
     18          1           0       -1.593477    1.043588   -1.351098
     19          1           0       -1.359266    1.362943    1.419610
 ---------------------------------------------------------------------

 SCF Done:  E(RB3LYP) =  -423.179922118     A.U. after    1 cycles

 The electronic state is 1-A.
 Alpha  occ. eigenvalues --  -19.14669 -19.13860 -10.24280 -10.23632 -10.23120
 Alpha  occ. eigenvalues --  -10.19457 -10.18596 -10.18499 -10.18315  -1.06636
 Alpha  occ. eigenvalues --   -1.01926  -0.83947  -0.74927  -0.70237  -0.66644
 Alpha  occ. eigenvalues --   -0.64626  -0.57401  -0.54655  -0.50485  -0.47720
 Alpha  occ. eigenvalues --   -0.46824  -0.44746  -0.43767  -0.41556  -0.40533
 Alpha  occ. eigenvalues --   -0.38894  -0.37653  -0.36564  -0.35317  -0.33023
 Alpha  occ. eigenvalues --   -0.31520  -0.27575  -0.26219  -0.24176
 Alpha virt. eigenvalues --    0.00343   0.07834   0.09652   0.11098   0.11418
 Alpha virt. eigenvalues --    0.12365   0.12953   0.14568   0.15972   0.17353
 Alpha virt. eigenvalues --    0.17906   0.18266   0.20150   0.21550   0.22600

 Mulliken charges:
               1
     1  C   -0.491267
     2  C    0.280069
     3  C   -0.257450
     4  C    0.431482
     5  C   -0.253633
     6  O   -0.279138
     7  C   -0.349447
     8  C    0.030461
     9  O   -0.430590
    10  H    0.131934
    11  H    0.123534
    12  H    0.139317
    13  H    0.101527
    14  H    0.111703
    15  H    0.109221
    16  H    0.110277
    17  H    0.126196
    18  H    0.090136
    19  H    0.275669
 Sum of Mulliken charges =   0.00000

 Dipole moment (field-independent basis, Debye):
    X=             -0.4660    Y=             -0.4722    Z=              1.5369  Tot=              1.6739
 Quadrupole moment (field-independent basis, Debye-Ang):
   XX=            -57.8435   YY=            -53.9326   ZZ=            -50.5272
   XY=              5.2783   XZ=              4.6515   YZ=             -1.1103

  Exact polarizability: 101.631   1.086  73.837   7.737  -2.981  62.434
 Approx polarizability: 144.760  -7.823 105.347   9.636  -2.041  99.528

                      1                      2                      3
                      A                      A                      A
 Frequencies --     42.1170               131.6307               175.0570
 Red. masses --      3.4840                 2.6660                 1.1324
 Frc consts  --      0.0036                 0.0272                 0.0204
 IR Inten    --      2.0147                 1.0612                 0.2062

                      4                      5                      6
                      A                      A                      A
 Frequencies --    231.4929               271.3842               324.5701
 Red. masses --      2.9021                 3.0035                 3.5384
 Frc consts  --      0.0916                 0.1303                 0.2196
 IR Inten    --      0.5927                 0.0724                 1.8345

                      7                      8                      9
                      A                      A                      A
 Frequencies --    337.3796               356.2095               427.0139
 Red. masses --      2.3667                 1.1909                 2.3979
 Frc consts  --      0.1587                 0.0890                 0.2576
 IR Inten    --      0.1121                91.2030                 4.9098

                     10                     11                     12
                      A                      A                      A
 Frequencies --    480.9731               500.5065               594.9949
 Red. masses --      3.3599                 4.4792                 3.9346
 Frc consts  --      0.4580                 0.6611                 0.8207
 IR Inten    --      2.1527                 1.4927                 4.1747

                     13                     14                     15
                      A                      A                      A
 Frequencies --    633.6446               780.6285               825.2975
 Red. masses --      3.0688                 3.5821                 5.3498
 Frc consts  --      0.7260                 1.2861                 2.1469
 IR Inten    --      7.7196                34.7850                 7.8346

                     16                     17                     18
                      A                      A                      A
 Frequencies --    851.3648               881.2911               917.3631
 Red. masses --      2.8483                 1.3903                 1.5177
 Frc consts  --      1.2164                 0.6362                 0.7525
 IR Inten    --      2.8255                12.3952                 1.9089

                     19                     20                     21
                      A                      A                      A
 Frequencies --    924.3139               968.3559               998.3117
 Red. masses --      2.3125                 3.3172                 1.8400
 Frc consts  --      1.1640                 1.8327                 1.0805
 IR Inten    --      4.6345                18.3266                11.1197

                     22                     23                     24
                      A                      A                      A
 Frequencies --   1038.8981              1059.1835              1071.4840
 Red. masses --      1.8204                 1.9105                 2.5072
 Frc consts  --      1.1576                 1.2628                 1.6960
 IR Inten    --     16.2831                35.0240                80.2976

                     25                     26                     27
                      A                      A                      A
 Frequencies --   1128.2512              1146.5840              1171.6599
 Red. masses --      1.2651                 1.6181                 1.5322
 Frc consts  --      0.9488                 1.2534                 1.2392
 IR Inten    --      1.4972                 3.0465                 0.1234

                     28                     29                     30
                      A                      A                      A
 Frequencies --   1179.2076              1230.7244              1265.4783
 Red. masses --      1.2818                 1.8070                 1.5217
 Frc consts  --      1.0502                 1.6126                 1.4357
 IR Inten    --     19.4244                 3.0132                 1.4886

                     31                     32                     33
                      A                      A                      A
 Frequencies --   1282.5607              1305.9820              1340.2607
 Red. masses --      1.4949                 2.3749                 2.0456
 Frc consts  --      1.4489                 2.3866                 2.1650
 IR Inten    --      4.5928                 8.2753                 1.3815

                     34                     35                     36
                      A                      A                      A
 Frequencies --   1405.6424              1417.5722              1428.8955
 Red. masses --      1.3511                 2.4601                 1.2072
 Frc consts  --      1.5728                 2.9127                 1.4522
 IR Inten    --      6.1711                12.3442                59.8205

                     37                     38                     39
                      A                      A                      A
 Frequencies --   1474.7033              1475.3317              1489.3493
 Red. masses --      1.0559                 1.0848                 1.0654
 Frc consts  --      1.3530                 1.3912                 1.3923
 IR Inten    --      4.6241                 5.6282                11.3478

                     40                     41                     42
                      A                      A                      A
 Frequencies --   1526.4376              1714.3878              3023.9701
 Red. masses --      1.3421                 7.4516                 1.0393
 Frc consts  --      1.8425                12.9038                 5.5996
 IR Inten    --      2.2309                 6.8213                22.5273

                     43                     44                     45
                      A                      A                      A
 Frequencies --   3049.9942              3065.4450              3068.0956
 Red. masses --      1.0818                 1.0637                 1.0500
 Frc consts  --      5.9289                 5.8891                 5.8233
 IR Inten    --     27.8832                21.5602                30.5734

                     46                     47                     48
                      A                      A                      A
 Frequencies --   3077.4979              3110.0512              3118.4745
 Red. masses --      1.0952                 1.1045                 1.1011
 Frc consts  --      6.1111                 6.2946                 6.3092
 IR Inten    --     12.8003                11.6458                15.9988

                     49                     50                     51
                      A                      A                      A
 Frequencies --   3152.9653              3191.5995              3791.0670
 Red. masses --      1.1192                 1.0946                 1.0660
 Frc consts  --      6.5553                 6.5694                 9.0265
 IR Inten    --     24.0968                 9.1937                10.9029

 - Thermochemistry -
 -------------------
 Temperature   298.150 Kelvin.  Pressure   1.00000 Atm.
 Atom     1 has atomic number  6 and mass  12.00000

 Molecular mass:   126.06808 amu.
 Principal axes and moments of inertia in atomic units:
                           1         2         3
     Eigenvalues --   608.221841464.826131821.30673
           X            0.99883   0.04520   0.01714
           Y           -0.04476   0.99867  -0.02568
           Z           -0.01828   0.02488   0.99952
 This molecule is an asymmetric top.
 Rotational symmetry number  1.
 Warning -- assumption of classical behavior for rotation
           may cause significant error
 Rotational temperatures (Kelvin)      0.14240     0.05913     0.04756
 Rotational constants (GHZ):           2.96724     1.23205     0.99090
 Zero-point vibrational energy     415437.1 (Joules/Mol)
                                   99.29184 (Kcal/Mol)
 Warning -- explicit consideration of  12 degrees of freedom as
           vibrations may cause significant error
 Vibrational temperatures:     60.60   189.39   251.87   333.07   390.46
          (Kelvin)            466.98   485.41   512.51   614.38   692.01
                              720.12   856.06   911.67  1123.15  1187.42
                             1224.92  1267.98  1319.88  1329.88  1393.25
                             1436.35  1494.74  1523.93  1541.62  1623.30
                             1649.68  1685.76  1696.61  1770.74  1820.74
                             1845.32  1879.01  1928.33  2022.40  2039.57
                             2055.86  2121.77  2122.67  2142.84  2196.20
                             2466.62  4350.81  4388.26  4410.49  4414.30
                             4427.83  4474.66  4486.78  4536.41  4591.99
                             5454.49

 Zero-point correction=                           0.158232 (Hartree/Particle)
 Thermal correction to Energy=                    0.167063
 Thermal correction to Enthalpy=                  0.168007
 Thermal correction to Gibbs Free Energy=         0.124392
 Sum of electronic and zero-point Energies=           -423.021690
 Sum of electronic and thermal Energies=              -423.012859
 Sum of electronic and thermal Enthalpies=            -423.011915
 Sum of electronic and thermal Free Energies=         -423.055530

                     E (Thermal)             CV                S
                      KCal/Mol        Cal/Mol-Kelvin    Cal/Mol-Kelvin
 Total                  104.834             33.456             91.796
 Electronic               0.000              0.000              0.000
 Translational            0.889              2.981             40.409
 Rotational               0.889              2.981             28.875
 Vibrational            103.056             27.494             22.512
 Vibration     1          0.595              1.980              5.157
 Vibration     2          0.612              1.922              2.922
 Vibration     3          0.627              1.873              2.380
 Vibration     4          0.653              1.793              1.867
 Vibration     5          0.675              1.726              1.587
 Vibration     6          0.709              1.626              1.287
 Vibration     7          0.718              1.601              1.225
 Vibration     8          0.732              1.563              1.139
 Vibration     9          0.789              1.411              0.868
 Vibration    10          0.837              1.292              0.707
 Vibration    11          0.856              1.249              0.657
 Vibration    12          0.953              1.042              0.458

 Optimization completed.
    -- Stationary point found.
 Normal termination of Gaussian 09 at Tue Jan 28 04:44:17 2020.
