 Gaussian 09, Revision D.01,
 Gaussian 09:  ES64L-G09RevD.01 24-Apr-2013

 -----------------------------
 # b3lyp 6-31G(2df,p) opt Freq
 -----------------------------

 -----
 titel
 -----
 Symbolic Z-matrix:
 Charge =  0 Multiplicity = 1

 SCF Done:  E(RB3LYP) =  -423.205933711     A.U. after   14 cycles
 Optimization completed.
    -- Stationary point found.
 Normal termination of Gaussian 09 at Mon Jan 27 22:57:39 2020.

 ----------------------------------------------------------------------
 #N Geom=AllCheck Guess=TCheck SCRF=Check GenChk RB3LYP/6-31G(2df,p) Fr
 eq
 ----------------------------------------------------------------------

 Structure from the checkpoint file:  "/scratch/puck/g09_9d7c49f3-8d14-4172-bae0-dc6a2ed700c6/Gau-191712.chk"
 -----
 titel
 -----
 Charge =  0 Multiplicity = 1

                         Standard orientation:
 ---------------------------------------------------------------------
 Center     Atomic      Atomic             Coordinates (Angstroms)
 Number     Number       Type             X           Y           Z
 ---------------------------------------------------------------------
      1          8           0       -1.772856   -1.436487    0.140977
      2          6           0       -0.745365   -0.717172   -0.489411
      3          6           0        0.642882   -1.199839   -0.047103
      4          6           0        1.720089   -0.424789   -0.852055
      5          6           0        1.578248    0.700212    0.208735
      6          6           0        1.122065   -0.411216    1.206216
      7          6           0        0.384895    1.605210   -0.148063
      8          6           0       -0.893747    0.780713   -0.170189
      9          8           0       -1.980541    1.220264    0.134832
     10          1           0       -2.476103   -0.789236    0.304904
     11          1           0       -0.815776   -0.823264   -1.589576
     12          1           0        0.674468   -2.290512   -0.031587
     13          1           0        2.694745   -0.915579   -0.794714
     14          1           0        1.505286   -0.176243   -1.897286
     15          1           0        2.462804    1.291111    0.455244
     16          1           0        1.975953   -0.895029    1.685561
     17          1           0        0.378861   -0.158928    1.968960
     18          1           0        0.238803    2.414864    0.573605
     19          1           0        0.533725    2.073882   -1.130361
 ---------------------------------------------------------------------

 SCF Done:  E(RB3LYP) =  -423.205933711     A.U. after    1 cycles

 The electronic state is 1-A.
 Alpha  occ. eigenvalues --  -19.14595 -19.13100 -10.27625 -10.23770 -10.20419
 Alpha  occ. eigenvalues --  -10.20022 -10.19648 -10.19143 -10.18956  -1.06082
 Alpha  occ. eigenvalues --   -1.01216  -0.87945  -0.75213  -0.72651  -0.67001
 Alpha  occ. eigenvalues --   -0.60983  -0.57985  -0.53494  -0.49745  -0.49013
 Alpha  occ. eigenvalues --   -0.47995  -0.45914  -0.44750  -0.42822  -0.40137
 Alpha  occ. eigenvalues --   -0.38802  -0.36767  -0.35621  -0.33970  -0.32385
 Alpha  occ. eigenvalues --   -0.31695  -0.31310  -0.27533  -0.24839
 Alpha virt. eigenvalues --   -0.02789   0.08066   0.10110   0.10976   0.12052
 Alpha virt. eigenvalues --    0.13618   0.14293   0.15035   0.15327   0.17256
 Alpha virt. eigenvalues --    0.17563   0.18099   0.20417   0.20951   0.22675

 Mulliken charges:
               1
     1  O   -0.447735
     2  C    0.062104
     3  C   -0.031181
     4  C   -0.232348
     5  C   -0.018001
     6  C   -0.241522
     7  C   -0.315699
     8  C    0.362820
     9  O   -0.331585
    10  H    0.290762
    11  H    0.084993
    12  H    0.080758
    13  H    0.104933
    14  H    0.090468
    15  H    0.071242
    16  H    0.104305
    17  H    0.108543
    18  H    0.129468
    19  H    0.127675
 Sum of Mulliken charges =   0.00000

 Dipole moment (field-independent basis, Debye):
    X=              2.7202    Y=              0.6403    Z=             -0.6964  Tot=              2.8800
 Quadrupole moment (field-independent basis, Debye-Ang):
   XX=            -55.7000   YY=            -56.3769   ZZ=            -51.7092
   XY=              0.5155   XZ=              0.8116   YZ=             -0.1867

  Exact polarizability:  82.306  -1.029  74.584  -2.043   0.575  66.049
 Approx polarizability: 119.551  -3.685 108.917  -6.406   1.222 102.194

                      1                      2                      3
                      A                      A                      A
 Frequencies --     78.7183               189.0912               305.0444
 Red. masses --      5.2650                 3.3298                 4.4622
 Frc consts  --      0.0192                 0.0701                 0.2446
 IR Inten    --      0.9037                 2.5376                17.3437

                      4                      5                      6
                      A                      A                      A
 Frequencies --    342.7861               363.8796               417.4061
 Red. masses --      2.0716                 3.0771                 3.1225
 Frc consts  --      0.1434                 0.2401                 0.3205
 IR Inten    --      2.1591                 3.3145                 2.8045

                      7                      8                      9
                      A                      A                      A
 Frequencies --    472.1717               479.4735               504.7845
 Red. masses --      1.6648                 1.9479                 2.5180
 Frc consts  --      0.2187                 0.2638                 0.3780
 IR Inten    --     20.6349                46.5572                12.5453

                     10                     11                     12
                      A                      A                      A
 Frequencies --    579.8550               641.1873               746.3494
 Red. masses --      3.7916                 3.6001                 2.7990
 Frc consts  --      0.7511                 0.8720                 0.9186
 IR Inten    --      6.5691                 2.6263                 1.8861

                     13                     14                     15
                      A                      A                      A
 Frequencies --    825.7580               846.7913               871.7305
 Red. masses --      1.6817                 2.3611                 3.2561
 Frc consts  --      0.6756                 0.9975                 1.4579
 IR Inten    --      0.4428                 3.0548                 3.2252

                     16                     17                     18
                      A                      A                      A
 Frequencies --    890.0536               899.0902               936.8596
 Red. masses --      2.2903                 2.5180                 1.9634
 Frc consts  --      1.0690                 1.1992                 1.0153
 IR Inten    --      2.0027                 3.8604                 0.5927

                     19                     20                     21
                      A                      A                      A
 Frequencies --    969.8546              1029.7916              1054.0470
 Red. masses --      2.1635                 2.2772                 1.2140
 Frc consts  --      1.1990                 1.4228                 0.7947
 IR Inten    --      0.4208                29.8502                 2.5701

                     22                     23                     24
                      A                      A                      A
 Frequencies --   1076.3680              1077.6646              1106.8034
 Red. masses --      1.4108                 2.6586                 1.5180
 Frc consts  --      0.9630                 1.8191                 1.0956
 IR Inten    --      9.3443                 2.1233                 8.1040

                     25                     26                     27
                      A                      A                      A
 Frequencies --   1128.0342              1140.8265              1187.7352
 Red. masses --      1.3205                 2.6382                 1.7939
 Frc consts  --      0.9900                 2.0230                 1.4911
 IR Inten    --     11.3917                86.3188                 9.5330

                     28                     29                     30
                      A                      A                      A
 Frequencies --   1221.9078              1238.3575              1250.4849
 Red. masses --      1.4903                 1.3799                 1.4291
 Frc consts  --      1.3110                 1.2467                 1.3166
 IR Inten    --      5.8241                32.6938                 6.3956

                     31                     32                     33
                      A                      A                      A
 Frequencies --   1268.4047              1289.9866              1309.6492
 Red. masses --      1.6197                 1.5759                 1.7063
 Frc consts  --      1.5353                 1.5451                 1.7243
 IR Inten    --     11.2636                 0.7248                 2.9000

                     34                     35                     36
                      A                      A                      A
 Frequencies --   1337.7648              1358.7296              1371.1484
 Red. masses --      1.2704                 1.5336                 1.6937
 Frc consts  --      1.3395                 1.6681                 1.8761
 IR Inten    --     13.7425                 2.8744                 6.0654

                     37                     38                     39
                      A                      A                      A
 Frequencies --   1427.4939              1455.2620              1482.7135
 Red. masses --      1.4548                 1.0866                 1.0897
 Frc consts  --      1.7467                 1.3559                 1.4115
 IR Inten    --     52.3070                 9.9775                 4.3649

                     40                     41                     42
                      A                      A                      A
 Frequencies --   1512.9241              1804.3592              2911.3837
 Red. masses --      1.1204                12.1835                 1.0791
 Frc consts  --      1.5110                23.3705                 5.3892
 IR Inten    --      0.8987               158.6859                41.3042

                     43                     44                     45
                      A                      A                      A
 Frequencies --   3025.2875              3040.8467              3054.5979
 Red. masses --      1.0653                 1.0607                 1.0600
 Frc consts  --      5.7443                 5.7787                 5.8272
 IR Inten    --     11.1633                47.4415                20.3306

                     46                     47                     48
                      A                      A                      A
 Frequencies --   3081.5041              3090.0056              3096.2145
 Red. masses --      1.0917                 1.0941                 1.0913
 Frc consts  --      6.1076                 6.1547                 6.1642
 IR Inten    --     26.4510                24.8254                26.2110

                     49                     50                     51
                      A                      A                      A
 Frequencies --   3105.3821              3114.8003              3704.7614
 Red. masses --      1.1023                 1.1042                 1.0646
 Frc consts  --      6.2628                 6.3121                 8.6089
 IR Inten    --     19.0735                38.3912                54.7587

 - Thermochemistry -
 -------------------
 Temperature   298.150 Kelvin.  Pressure   1.00000 Atm.
 Atom     1 has atomic number  8 and mass  15.99491

 Molecular mass:   126.06808 amu.
 Principal axes and moments of inertia in atomic units:
                           1         2         3
     Eigenvalues --   696.638441035.216591401.05371
           X            0.99990   0.01432   0.00114
           Y           -0.01432   0.99990   0.00011
           Z           -0.00114  -0.00013   1.00000
 This molecule is an asymmetric top.
 Rotational symmetry number  1.
 Warning -- assumption of classical behavior for rotation
           may cause significant error
 Rotational temperatures (Kelvin)      0.12433     0.08367     0.06182
 Rotational constants (GHZ):           2.59064     1.74335     1.28813
 Zero-point vibrational energy     422976.4 (Joules/Mol)
                                  101.09378 (Kcal/Mol)
 Warning -- explicit consideration of  10 degrees of freedom as
           vibrations may cause significant error
 Vibrational temperatures:    113.26   272.06   438.89   493.19   523.54
          (Kelvin)            600.55   679.35   689.85   726.27   834.28
                              922.52  1073.83  1188.08  1218.34  1254.22
                             1280.59  1293.59  1347.93  1395.40  1481.64
                             1516.54  1548.65  1550.52  1592.44  1622.99
                             1641.39  1708.88  1758.05  1781.72  1799.17
                             1824.95  1856.00  1884.29  1924.74  1954.91
                             1972.77  2053.84  2093.79  2133.29  2176.76
                             2596.07  4188.83  4352.71  4375.09  4394.88
                             4433.59  4445.82  4454.76  4467.95  4481.50
                             5330.32

 Zero-point correction=                           0.161103 (Hartree/Particle)
 Thermal correction to Energy=                    0.168551
 Thermal correction to Enthalpy=                  0.169495
 Thermal correction to Gibbs Free Energy=         0.129285
 Sum of electronic and zero-point Energies=           -423.044831
 Sum of electronic and thermal Energies=              -423.037383
 Sum of electronic and thermal Enthalpies=            -423.036438
 Sum of electronic and thermal Free Energies=         -423.076649

                     E (Thermal)             CV                S
                      KCal/Mol        Cal/Mol-Kelvin    Cal/Mol-Kelvin
 Total                  105.767             30.224             84.631
 Electronic               0.000              0.000              0.000
 Translational            0.889              2.981             40.409
 Rotational               0.889              2.981             28.404
 Vibrational            103.990             24.262             15.818
 Vibration     1          0.600              1.963              3.923
 Vibration     2          0.633              1.855              2.237
 Vibration     3          0.696              1.664              1.389
 Vibration     4          0.722              1.590              1.199
 Vibration     5          0.737              1.547              1.105
 Vibration     6          0.780              1.432              0.901
 Vibration     7          0.829              1.312              0.731
 Vibration     8          0.836              1.296              0.711
 Vibration     9          0.860              1.239              0.646
 Vibration    10          0.936              1.075              0.486

 Optimization completed.
    -- Stationary point found.
 Normal termination of Gaussian 09 at Mon Jan 27 23:43:23 2020.
