 Gaussian 09, Revision D.01,
 Gaussian 09:  ES64L-G09RevD.01 24-Apr-2013

 -----------------------------
 # b3lyp 6-31G(2df,p) opt Freq
 -----------------------------

 -----
 titel
 -----
 Symbolic Z-matrix:
 Charge =  0 Multiplicity = 1

 SCF Done:  E(RB3LYP) =  -423.195254515     A.U. after   13 cycles
 Optimization completed.
    -- Stationary point found.
 Normal termination of Gaussian 09 at Tue Jan 28 03:58:09 2020.

 ----------------------------------------------------------------------
 #N Geom=AllCheck Guess=TCheck SCRF=Check GenChk RB3LYP/6-31G(2df,p) Fr
 eq
 ----------------------------------------------------------------------

 Structure from the checkpoint file:  "/scratch/puck/g09_5442e198-c4ce-416d-98ac-f3678ba23a43/Gau-95028.chk"
 -----
 titel
 -----
 Charge =  0 Multiplicity = 1

                         Standard orientation:
 ---------------------------------------------------------------------
 Center     Atomic      Atomic             Coordinates (Angstroms)
 Number     Number       Type             X           Y           Z
 ---------------------------------------------------------------------
      1          6           0       -2.674820    0.032469    0.855599
      2          6           0       -1.742178    0.097662   -0.350042
      3          8           0       -0.916611   -1.082890   -0.388662
      4          6           0        0.412852   -0.714735   -0.678969
      5          8           0        1.396463   -1.231580    0.204032
      6          6           0        2.124698   -0.148285    0.804637
      7          6           0        1.860670    1.113088   -0.067434
      8          6           0        0.469672    0.776085   -0.479885
      9          6           0       -0.756551    1.245615   -0.293919
     10          1           0       -3.363424    0.883903    0.858150
     11          1           0       -3.264811   -0.887374    0.818210
     12          1           0       -2.099431    0.038219    1.785714
     13          1           0       -2.349713    0.121828   -1.269540
     14          1           0        0.661739   -1.083487   -1.686644
     15          1           0        1.768945    0.024925    1.829459
     16          1           0        3.180061   -0.432603    0.845448
     17          1           0        1.954728    2.043443    0.495539
     18          1           0        2.554018    1.142246   -0.916101
     19          1           0       -1.046994    2.253261   -0.023114
 ---------------------------------------------------------------------

 SCF Done:  E(RB3LYP) =  -423.195254515     A.U. after    1 cycles

 The electronic state is 1-A.
 Alpha  occ. eigenvalues --  -19.13550 -19.13372 -10.26723 -10.23843 -10.23428
 Alpha  occ. eigenvalues --  -10.20068 -10.19170 -10.19041 -10.17638  -1.05914
 Alpha  occ. eigenvalues --   -1.00710  -0.81484  -0.76622  -0.74180  -0.67796
 Alpha  occ. eigenvalues --   -0.60504  -0.57758  -0.56349  -0.50087  -0.48500
 Alpha  occ. eigenvalues --   -0.47543  -0.46664  -0.43062  -0.41350  -0.39906
 Alpha  occ. eigenvalues --   -0.38927  -0.37809  -0.36780  -0.35204  -0.32695
 Alpha  occ. eigenvalues --   -0.30604  -0.26711  -0.25636  -0.24932
 Alpha virt. eigenvalues --    0.00152   0.09778   0.10281   0.11450   0.13073
 Alpha virt. eigenvalues --    0.14588   0.15094   0.15641   0.15802   0.16958
 Alpha virt. eigenvalues --    0.17837   0.18597   0.19686   0.20100   0.21572

 Mulliken charges:
               1
     1  C   -0.388942
     2  C    0.102081
     3  O   -0.285368
     4  C    0.184597
     5  O   -0.273186
     6  C   -0.063295
     7  C   -0.338569
     8  C    0.225755
     9  C   -0.244130
    10  H    0.111577
    11  H    0.131307
    12  H    0.123243
    13  H    0.086131
    14  H    0.071616
    15  H    0.104309
    16  H    0.110218
    17  H    0.116504
    18  H    0.118872
    19  H    0.107278
 Sum of Mulliken charges =   0.00000

 Dipole moment (field-independent basis, Debye):
    X=              0.2292    Y=              2.8768    Z=              0.0633  Tot=              2.8867
 Quadrupole moment (field-independent basis, Debye-Ang):
   XX=            -48.2084   YY=            -56.1540   ZZ=            -52.2641
   XY=              0.6057   XZ=              0.0805   YZ=              1.1622

  Exact polarizability: 101.774  -3.121  68.420  -0.083   2.562  63.411
 Approx polarizability: 139.167  -9.526 105.173  -1.120   4.356  94.001

                      1                      2                      3
                      A                      A                      A
 Frequencies --     71.6653               116.8142               192.0540
 Red. masses --      3.9489                 3.2204                 2.1339
 Frc consts  --      0.0119                 0.0259                 0.0464
 IR Inten    --      0.5478                 2.1976                 0.2864

                      4                      5                      6
                      A                      A                      A
 Frequencies --    226.6386               316.8573               366.3249
 Red. masses --      1.0814                 2.8585                 2.3660
 Frc consts  --      0.0327                 0.1691                 0.1871
 IR Inten    --      0.2199                 2.2857                 0.5566

                      7                      8                      9
                      A                      A                      A
 Frequencies --    431.0902               479.4766               610.8486
 Red. masses --      4.9915                 3.0600                 4.4665
 Frc consts  --      0.5465                 0.4145                 0.9819
 IR Inten    --      1.9079                 2.1478                 8.0151

                     10                     11                     12
                      A                      A                      A
 Frequencies --    647.5972               705.9625               763.3041
 Red. masses --      2.9181                 3.3075                 5.1270
 Frc consts  --      0.7210                 0.9712                 1.7600
 IR Inten    --      9.2314                 4.6346                 8.2347

                     13                     14                     15
                      A                      A                      A
 Frequencies --    829.6907               856.2437               861.9930
 Red. masses --      2.3507                 1.8920                 1.8288
 Frc consts  --      0.9534                 0.8173                 0.8006
 IR Inten    --      3.2620                12.5353                15.7234

                     16                     17                     18
                      A                      A                      A
 Frequencies --    914.6112               922.3307               924.9855
 Red. masses --      1.9940                 2.1778                 3.2336
 Frc consts  --      0.9828                 1.0915                 1.6300
 IR Inten    --      8.3244                 5.2530                 6.5336

                     19                     20                     21
                      A                      A                      A
 Frequencies --    968.8030              1035.4413              1052.7242
 Red. masses --      2.6867                 2.3274                 3.0836
 Frc consts  --      1.4858                 1.4702                 2.0134
 IR Inten    --     31.5204                40.6453                30.4256

                     22                     23                     24
                      A                      A                      A
 Frequencies --   1055.4632              1090.0756              1098.9415
 Red. masses --      4.4598                 2.2163                 2.0464
 Frc consts  --      2.9272                 1.5516                 1.4561
 IR Inten    --    231.5372                35.8111                13.5060

                     25                     26                     27
                      A                      A                      A
 Frequencies --   1127.0852              1179.3224              1193.3421
 Red. masses --      1.8948                 1.6552                 1.8600
 Frc consts  --      1.4182                 1.3564                 1.5606
 IR Inten    --     16.7086                 9.7515                 2.3926

                     28                     29                     30
                      A                      A                      A
 Frequencies --   1221.5918              1276.2871              1293.0051
 Red. masses --      1.2232                 1.3276                 1.3545
 Frc consts  --      1.0755                 1.2741                 1.3342
 IR Inten    --      7.0490                 5.4162                 3.9597

                     31                     32                     33
                      A                      A                      A
 Frequencies --   1324.3717              1350.7149              1372.1240
 Red. masses --      1.6046                 1.8238                 1.3646
 Frc consts  --      1.6582                 1.9605                 1.5137
 IR Inten    --     17.0895                 5.9331                12.8944

                     34                     35                     36
                      A                      A                      A
 Frequencies --   1386.2130              1401.1150              1406.4341
 Red. masses --      1.4177                 1.2704                 1.1469
 Frc consts  --      1.6050                 1.4693                 1.3366
 IR Inten    --     15.3410                 4.1411                 9.4184

                     37                     38                     39
                      A                      A                      A
 Frequencies --   1483.4068              1483.7630              1495.1996
 Red. masses --      1.0776                 1.0823                 1.0479
 Frc consts  --      1.3970                 1.4038                 1.3803
 IR Inten    --      2.4714                 2.7044                 2.4171

                     40                     41                     42
                      A                      A                      A
 Frequencies --   1521.9285              1751.5325              2965.4576
 Red. masses --      1.0902                 8.6750                 1.0818
 Frc consts  --      1.4878                15.6804                 5.6053
 IR Inten    --      0.3183                 1.6156                46.5855

                     43                     44                     45
                      A                      A                      A
 Frequencies --   2972.2210              3010.1249              3039.0866
 Red. masses --      1.0828                 1.0674                 1.0354
 Frc consts  --      5.6359                 5.6981                 5.6342
 IR Inten    --     98.8300                53.0385                24.4923

                     46                     47                     48
                      A                      A                      A
 Frequencies --   3040.2658              3084.7797              3113.5623
 Red. masses --      1.0651                 1.0976                 1.1011
 Frc consts  --      5.8006                 6.1535                 6.2889
 IR Inten    --     18.0861                49.5311                20.2916

                     49                     50                     51
                      A                      A                      A
 Frequencies --   3119.6151              3123.7349              3210.9397
 Red. masses --      1.0986                 1.1028                 1.0959
 Frc consts  --      6.2995                 6.3402                 6.6571
 IR Inten    --     16.4630                20.8092                 5.4024

 - Thermochemistry -
 -------------------
 Temperature   298.150 Kelvin.  Pressure   1.00000 Atm.
 Atom     1 has atomic number  6 and mass  12.00000

 Molecular mass:   126.06808 amu.
 Principal axes and moments of inertia in atomic units:
                           1         2         3
     Eigenvalues --   530.050021343.965441554.90148
           X            0.99991   0.00898  -0.00986
           Y           -0.00874   0.99967   0.02413
           Z            0.01008  -0.02404   0.99966
 This molecule is an asymmetric top.
 Rotational symmetry number  1.
 Warning -- assumption of classical behavior for rotation
           may cause significant error
 Rotational temperatures (Kelvin)      0.16341     0.06445     0.05570
 Rotational constants (GHZ):           3.40485     1.34285     1.16068
 Zero-point vibrational energy     421606.8 (Joules/Mol)
                                  100.76646 (Kcal/Mol)
 Warning -- explicit consideration of   9 degrees of freedom as
           vibrations may cause significant error
 Vibrational temperatures:    103.11   168.07   276.32   326.08   455.89
          (Kelvin)            527.06   620.24   689.86   878.87   931.75
                             1015.72  1098.22  1193.74  1231.94  1240.21
                             1315.92  1327.03  1330.85  1393.89  1489.77
                             1514.63  1518.57  1568.37  1581.13  1621.62
                             1696.78  1716.95  1757.60  1836.29  1860.34
                             1905.47  1943.38  1974.18  1994.45  2015.89
                             2023.54  2134.29  2134.80  2151.26  2189.71
                             2520.06  4266.63  4276.36  4330.89  4372.56
                             4374.26  4438.30  4479.72  4488.42  4494.35
                             4619.82

 Zero-point correction=                           0.160582 (Hartree/Particle)
 Thermal correction to Energy=                    0.168453
 Thermal correction to Enthalpy=                  0.169397
 Thermal correction to Gibbs Free Energy=         0.127877
 Sum of electronic and zero-point Energies=           -423.034673
 Sum of electronic and thermal Energies=              -423.026802
 Sum of electronic and thermal Enthalpies=            -423.025858
 Sum of electronic and thermal Free Energies=         -423.067377

                     E (Thermal)             CV                S
                      KCal/Mol        Cal/Mol-Kelvin    Cal/Mol-Kelvin
 Total                  105.706             30.194             87.386
 Electronic               0.000              0.000              0.000
 Translational            0.889              2.981             40.409
 Rotational               0.889              2.981             28.495
 Vibrational            103.928             24.233             18.482
 Vibration     1          0.598              1.968              4.107
 Vibration     2          0.608              1.935              3.152
 Vibration     3          0.634              1.851              2.208
 Vibration     4          0.650              1.800              1.905
 Vibration     5          0.704              1.641              1.326
 Vibration     6          0.739              1.542              1.095
 Vibration     7          0.792              1.403              0.855
 Vibration     8          0.836              1.296              0.711
 Vibration     9          0.970              1.009              0.431

 Optimization completed.
    -- Stationary point found.
 Normal termination of Gaussian 09 at Tue Jan 28 04:44:27 2020.
