 Gaussian 09, Revision D.01,
 Gaussian 09:  ES64L-G09RevD.01 24-Apr-2013

 -----------------------------
 # b3lyp 6-31G(2df,p) opt Freq
 -----------------------------

 -----
 titel
 -----
 Symbolic Z-matrix:
 Charge =  0 Multiplicity = 1

 SCF Done:  E(RB3LYP) =  -423.216408411     A.U. after   14 cycles
 Optimization completed.
    -- Stationary point found.
 Normal termination of Gaussian 09 at Mon Jan 27 14:04:23 2020.

 ----------------------------------------------------------------------
 #N Geom=AllCheck Guess=TCheck SCRF=Check GenChk RB3LYP/6-31G(2df,p) Fr
 eq
 ----------------------------------------------------------------------

 Structure from the checkpoint file:  "/scratch/puck/g09_e9024615-a052-48b7-aaff-d57ceec3cfc8/Gau-158529.chk"
 -----
 titel
 -----
 Charge =  0 Multiplicity = 1

                         Standard orientation:
 ---------------------------------------------------------------------
 Center     Atomic      Atomic             Coordinates (Angstroms)
 Number     Number       Type             X           Y           Z
 ---------------------------------------------------------------------
      1          6           0        2.611218    0.222593    0.643322
      2          6           0        1.442438   -0.477269   -0.029038
      3          8           0        1.521615   -1.635104   -0.373191
      4          6           0        0.150819    0.321169   -0.208597
      5          6           0        0.374392    1.750644   -0.708047
      6          6           0       -0.961218   -0.444932   -0.991188
      7          6           0       -1.898858   -0.210293    0.191900
      8          8           0       -3.082423   -0.279297    0.348244
      9          6           0       -0.746505    0.269311    1.092529
     10          1           0        2.289903    0.778441    1.530051
     11          1           0        3.365259   -0.516530    0.915445
     12          1           0        3.057481    0.948779   -0.045163
     13          1           0        0.860174    1.755934   -1.689679
     14          1           0       -0.584481    2.269159   -0.812069
     15          1           0        0.990385    2.335304   -0.018862
     16          1           0       -1.276588   -0.043636   -1.957415
     17          1           0       -0.700885   -1.502288   -1.104344
     18          1           0       -0.905563    1.207450    1.630879
     19          1           0       -0.442940   -0.504745    1.805442
 ---------------------------------------------------------------------

 SCF Done:  E(RB3LYP) =  -423.216408411     A.U. after    1 cycles

 The electronic state is 1-A.
 Alpha  occ. eigenvalues --  -19.13901 -19.13892 -10.27857 -10.27432 -10.21913
 Alpha  occ. eigenvalues --  -10.20401 -10.19854 -10.19824 -10.19084  -1.05046
 Alpha  occ. eigenvalues --   -1.04780  -0.86561  -0.76353  -0.72690  -0.68945
 Alpha  occ. eigenvalues --   -0.63627  -0.53439  -0.52164  -0.49565  -0.47232
 Alpha  occ. eigenvalues --   -0.46590  -0.44588  -0.43724  -0.42619  -0.42225
 Alpha  occ. eigenvalues --   -0.40679  -0.39848  -0.39148  -0.36923  -0.35530
 Alpha  occ. eigenvalues --   -0.34039  -0.32886  -0.25564  -0.24478
 Alpha virt. eigenvalues --   -0.02239  -0.02103   0.06507   0.11199   0.12328
 Alpha virt. eigenvalues --    0.12787   0.13294   0.13683   0.14815   0.15165
 Alpha virt. eigenvalues --    0.16092   0.16757   0.18104   0.20627   0.21269

 Mulliken charges:
               1
     1  C   -0.487758
     2  C    0.335107
     3  O   -0.301643
     4  C    0.208875
     5  C   -0.472194
     6  C   -0.385118
     7  C    0.407792
     8  O   -0.288679
     9  C   -0.389170
    10  H    0.139228
    11  H    0.146593
    12  H    0.149636
    13  H    0.129250
    14  H    0.129945
    15  H    0.124865
    16  H    0.125159
    17  H    0.158981
    18  H    0.129772
    19  H    0.139358
 Sum of Mulliken charges =   0.00000

 Dipole moment (field-independent basis, Debye):
    X=              2.6305    Y=              2.6945    Z=              0.3555  Tot=              3.7824
 Quadrupole moment (field-independent basis, Debye-Ang):
   XX=            -63.6364   YY=            -55.6326   ZZ=            -50.8568
   XY=              2.7729   XZ=              2.9609   YZ=             -1.2355

  Exact polarizability:  89.691   1.331  71.180   1.483   2.797  68.485
 Approx polarizability: 124.929  -0.670 112.321  -1.529   8.051 103.646

                      1                      2                      3
                      A                      A                      A
 Frequencies --     41.0305                61.4902               172.8501
 Red. masses --      3.7967                 5.5874                 1.0440
 Frc consts  --      0.0038                 0.0124                 0.0184
 IR Inten    --      0.8066                 5.4114                 0.2755

                      4                      5                      6
                      A                      A                      A
 Frequencies --    184.8057               233.6611               268.3517
 Red. masses --      3.1672                 1.7201                 1.5305
 Frc consts  --      0.0637                 0.0553                 0.0649
 IR Inten    --      1.9487                 3.1657                 2.5660

                      7                      8                      9
                      A                      A                      A
 Frequencies --    318.0546               332.6234               376.9828
 Red. masses --      2.5932                 2.4422                 2.8113
 Frc consts  --      0.1546                 0.1592                 0.2354
 IR Inten    --      4.0279                 1.5326                 3.0383

                     10                     11                     12
                      A                      A                      A
 Frequencies --    422.6873               478.3367               539.1539
 Red. masses --      1.9127                 4.2903                 3.5671
 Frc consts  --      0.2013                 0.5784                 0.6109
 IR Inten    --      1.0954                 1.4935                 0.6180

                     13                     14                     15
                      A                      A                      A
 Frequencies --    589.5697               622.2010               696.5061
 Red. masses --      2.8432                 2.7229                 1.5014
 Frc consts  --      0.5823                 0.6211                 0.4291
 IR Inten    --     11.1228                 7.1764                 0.4851

                     16                     17                     18
                      A                      A                      A
 Frequencies --    720.6630               850.5023               875.5358
 Red. masses --      3.2715                 2.3861                 3.0139
 Frc consts  --      1.0011                 1.0169                 1.3612
 IR Inten    --      0.0406                 4.6550                 9.9380

                     19                     20                     21
                      A                      A                      A
 Frequencies --    884.5682               957.1678               964.8710
 Red. masses --      2.7179                 2.0910                 1.6624
 Frc consts  --      1.2530                 1.1287                 0.9119
 IR Inten    --      5.1094                 0.2899                18.7102

                     22                     23                     24
                      A                      A                      A
 Frequencies --   1005.6078              1048.8083              1081.0423
 Red. masses --      1.2764                 1.6538                 2.8826
 Frc consts  --      0.7605                 1.0718                 1.9848
 IR Inten    --      4.0483                 7.1827                37.7913

                     25                     26                     27
                      A                      A                      A
 Frequencies --   1121.5904              1131.7849              1157.9335
 Red. masses --      2.1090                 1.9614                 2.0115
 Frc consts  --      1.5632                 1.4803                 1.5891
 IR Inten    --     11.8746                16.1119                33.0379

                     28                     29                     30
                      A                      A                      A
 Frequencies --   1205.4077              1219.8571              1258.7936
 Red. masses --      1.6232                 1.8333                 2.5646
 Frc consts  --      1.3896                 1.6074                 2.3943
 IR Inten    --     13.0626                42.3414                 4.4836

                     31                     32                     33
                      A                      A                      A
 Frequencies --   1302.7526              1383.1239              1413.4777
 Red. masses --      2.6731                 1.3124                 1.2137
 Frc consts  --      2.6729                 1.4793                 1.4287
 IR Inten    --      7.2586                31.0669                 6.0188

                     34                     35                     36
                      A                      A                      A
 Frequencies --   1425.4960              1444.2320              1463.1016
 Red. masses --      1.0868                 1.1114                 1.0530
 Frc consts  --      1.3012                 1.3658                 1.3281
 IR Inten    --     21.0754                 1.7859                11.2423

                     37                     38                     39
                      A                      A                      A
 Frequencies --   1476.9554              1498.5415              1501.2365
 Red. masses --      1.0504                 1.0462                 1.0571
 Frc consts  --      1.3501                 1.3842                 1.4036
 IR Inten    --      7.5095                 3.0578                 5.9608

                     40                     41                     42
                      A                      A                      A
 Frequencies --   1799.7082              1895.9376              3032.9979
 Red. masses --     11.2595                12.5663                 1.0356
 Frc consts  --     21.4869                26.6138                 5.6128
 IR Inten    --    134.7818               311.3200                15.9786

                     43                     44                     45
                      A                      A                      A
 Frequencies --   3041.4961              3050.8229              3060.6041
 Red. masses --      1.0370                 1.0581                 1.0584
 Frc consts  --      5.6519                 5.8024                 5.8414
 IR Inten    --      3.7131                 6.4932                11.8367

                     46                     47                     48
                      A                      A                      A
 Frequencies --   3098.3170              3103.5074              3111.2649
 Red. masses --      1.1017                 1.0981                 1.1013
 Frc consts  --      6.2311                 6.2313                 6.2810
 IR Inten    --     14.6407                10.1120                14.6936

                     49                     50                     51
                      A                      A                      A
 Frequencies --   3112.6909              3120.0314              3154.6110
 Red. masses --      1.1053                 1.1053                 1.1022
 Frc consts  --      6.3098                 6.3394                 6.4624
 IR Inten    --     10.0642                 6.5664                 8.8781

 - Thermochemistry -
 -------------------
 Temperature   298.150 Kelvin.  Pressure   1.00000 Atm.
 Atom     1 has atomic number  6 and mass  12.00000

 Molecular mass:   126.06808 amu.
 Principal axes and moments of inertia in atomic units:
                           1         2         3
     Eigenvalues --   600.473011606.783001779.54728
           X            0.99958   0.02179   0.01893
           Y           -0.02130   0.99945  -0.02549
           Z           -0.01947   0.02507   0.99950
 This molecule is an asymmetric top.
 Rotational symmetry number  1.
 Warning -- assumption of classical behavior for rotation
           may cause significant error
 Rotational temperatures (Kelvin)      0.14424     0.05391     0.04867
 Rotational constants (GHZ):           3.00553     1.12320     1.01416
 Zero-point vibrational energy     408604.5 (Joules/Mol)
                                   97.65883 (Kcal/Mol)
 Warning -- explicit consideration of  13 degrees of freedom as
           vibrations may cause significant error
 Vibrational temperatures:     59.03    88.47   248.69   265.89   336.19
          (Kelvin)            386.10   457.61   478.57   542.39   608.15
                              688.22   775.72   848.26   895.21  1002.12
                             1036.87  1223.68  1259.70  1272.69  1377.15
                             1388.23  1446.84  1509.00  1555.38  1613.72
                             1628.38  1666.01  1734.31  1755.10  1811.12
                             1874.37  1990.00  2033.68  2050.97  2077.93
                             2105.07  2125.01  2156.06  2159.94  2589.38
                             2727.83  4363.80  4376.03  4389.45  4403.52
                             4457.78  4465.25  4476.41  4478.46  4489.02
                             4538.78

 Zero-point correction=                           0.155629 (Hartree/Particle)
 Thermal correction to Energy=                    0.165189
 Thermal correction to Enthalpy=                  0.166133
 Thermal correction to Gibbs Free Energy=         0.120661
 Sum of electronic and zero-point Energies=           -423.060779
 Sum of electronic and thermal Energies=              -423.051219
 Sum of electronic and thermal Enthalpies=            -423.050275
 Sum of electronic and thermal Free Energies=         -423.095747

                     E (Thermal)             CV                S
                      KCal/Mol        Cal/Mol-Kelvin    Cal/Mol-Kelvin
 Total                  103.658             35.175             95.704
 Electronic               0.000              0.000              0.000
 Translational            0.889              2.981             40.409
 Rotational               0.889              2.981             28.931
 Vibrational            101.880             29.214             26.364
 Vibration     1          0.594              1.981              5.209
 Vibration     2          0.597              1.973              4.409
 Vibration     3          0.626              1.876              2.404
 Vibration     4          0.631              1.861              2.279
 Vibration     5          0.654              1.789              1.851
 Vibration     6          0.673              1.731              1.607
 Vibration     7          0.704              1.639              1.320
 Vibration     8          0.715              1.610              1.247
 Vibration     9          0.748              1.519              1.051
 Vibration    10          0.785              1.421              0.883
 Vibration    11          0.835              1.298              0.715
 Vibration    12          0.894              1.163              0.567
 Vibration    13          0.947              1.054              0.468

 Optimization completed.
    -- Stationary point found.
 Normal termination of Gaussian 09 at Mon Jan 27 14:45:56 2020.
