 Gaussian 09, Revision D.01,
 Gaussian 09:  ES64L-G09RevD.01 24-Apr-2013

 -----------------------------
 # b3lyp 6-31G(2df,p) opt Freq
 -----------------------------

 -----
 titel
 -----
 Symbolic Z-matrix:
 Charge =  0 Multiplicity = 1

 SCF Done:  E(RB3LYP) =  -423.206701961     A.U. after   14 cycles
 Optimization completed.
    -- Stationary point found.
 Normal termination of Gaussian 09 at Tue Jan 28 12:08:58 2020.

 ----------------------------------------------------------------------
 #N Geom=AllCheck Guess=TCheck SCRF=Check GenChk RB3LYP/6-31G(2df,p) Fr
 eq
 ----------------------------------------------------------------------

 Structure from the checkpoint file:  "/scratch/puck/g09_103a0f65-d738-425c-97a4-b38334fdf404/Gau-128746.chk"
 -----
 titel
 -----
 Charge =  0 Multiplicity = 1

                         Standard orientation:
 ---------------------------------------------------------------------
 Center     Atomic      Atomic             Coordinates (Angstroms)
 Number     Number       Type             X           Y           Z
 ---------------------------------------------------------------------
      1          6           0       -2.728007   -0.976026    0.594794
      2          6           0       -1.714207   -0.863376   -0.561384
      3          6           0       -0.596733    0.091261   -0.272701
      4          6           0        0.710769   -0.146094   -0.065356
      5          6           0        1.437408    1.150634    0.182153
      6          8           0        0.427746    2.158792    0.133818
      7          6           0       -0.826263    1.578774   -0.179312
      8          6           0        1.407844   -1.428163   -0.072383
      9          8           0        2.600478   -1.539165    0.124931
     10          1           0       -3.194066   -0.012238    0.818825
     11          1           0       -3.523167   -1.679680    0.333294
     12          1           0       -2.241054   -1.334487    1.506414
     13          1           0       -1.317029   -1.855362   -0.793161
     14          1           0       -2.241325   -0.521230   -1.462310
     15          1           0        1.937835    1.167913    1.159891
     16          1           0        2.207152    1.342168   -0.579254
     17          1           0       -1.564644    1.839178    0.595437
     18          1           0       -1.214340    1.977375   -1.132982
     19          1           0        0.779977   -2.322706   -0.271014
 ---------------------------------------------------------------------

 SCF Done:  E(RB3LYP) =  -423.206701961     A.U. after    1 cycles

 The electronic state is 1-A.
 Alpha  occ. eigenvalues --  -19.14134 -19.13418 -10.26897 -10.24259 -10.23245
 Alpha  occ. eigenvalues --  -10.22108 -10.21231 -10.19799 -10.19704  -1.04305
 Alpha  occ. eigenvalues --   -1.03748  -0.83708  -0.77528  -0.73893  -0.65420
 Alpha  occ. eigenvalues --   -0.65067  -0.59669  -0.53756  -0.49798  -0.48685
 Alpha  occ. eigenvalues --   -0.47757  -0.44723  -0.43911  -0.42242  -0.41738
 Alpha  occ. eigenvalues --   -0.40262  -0.39605  -0.38434  -0.36789  -0.35889
 Alpha  occ. eigenvalues --   -0.32375  -0.28010  -0.25287  -0.24264
 Alpha virt. eigenvalues --   -0.06021   0.05855   0.07474   0.09708   0.11077
 Alpha virt. eigenvalues --    0.12137   0.13346   0.14753   0.15343   0.15943
 Alpha virt. eigenvalues --    0.16245   0.18669   0.19377   0.20898   0.21942

 Mulliken charges:
               1
     1  C   -0.378204
     2  C   -0.302521
     3  C    0.191419
     4  C    0.101963
     5  C   -0.155383
     6  O   -0.266794
     7  C   -0.141833
     8  C    0.063192
     9  O   -0.270688
    10  H    0.128478
    11  H    0.125993
    12  H    0.130892
    13  H    0.119414
    14  H    0.119104
    15  H    0.121520
    16  H    0.119092
    17  H    0.115290
    18  H    0.110055
    19  H    0.069009
 Sum of Mulliken charges =   0.00000

 Dipole moment (field-independent basis, Debye):
    X=             -3.8476    Y=             -0.4843    Z=             -0.6420  Tot=              3.9307
 Quadrupole moment (field-independent basis, Debye-Ang):
   XX=            -57.7912   YY=            -58.1094   ZZ=            -52.2610
   XY=              4.1924   XZ=             -0.0590   YZ=             -0.0219

  Exact polarizability: 110.348  -6.348  79.406   4.810  -0.176  57.040
 Approx polarizability: 175.494 -20.137 112.088  12.927  -1.200  87.198

                      1                      2                      3
                      A                      A                      A
 Frequencies --     46.6899                80.3761               131.0896
 Red. masses --      2.5071                 2.6726                 4.0895
 Frc consts  --      0.0032                 0.0102                 0.0414
 IR Inten    --      1.0038                 3.3330                 5.8893

                      4                      5                      6
                      A                      A                      A
 Frequencies --    146.2092               179.4436               223.9748
 Red. masses --      2.4469                 2.6984                 1.5257
 Frc consts  --      0.0308                 0.0512                 0.0451
 IR Inten    --      0.2530                 4.1695                 2.0551

                      7                      8                      9
                      A                      A                      A
 Frequencies --    246.9183               316.7591               365.6133
 Red. masses --      2.2756                 2.2161                 2.8081
 Frc consts  --      0.0817                 0.1310                 0.2212
 IR Inten    --      3.4556                 1.1261                 2.0463

                     10                     11                     12
                      A                      A                      A
 Frequencies --    513.1497               545.9424               613.0326
 Red. masses --      3.7584                 3.8922                 3.0616
 Frc consts  --      0.5831                 0.6835                 0.6779
 IR Inten    --      0.0422                 3.0449                 1.8176

                     13                     14                     15
                      A                      A                      A
 Frequencies --    708.3334               786.4985               839.5550
 Red. masses --      6.5791                 1.2073                 3.8712
 Frc consts  --      1.9449                 0.4400                 1.6076
 IR Inten    --     34.7470                 2.3887                 8.5772

                     16                     17                     18
                      A                      A                      A
 Frequencies --    948.2120               955.7247               971.3327
 Red. masses --      3.5613                 2.6848                 1.6459
 Frc consts  --      1.8865                 1.4449                 0.9149
 IR Inten    --     13.1653                 6.1748                 1.4635

                     19                     20                     21
                      A                      A                      A
 Frequencies --    986.7858              1027.0319              1059.8706
 Red. masses --      1.8912                 1.6910                 1.8464
 Frc consts  --      1.0850                 1.0509                 1.2220
 IR Inten    --      0.3161                 1.5455                 5.2792

                     22                     23                     24
                      A                      A                      A
 Frequencies --   1075.8759              1102.8429              1128.5367
 Red. masses --      2.6750                 3.1084                 2.7758
 Frc consts  --      1.8243                 2.2275                 2.0829
 IR Inten    --     18.3468                16.4327                11.5973

                     25                     26                     27
                      A                      A                      A
 Frequencies --   1171.6043              1213.1781              1222.0898
 Red. masses --      1.1089                 2.8698                 1.0709
 Frc consts  --      0.8968                 2.4886                 0.9424
 IR Inten    --      0.8328                11.3191                 0.7187

                     28                     29                     30
                      A                      A                      A
 Frequencies --   1281.2400              1306.2908              1346.2130
 Red. masses --      1.7041                 1.3344                 1.4313
 Frc consts  --      1.6481                 1.3416                 1.5283
 IR Inten    --     49.4146                14.9561                 3.2656

                     31                     32                     33
                      A                      A                      A
 Frequencies --   1388.0942              1392.9309              1410.5025
 Red. masses --      1.5107                 2.1523                 1.2545
 Frc consts  --      1.7150                 2.4604                 1.4705
 IR Inten    --      5.6590                24.7641                 5.6852

                     34                     35                     36
                      A                      A                      A
 Frequencies --   1426.2239              1483.6937              1498.6784
 Red. masses --      1.3097                 1.0745                 1.0407
 Frc consts  --      1.5697                 1.3936                 1.3772
 IR Inten    --      5.1972                 4.7023                 5.9736

                     37                     38                     39
                      A                      A                      A
 Frequencies --   1504.2055              1511.0055              1525.8188
 Red. masses --      1.0741                 1.0819                 1.0852
 Frc consts  --      1.4318                 1.4553                 1.4886
 IR Inten    --      5.7570                 0.7868                 0.9096

                     40                     41                     42
                      A                      A                      A
 Frequencies --   1701.8797              1769.9373              2898.3653
 Red. masses --      7.9563                10.1103                 1.0819
 Frc consts  --     13.5775                18.6608                 5.3547
 IR Inten    --     59.6156               272.4073                95.2978

                     43                     44                     45
                      A                      A                      A
 Frequencies --   2953.7054              2985.4935              3001.6686
 Red. masses --      1.0687                 1.0894                 1.0596
 Frc consts  --      5.4936                 5.7211                 5.6250
 IR Inten    --     61.6869                46.0844                36.5266

                     46                     47                     48
                      A                      A                      A
 Frequencies --   3021.2434              3027.1188              3044.8251
 Red. masses --      1.0676                 1.1038                 1.0344
 Frc consts  --      5.7414                 5.9592                 5.6504
 IR Inten    --     20.8805                34.1620                25.6123

                     49                     50                     51
                      A                      A                      A
 Frequencies --   3085.6023              3119.2049              3120.8586
 Red. masses --      1.0934                 1.1023                 1.1022
 Frc consts  --      6.1334                 6.3186                 6.3250
 IR Inten    --      6.5886                24.5267                29.7771

 - Thermochemistry -
 -------------------
 Temperature   298.150 Kelvin.  Pressure   1.00000 Atm.
 Atom     1 has atomic number  6 and mass  12.00000

 Molecular mass:   126.06808 amu.
 Principal axes and moments of inertia in atomic units:
                           1         2         3
     Eigenvalues --   880.198641322.792892062.80785
           X            0.99622   0.08670  -0.00502
           Y           -0.08671   0.99623  -0.00162
           Z            0.00486   0.00205   0.99999
 This molecule is an asymmetric top.
 Rotational symmetry number  1.
 Warning -- assumption of classical behavior for rotation
           may cause significant error
 Rotational temperatures (Kelvin)      0.09840     0.06548     0.04199
 Rotational constants (GHZ):           2.05038     1.36434     0.87490
 Zero-point vibrational energy     415172.8 (Joules/Mol)
                                   99.22868 (Kcal/Mol)
 Warning -- explicit consideration of  12 degrees of freedom as
           vibrations may cause significant error
 Vibrational temperatures:     67.18   115.64   188.61   210.36   258.18
          (Kelvin)            322.25   355.26   455.75   526.04   738.31
                              785.49   882.02  1019.13  1131.59  1207.93
                             1364.26  1375.07  1397.53  1419.76  1477.67
                             1524.92  1547.94  1586.74  1623.71  1685.68
                             1745.49  1758.31  1843.42  1879.46  1936.90
                             1997.16  2004.11  2029.40  2052.02  2134.70
                             2156.26  2164.21  2174.00  2195.31  2448.62
                             2546.54  4170.10  4249.72  4295.45  4318.73
                             4346.89  4355.34  4380.82  4439.49  4487.83
                             4490.21

 Zero-point correction=                           0.158131 (Hartree/Particle)
 Thermal correction to Energy=                    0.167521
 Thermal correction to Enthalpy=                  0.168466
 Thermal correction to Gibbs Free Energy=         0.122849
 Sum of electronic and zero-point Energies=           -423.048571
 Sum of electronic and thermal Energies=              -423.039181
 Sum of electronic and thermal Enthalpies=            -423.038236
 Sum of electronic and thermal Free Energies=         -423.083853

                     E (Thermal)             CV                S
                      KCal/Mol        Cal/Mol-Kelvin    Cal/Mol-Kelvin
 Total                  105.121             32.866             96.009
 Electronic               0.000              0.000              0.000
 Translational            0.889              2.981             40.409
 Rotational               0.889              2.981             29.264
 Vibrational            103.344             26.904             26.336
 Vibration     1          0.595              1.979              4.953
 Vibration     2          0.600              1.962              3.882
 Vibration     3          0.612              1.922              2.930
 Vibration     4          0.617              1.907              2.721
 Vibration     5          0.629              1.868              2.334
 Vibration     6          0.649              1.805              1.927
 Vibration     7          0.661              1.768              1.752
 Vibration     8          0.704              1.642              1.327
 Vibration     9          0.739              1.543              1.098
 Vibration    10          0.868              1.221              0.626
 Vibration    11          0.901              1.149              0.553
 Vibration    12          0.972              1.004              0.428

 Optimization completed.
    -- Stationary point found.
 Normal termination of Gaussian 09 at Tue Jan 28 12:56:19 2020.
