 Gaussian 09, Revision D.01,
 Gaussian 09:  ES64L-G09RevD.01 24-Apr-2013

 -----------------------------
 # b3lyp 6-31G(2df,p) opt Freq
 -----------------------------

 -----
 titel
 -----
 Symbolic Z-matrix:
 Charge =  0 Multiplicity = 1

 SCF Done:  E(RB3LYP) =  -423.097913555     A.U. after   14 cycles
 Optimization completed.
    -- Stationary point found.
 Normal termination of Gaussian 09 at Tue Jan 28 04:02:44 2020.

 ----------------------------------------------------------------------
 #N Geom=AllCheck Guess=TCheck SCRF=Check GenChk RB3LYP/6-31G(2df,p) Fr
 eq
 ----------------------------------------------------------------------

 Structure from the checkpoint file:  "/scratch/puck/g09_5f69b9e4-e8a0-47ed-9599-d8d85b4193e5/Gau-93613.chk"
 -----
 titel
 -----
 Charge =  0 Multiplicity = 1

                         Standard orientation:
 ---------------------------------------------------------------------
 Center     Atomic      Atomic             Coordinates (Angstroms)
 Number     Number       Type             X           Y           Z
 ---------------------------------------------------------------------
      1          6           0       -1.862938    1.493371   -0.295399
      2          6           0       -1.337300    0.289699    0.473154
      3          6           0       -1.850884   -1.111131    0.063854
      4          8           0       -0.508045   -1.557209   -0.246956
      5          6           0        0.031641   -0.278851    0.074108
      6          6           0        1.082402    0.423806   -0.827755
      7          6           0        2.139470   -0.604425   -0.361334
      8          6           0        1.347586   -0.120742    0.875304
      9          8           0        1.407916    1.265300    0.349546
     10          1           0       -1.818891    1.322359   -1.376628
     11          1           0       -2.905484    1.701661   -0.032702
     12          1           0       -1.267000    2.381173   -0.067384
     13          1           0       -1.408181    0.466152    1.549845
     14          1           0       -2.304973   -1.718530    0.854176
     15          1           0       -2.495687   -1.129240   -0.823335
     16          1           0        0.972078    0.924334   -1.789760
     17          1           0        2.011738   -1.642654   -0.672735
     18          1           0        3.171350   -0.254413   -0.411477
     19          1           0        1.546213   -0.265929    1.937686
 ---------------------------------------------------------------------

 SCF Done:  E(RB3LYP) =  -423.097913555     A.U. after    1 cycles

 The electronic state is 1-A.
 Alpha  occ. eigenvalues --  -19.13956 -19.13707 -10.24410 -10.24309 -10.24283
 Alpha  occ. eigenvalues --  -10.23168 -10.19530 -10.19029 -10.17969  -1.06569
 Alpha  occ. eigenvalues --   -1.03721  -0.78306  -0.77927  -0.67826  -0.66921
 Alpha  occ. eigenvalues --   -0.65265  -0.59225  -0.52232  -0.50825  -0.48243
 Alpha  occ. eigenvalues --   -0.46737  -0.46577  -0.41227  -0.40329  -0.40103
 Alpha  occ. eigenvalues --   -0.39841  -0.36892  -0.34838  -0.34154  -0.32680
 Alpha  occ. eigenvalues --   -0.31605  -0.30060  -0.24775  -0.24102
 Alpha virt. eigenvalues --    0.07010   0.09060   0.11419   0.11589   0.12205
 Alpha virt. eigenvalues --    0.13455   0.14592   0.14940   0.15085   0.15932
 Alpha virt. eigenvalues --    0.16331   0.17604   0.18350   0.18523   0.19931

 Mulliken charges:
               1
     1  C   -0.408783
     2  C   -0.141814
     3  C   -0.095916
     4  O   -0.335886
     5  C    0.526242
     6  C   -0.028932
     7  C   -0.242335
     8  C   -0.030441
     9  O   -0.321105
    10  H    0.114676
    11  H    0.114508
    12  H    0.139638
    13  H    0.087219
    14  H    0.105402
    15  H    0.102305
    16  H    0.094305
    17  H    0.121640
    18  H    0.106596
    19  H    0.092682
 Sum of Mulliken charges =   0.00000

 Dipole moment (field-independent basis, Debye):
    X=             -1.1106    Y=             -0.2349    Z=              0.0656  Tot=              1.1371
 Quadrupole moment (field-independent basis, Debye-Ang):
   XX=            -50.2473   YY=            -58.4270   ZZ=            -50.4065
   XY=             -2.4344   XZ=             -1.0058   YZ=             -2.3020

  Exact polarizability:  87.003  -0.126  70.628  -0.414  -1.763  67.884
 Approx polarizability: 111.579   2.764 109.095   0.648  -0.036 106.883

                      1                      2                      3
                      A                      A                      A
 Frequencies --     72.3516               162.1481               187.1522
 Red. masses --      2.8197                 3.3749                 2.8639
 Frc consts  --      0.0087                 0.0523                 0.0591
 IR Inten    --      0.3284                 1.8807                 4.8066

                      4                      5                      6
                      A                      A                      A
 Frequencies --    240.4805               286.5641               353.9421
 Red. masses --      1.1406                 3.1180                 2.8806
 Frc consts  --      0.0389                 0.1509                 0.2126
 IR Inten    --      0.7970                 4.4605                 1.2895

                      7                      8                      9
                      A                      A                      A
 Frequencies --    444.7373               462.6341               553.6491
 Red. masses --      2.8671                 3.5466                 2.6394
 Frc consts  --      0.3341                 0.4472                 0.4767
 IR Inten    --      0.9335                 0.0454                 0.8745

                     10                     11                     12
                      A                      A                      A
 Frequencies --    635.5030               758.5786               774.3883
 Red. masses --      3.7674                 5.3568                 3.7069
 Frc consts  --      0.8965                 1.8162                 1.3097
 IR Inten    --      7.0605                 9.6241                11.1534

                     13                     14                     15
                      A                      A                      A
 Frequencies --    824.4022               880.0930               888.6309
 Red. masses --      2.6678                 2.7411                 2.3528
 Frc consts  --      1.0683                 1.2509                 1.0946
 IR Inten    --      0.2520                20.5074                 5.6598

                     16                     17                     18
                      A                      A                      A
 Frequencies --    906.0154               916.9938               938.8586
 Red. masses --      1.7464                 2.3733                 1.5730
 Frc consts  --      0.8446                 1.1758                 0.8169
 IR Inten    --      2.1775                 2.6716                 0.7955

                     19                     20                     21
                      A                      A                      A
 Frequencies --   1000.2599              1010.2542              1022.7569
 Red. masses --      2.1992                 3.8640                 1.1569
 Frc consts  --      1.2964                 2.3235                 0.7130
 IR Inten    --     17.4526                90.6406                11.8003

                     22                     23                     24
                      A                      A                      A
 Frequencies --   1071.3014              1089.3608              1119.9135
 Red. masses --      2.3076                 4.1265                 1.5868
 Frc consts  --      1.5604                 2.8852                 1.1726
 IR Inten    --     19.7243                63.8788                10.0431

                     25                     26                     27
                      A                      A                      A
 Frequencies --   1129.9001              1149.6718              1156.8166
 Red. masses --      1.7649                 2.4295                 1.5659
 Frc consts  --      1.3275                 1.8920                 1.2347
 IR Inten    --      4.2107                27.8792                14.7860

                     28                     29                     30
                      A                      A                      A
 Frequencies --   1172.5364              1186.4022              1204.7962
 Red. masses --      1.3317                 1.6320                 1.9268
 Frc consts  --      1.0787                 1.3534                 1.6479
 IR Inten    --      0.6076                 2.3066                 5.4671

                     31                     32                     33
                      A                      A                      A
 Frequencies --   1212.9382              1266.7671              1271.3903
 Red. masses --      1.6069                 1.4748                 1.5575
 Frc consts  --      1.3929                 1.3943                 1.4833
 IR Inten    --      8.5924                 1.2677                 1.6822

                     34                     35                     36
                      A                      A                      A
 Frequencies --   1334.7243              1339.7123              1390.3309
 Red. masses --      1.5862                 1.8889                 2.1180
 Frc consts  --      1.6649                 1.9975                 2.4122
 IR Inten    --      9.8654                24.2425                 6.5066

                     37                     38                     39
                      A                      A                      A
 Frequencies --   1408.3225              1477.3343              1494.2743
 Red. masses --      1.2396                 1.1654                 1.0482
 Frc consts  --      1.4485                 1.4985                 1.3789
 IR Inten    --      3.8095                 3.7833                 5.4754

                     40                     41                     42
                      A                      A                      A
 Frequencies --   1502.7765              1527.4274              3021.3100
 Red. masses --      1.0554                 1.1097                 1.0557
 Frc consts  --      1.4042                 1.5254                 5.6776
 IR Inten    --      5.4852                 1.4479                68.5640

                     43                     44                     45
                      A                      A                      A
 Frequencies --   3032.9650              3061.9271              3076.0424
 Red. masses --      1.0366                 1.0958                 1.0543
 Frc consts  --      5.6180                 6.0532                 5.8778
 IR Inten    --     25.8323                 4.5924                27.3850

                     46                     47                     48
                      A                      A                      A
 Frequencies --   3076.7400              3099.3515              3115.2488
 Red. masses --      1.1002                 1.1004                 1.0905
 Frc consts  --      6.1360                 6.2280                 6.2354
 IR Inten    --     35.7087                36.3246                79.8968

                     49                     50                     51
                      A                      A                      A
 Frequencies --   3118.3677              3122.9459              3156.8802
 Red. masses --      1.1007                 1.0958                 1.1126
 Frc consts  --      6.3064                 6.2966                 6.5327
 IR Inten    --     15.4236                 7.3242                16.6081

 - Thermochemistry -
 -------------------
 Temperature   298.150 Kelvin.  Pressure   1.00000 Atm.
 Atom     1 has atomic number  6 and mass  12.00000

 Molecular mass:   126.06808 amu.
 Principal axes and moments of inertia in atomic units:
                           1         2         3
     Eigenvalues --   613.888411124.356641459.23634
           X            0.99847  -0.05517  -0.00230
           Y            0.05508   0.99805  -0.02951
           Z            0.00392   0.02934   0.99956
 This molecule is an asymmetric top.
 Rotational symmetry number  1.
 Warning -- assumption of classical behavior for rotation
           may cause significant error
 Rotational temperatures (Kelvin)      0.14109     0.07703     0.05936
 Rotational constants (GHZ):           2.93985     1.60513     1.23677
 Zero-point vibrational energy     416951.6 (Joules/Mol)
                                   99.65383 (Kcal/Mol)
 Warning -- explicit consideration of   9 degrees of freedom as
           vibrations may cause significant error
 Vibrational temperatures:    104.10   233.29   269.27   346.00   412.30
          (Kelvin)            509.24   639.88   665.63   796.58   914.35
                             1091.42  1114.17  1186.13  1266.26  1278.54
                             1303.55  1319.35  1350.81  1439.15  1453.53
                             1471.52  1541.36  1567.35  1611.30  1625.67
                             1654.12  1664.40  1687.02  1706.97  1733.43
                             1745.15  1822.59  1829.24  1920.37  1927.54
                             2000.37  2026.26  2125.55  2149.92  2162.16
                             2197.62  4346.99  4363.75  4405.42  4425.73
                             4426.74  4459.27  4482.14  4486.63  4493.22
                             4542.04

 Zero-point correction=                           0.158808 (Hartree/Particle)
 Thermal correction to Energy=                    0.166685
 Thermal correction to Enthalpy=                  0.167629
 Thermal correction to Gibbs Free Energy=         0.126320
 Sum of electronic and zero-point Energies=           -422.939105
 Sum of electronic and thermal Energies=              -422.931228
 Sum of electronic and thermal Enthalpies=            -422.930284
 Sum of electronic and thermal Free Energies=         -422.971594

                     E (Thermal)             CV                S
                      KCal/Mol        Cal/Mol-Kelvin    Cal/Mol-Kelvin
 Total                  104.597             30.625             86.943
 Electronic               0.000              0.000              0.000
 Translational            0.889              2.981             40.409
 Rotational               0.889              2.981             28.401
 Vibrational            102.819             24.664             18.134
 Vibration     1          0.598              1.967              4.088
 Vibration     2          0.622              1.889              2.525
 Vibration     3          0.632              1.857              2.256
 Vibration     4          0.658              1.778              1.799
 Vibration     5          0.684              1.699              1.494
 Vibration     6          0.730              1.567              1.149
 Vibration     7          0.804              1.373              0.812
 Vibration     8          0.820              1.333              0.758
 Vibration     9          0.909              1.132              0.537

 Optimization completed.
    -- Stationary point found.
 Normal termination of Gaussian 09 at Tue Jan 28 04:46:49 2020.
