 Gaussian 09, Revision D.01,
 Gaussian 09:  ES64L-G09RevD.01 24-Apr-2013

 -----------------------------
 # b3lyp 6-31G(2df,p) opt Freq
 -----------------------------

 -----
 titel
 -----
 Symbolic Z-matrix:
 Charge =  0 Multiplicity = 1

 SCF Done:  E(RB3LYP) =  -423.243780130     A.U. after   14 cycles
 Optimization completed.
    -- Stationary point found.
 Normal termination of Gaussian 09 at Tue Jan 28 12:09:10 2020.

 ----------------------------------------------------------------------
 #N Geom=AllCheck Guess=TCheck SCRF=Check GenChk RB3LYP/6-31G(2df,p) Fr
 eq
 ----------------------------------------------------------------------

 Structure from the checkpoint file:  "/scratch/puck/g09_76547454-76f3-42c6-9273-27f636e69cfa/Gau-128791.chk"
 -----
 titel
 -----
 Charge =  0 Multiplicity = 1

                         Standard orientation:
 ---------------------------------------------------------------------
 Center     Atomic      Atomic             Coordinates (Angstroms)
 Number     Number       Type             X           Y           Z
 ---------------------------------------------------------------------
      1          6           0       -3.098381   -0.204309    0.642408
      2          6           0       -2.161742   -0.633597   -0.502593
      3          6           0       -0.740078   -0.179890   -0.308980
      4          6           0        0.259192   -1.018740   -0.003158
      5          6           0        1.673810   -0.596931    0.069668
      6          8           0        2.596944   -1.369923    0.094010
      7          8           0        1.925085    0.742913    0.048713
      8          6           0        0.835195    1.634752    0.309004
      9          6           0       -0.409909    1.280870   -0.492862
     10          1           0       -4.119287   -0.544500    0.446708
     11          1           0       -2.772147   -0.634939    1.593700
     12          1           0       -3.128929    0.883577    0.758335
     13          1           0       -2.184601   -1.723555   -0.601105
     14          1           0       -2.541075   -0.220309   -1.447262
     15          1           0        0.103209   -2.085544    0.113775
     16          1           0        0.604722    1.609845    1.382577
     17          1           0        1.208616    2.630982    0.062136
     18          1           0       -1.239709    1.919297   -0.170335
     19          1           0       -0.255548    1.488293   -1.561229
 ---------------------------------------------------------------------

 SCF Done:  E(RB3LYP) =  -423.243780130     A.U. after    1 cycles

 The electronic state is 1-A.
 Alpha  occ. eigenvalues --  -19.17041 -19.10927 -10.29584 -10.24983 -10.22066
 Alpha  occ. eigenvalues --  -10.20867 -10.20547 -10.19451 -10.19282  -1.08638
 Alpha  occ. eigenvalues --   -1.00558  -0.84565  -0.77346  -0.75479  -0.66802
 Alpha  occ. eigenvalues --   -0.65517  -0.58192  -0.53679  -0.51265  -0.49546
 Alpha  occ. eigenvalues --   -0.46650  -0.45217  -0.43704  -0.41964  -0.41082
 Alpha  occ. eigenvalues --   -0.40435  -0.39119  -0.38034  -0.37141  -0.35367
 Alpha  occ. eigenvalues --   -0.32543  -0.28666  -0.26834  -0.25689
 Alpha virt. eigenvalues --   -0.03960   0.06935   0.08536   0.10523   0.11631
 Alpha virt. eigenvalues --    0.11738   0.12901   0.14531   0.14915   0.15894
 Alpha virt. eigenvalues --    0.16349   0.17306   0.19864   0.20801   0.21766

 Mulliken charges:
               1
     1  C   -0.378088
     2  C   -0.280655
     3  C    0.314182
     4  C   -0.304189
     5  C    0.422250
     6  O   -0.341844
     7  O   -0.237235
     8  C   -0.079742
     9  C   -0.316522
    10  H    0.125160
    11  H    0.129892
    12  H    0.121914
    13  H    0.115132
    14  H    0.112570
    15  H    0.111753
    16  H    0.112975
    17  H    0.123286
    18  H    0.117220
    19  H    0.131940
 Sum of Mulliken charges =   0.00000

 Dipole moment (field-independent basis, Debye):
    X=             -4.9339    Y=              2.2238    Z=             -0.1588  Tot=              5.4142
 Quadrupole moment (field-independent basis, Debye-Ang):
   XX=            -63.2006   YY=            -51.7504   ZZ=            -52.2988
   XY=              5.1220   XZ=              0.3569   YZ=              0.0294

  Exact polarizability: 100.078  -8.001  82.288   3.067  -1.702  57.508
 Approx polarizability: 143.897 -25.205 127.047   7.753  -5.871  88.128

                      1                      2                      3
                      A                      A                      A
 Frequencies --     64.3304               106.9969               151.8981
 Red. masses --      2.5400                 3.4515                 3.7883
 Frc consts  --      0.0062                 0.0233                 0.0515
 IR Inten    --      1.1391                 0.4407                 0.7480

                      4                      5                      6
                      A                      A                      A
 Frequencies --    208.5023               241.0870               284.9167
 Red. masses --      1.3123                 2.5786                 2.3781
 Frc consts  --      0.0336                 0.0883                 0.1137
 IR Inten    --      1.1455                 3.0808                 0.4688

                      7                      8                      9
                      A                      A                      A
 Frequencies --    319.7479               440.8585               469.7715
 Red. masses --      2.1288                 5.3916                 2.9848
 Frc consts  --      0.1282                 0.6174                 0.3881
 IR Inten    --      2.6318                 0.2225                 2.3145

                     10                     11                     12
                      A                      A                      A
 Frequencies --    511.5968               582.7430               660.3075
 Red. masses --      3.9995                 3.1503                 3.8888
 Frc consts  --      0.6168                 0.6303                 0.9990
 IR Inten    --      1.7735                 4.7445                 6.5472

                     13                     14                     15
                      A                      A                      A
 Frequencies --    743.3048               782.8852               805.4795
 Red. masses --      3.5996                 1.4101                 1.8501
 Frc consts  --      1.1717                 0.5092                 0.7072
 IR Inten    --      4.4252                 0.3893                 7.7479

                     16                     17                     18
                      A                      A                      A
 Frequencies --    852.3652               911.1490               923.8877
 Red. masses --      3.2909                 1.7357                 2.2384
 Frc consts  --      1.4087                 0.8490                 1.1257
 IR Inten    --     16.0048                23.2067                 8.1487

                     19                     20                     21
                      A                      A                      A
 Frequencies --    966.3679              1009.2103              1054.9136
 Red. masses --      2.1976                 2.0965                 1.8431
 Frc consts  --      1.2091                 1.2581                 1.2084
 IR Inten    --      1.1410                 4.4532                 4.8273

                     22                     23                     24
                      A                      A                      A
 Frequencies --   1074.1556              1100.1259              1113.0662
 Red. masses --      1.7146                 2.4151                 3.0421
 Frc consts  --      1.1656                 1.7221                 2.2206
 IR Inten    --      4.1274                32.2548                41.5068

                     25                     26                     27
                      A                      A                      A
 Frequencies --   1163.6778              1224.6791              1233.9017
 Red. masses --      2.5483                 1.5380                 1.5711
 Frc consts  --      2.0331                 1.3591                 1.4093
 IR Inten    --     39.4391                39.5699                69.7022

                     28                     29                     30
                      A                      A                      A
 Frequencies --   1267.2602              1293.0042              1340.5036
 Red. masses --      1.2717                 1.2667                 1.4155
 Frc consts  --      1.2033                 1.2477                 1.4986
 IR Inten    --      0.4657                41.4209                29.3794

                     31                     32                     33
                      A                      A                      A
 Frequencies --   1348.6259              1388.7892              1409.6094
 Red. masses --      1.4498                 2.0630                 1.2431
 Frc consts  --      1.5536                 2.3443                 1.4553
 IR Inten    --      2.2263                22.2967                 1.4435

                     34                     35                     36
                      A                      A                      A
 Frequencies --   1428.8893              1463.8563              1480.8983
 Red. masses --      1.3883                 1.0938                 1.0721
 Frc consts  --      1.6700                 1.3810                 1.3853
 IR Inten    --     19.4054                 2.5697                 4.4006

                     37                     38                     39
                      A                      A                      A
 Frequencies --   1500.2939              1506.6192              1507.3538
 Red. masses --      1.0414                 1.0750                 1.0921
 Frc consts  --      1.3811                 1.4377                 1.4620
 IR Inten    --      6.8587                 5.4594                 3.8487

                     40                     41                     42
                      A                      A                      A
 Frequencies --   1700.0290              1824.0503              3012.6891
 Red. masses --      7.6348                12.0476                 1.0695
 Frc consts  --     13.0005                23.6170                 5.7190
 IR Inten    --     26.0147               395.5660                12.2195

                     43                     44                     45
                      A                      A                      A
 Frequencies --   3017.6885              3022.9472              3041.1496
 Red. masses --      1.0659                 1.0645                 1.0348
 Frc consts  --      5.7190                 5.7316                 5.6386
 IR Inten    --     10.2558                47.4356                20.9654

                     46                     47                     48
                      A                      A                      A
 Frequencies --   3073.9435              3074.9366              3106.6632
 Red. masses --      1.0933                 1.0956                 1.0976
 Frc consts  --      6.0865                 6.1034                 6.2415
 IR Inten    --     25.7955                 4.2895                28.6294

                     49                     50                     51
                      A                      A                      A
 Frequencies --   3112.5826              3117.5768              3195.0463
 Red. masses --      1.1012                 1.1029                 1.0915
 Frc consts  --      6.2858                 6.3155                 6.5647
 IR Inten    --     35.0530                24.8915                 3.9536

 - Thermochemistry -
 -------------------
 Temperature   298.150 Kelvin.  Pressure   1.00000 Atm.
 Atom     1 has atomic number  6 and mass  12.00000

 Molecular mass:   126.06808 amu.
 Principal axes and moments of inertia in atomic units:
                           1         2         3
     Eigenvalues --   574.689561648.087492053.80959
           X            0.99977   0.02101  -0.00517
           Y           -0.02099   0.99978   0.00221
           Z            0.00521  -0.00210   0.99998
 This molecule is an asymmetric top.
 Rotational symmetry number  1.
 Warning -- assumption of classical behavior for rotation
           may cause significant error
 Rotational temperatures (Kelvin)      0.15071     0.05255     0.04217
 Rotational constants (GHZ):           3.14038     1.09505     0.87873
 Zero-point vibrational energy     420110.1 (Joules/Mol)
                                  100.40873 (Kcal/Mol)
 Warning -- explicit consideration of  11 degrees of freedom as
           vibrations may cause significant error
 Vibrational temperatures:     92.56   153.94   218.55   299.99   346.87
          (Kelvin)            409.93   460.05   634.30   675.90   736.07
                              838.44   950.03  1069.45  1126.40  1158.90
                             1226.36  1310.94  1329.27  1390.39  1452.03
                             1517.78  1545.47  1582.83  1601.45  1674.27
                             1762.04  1775.31  1823.30  1860.34  1928.68
                             1940.37  1998.16  2028.11  2055.85  2106.16
                             2130.68  2158.59  2167.69  2168.74  2445.96
                             2624.40  4334.58  4341.78  4349.34  4375.53
                             4422.71  4424.14  4469.79  4478.31  4485.49
                             4596.95

 Zero-point correction=                           0.160012 (Hartree/Particle)
 Thermal correction to Energy=                    0.168675
 Thermal correction to Enthalpy=                  0.169619
 Thermal correction to Gibbs Free Energy=         0.126205
 Sum of electronic and zero-point Energies=           -423.083769
 Sum of electronic and thermal Energies=              -423.075105
 Sum of electronic and thermal Enthalpies=            -423.074161
 Sum of electronic and thermal Free Energies=         -423.117575

                     E (Thermal)             CV                S
                      KCal/Mol        Cal/Mol-Kelvin    Cal/Mol-Kelvin
 Total                  105.845             32.095             91.372
 Electronic               0.000              0.000              0.000
 Translational            0.889              2.981             40.409
 Rotational               0.889              2.981             29.055
 Vibrational            104.068             26.133             21.909
 Vibration     1          0.597              1.971              4.320
 Vibration     2          0.606              1.944              3.323
 Vibration     3          0.619              1.901              2.648
 Vibration     4          0.642              1.828              2.057
 Vibration     5          0.658              1.777              1.795
 Vibration     6          0.683              1.702              1.504
 Vibration     7          0.706              1.636              1.311
 Vibration     8          0.801              1.381              0.824
 Vibration     9          0.827              1.317              0.738
 Vibration    10          0.867              1.224              0.630
 Vibration    11          0.940              1.069              0.480

 Optimization completed.
    -- Stationary point found.
 Normal termination of Gaussian 09 at Tue Jan 28 12:59:23 2020.
