 Gaussian 09, Revision D.01,
 Gaussian 09:  ES64L-G09RevD.01 24-Apr-2013

 -----------------------------
 # b3lyp 6-31G(2df,p) opt Freq
 -----------------------------

 -----
 titel
 -----
 Symbolic Z-matrix:
 Charge =  0 Multiplicity = 1

 SCF Done:  E(RB3LYP) =  -423.125688992     A.U. after   14 cycles
 Optimization completed.
    -- Stationary point found.
 Normal termination of Gaussian 09 at Tue Jan 28 12:40:00 2020.

 ----------------------------------------------------------------------
 #N Geom=AllCheck Guess=TCheck SCRF=Check GenChk RB3LYP/6-31G(2df,p) Fr
 eq
 ----------------------------------------------------------------------

 Structure from the checkpoint file:  "/scratch/puck/g09_d09af317-3ea1-4121-b5ef-b96d9ffa8a01/Gau-106752.chk"
 -----
 titel
 -----
 Charge =  0 Multiplicity = 1

                         Standard orientation:
 ---------------------------------------------------------------------
 Center     Atomic      Atomic             Coordinates (Angstroms)
 Number     Number       Type             X           Y           Z
 ---------------------------------------------------------------------
      1          6           0        2.780370   -0.755771   -0.647003
      2          6           0        2.038122    0.446982   -0.052794
      3          6           0        0.575948    0.484363   -0.440963
      4          6           0       -0.433926    1.255872    0.351793
      5          8           0       -1.396740    1.958454   -0.362495
      6          6           0       -0.472082   -0.262104    0.403572
      7          8           0       -0.063344   -0.792752    1.638689
      8          6           0       -1.541963   -0.959771   -0.253631
      9          6           0       -2.438310   -1.566441   -0.779880
     10          1           0        2.350451   -1.700670   -0.296641
     11          1           0        2.724292   -0.756742   -1.740814
     12          1           0        3.837745   -0.745878   -0.365668
     13          1           0        2.119237    0.428444    1.038425
     14          1           0        2.515081    1.376657   -0.387628
     15          1           0        0.366223    0.464861   -1.507309
     16          1           0       -0.090723    1.715335    1.280068
     17          1           0       -2.252113    1.811222    0.056640
     18          1           0        0.287095   -1.676403    1.477618
     19          1           0       -3.225573   -2.101233   -1.250806
 ---------------------------------------------------------------------

 SCF Done:  E(RB3LYP) =  -423.125688992     A.U. after    1 cycles

 The electronic state is 1-A.
 Alpha  occ. eigenvalues --  -19.15466 -19.14645 -10.25858 -10.23915 -10.19375
 Alpha  occ. eigenvalues --  -10.18669 -10.18478 -10.17838 -10.17804  -1.04477
 Alpha  occ. eigenvalues --   -1.02838  -0.85320  -0.76707  -0.74352  -0.64891
 Alpha  occ. eigenvalues --   -0.62137  -0.58499  -0.56099  -0.51337  -0.50497
 Alpha  occ. eigenvalues --   -0.47368  -0.46163  -0.42574  -0.41108  -0.39704
 Alpha  occ. eigenvalues --   -0.37762  -0.36101  -0.35007  -0.33622  -0.31207
 Alpha  occ. eigenvalues --   -0.29307  -0.27789  -0.27023  -0.23333
 Alpha virt. eigenvalues --    0.02792   0.04493   0.07528   0.09162   0.11465
 Alpha virt. eigenvalues --    0.12235   0.12903   0.14195   0.15602   0.16527
 Alpha virt. eigenvalues --    0.17251   0.18810   0.19431   0.22061   0.22327

 Mulliken charges:
               1
     1  C   -0.372376
     2  C   -0.210890
     3  C   -0.090734
     4  C    0.033104
     5  O   -0.420114
     6  C    0.125809
     7  O   -0.451043
     8  C    0.306372
     9  C   -0.465490
    10  H    0.105816
    11  H    0.119710
    12  H    0.114990
    13  H    0.112843
    14  H    0.104085
    15  H    0.107045
    16  H    0.101480
    17  H    0.292892
    18  H    0.289557
    19  H    0.196945
 Sum of Mulliken charges =   0.00000

 Dipole moment (field-independent basis, Debye):
    X=              0.2952    Y=             -1.1113    Z=              0.0095  Tot=              1.1499
 Quadrupole moment (field-independent basis, Debye-Ang):
   XX=            -47.0244   YY=            -52.3523   ZZ=            -55.3926
   XY=              0.4516   XZ=              0.7526   YZ=              2.3584

  Exact polarizability:  95.710   9.757  76.494   7.045   5.008  65.340
 Approx polarizability: 129.865  20.109 113.469  15.348   8.447 103.271

                      1                      2                      3
                      A                      A                      A
 Frequencies --     71.1476                89.7263               139.3691
 Red. masses --      2.5396                 3.7209                 3.2298
 Frc consts  --      0.0076                 0.0176                 0.0370
 IR Inten    --      0.2733                 1.3714                 6.1385

                      4                      5                      6
                      A                      A                      A
 Frequencies --    163.1926               210.5961               227.4960
 Red. masses --      1.9161                 1.4095                 1.9077
 Frc consts  --      0.0301                 0.0368                 0.0582
 IR Inten    --      4.2024                 2.1808                81.6614

                      7                      8                      9
                      A                      A                      A
 Frequencies --    271.8602               284.5591               307.4130
 Red. masses --      1.5514                 2.1250                 2.5103
 Frc consts  --      0.0676                 0.1014                 0.1398
 IR Inten    --     33.4056                16.4482                24.3660

                     10                     11                     12
                      A                      A                      A
 Frequencies --    330.4298               389.2558               436.7717
 Red. masses --      2.2730                 2.7644                 5.9978
 Frc consts  --      0.1462                 0.2468                 0.6741
 IR Inten    --     96.2275                14.9106                 1.4485

                     13                     14                     15
                      A                      A                      A
 Frequencies --    507.2731               556.6262               577.3942
 Red. masses --      4.0837                 4.5447                 1.2701
 Frc consts  --      0.6191                 0.8296                 0.2495
 IR Inten    --      4.0002                15.7459                41.6771

                     16                     17                     18
                      A                      A                      A
 Frequencies --    649.4100               677.1773               679.9434
 Red. masses --      3.6807                 1.4532                 2.8458
 Frc consts  --      0.9146                 0.3926                 0.7752
 IR Inten    --      5.6216                27.5241                 5.5137

                     19                     20                     21
                      A                      A                      A
 Frequencies --    778.5566               827.3092               920.4544
 Red. masses --      1.7614                 2.2838                 1.8734
 Frc consts  --      0.6291                 0.9210                 0.9352
 IR Inten    --     20.5988                12.7123                 1.5546

                     22                     23                     24
                      A                      A                      A
 Frequencies --    988.8634              1001.5010              1047.0677
 Red. masses --      2.2850                 2.1284                 1.2109
 Frc consts  --      1.3165                 1.2578                 0.7822
 IR Inten    --      3.1269                 1.0512                 5.2524

                     25                     26                     27
                      A                      A                      A
 Frequencies --   1063.5368              1110.7871              1142.5187
 Red. masses --      2.2032                 2.1211                 3.2850
 Frc consts  --      1.4683                 1.5420                 2.5264
 IR Inten    --     47.6402                18.1989                41.1284

                     28                     29                     30
                      A                      A                      A
 Frequencies --   1171.3341              1215.0104              1235.3960
 Red. masses --      2.3574                 1.6703                 2.4845
 Frc consts  --      1.9056                 1.4528                 2.2341
 IR Inten    --     67.7625                25.7775                25.3858

                     31                     32                     33
                      A                      A                      A
 Frequencies --   1294.4263              1312.6922              1327.1748
 Red. masses --      1.3921                 1.2030                 1.2635
 Frc consts  --      1.3743                 1.2213                 1.3112
 IR Inten    --      4.7929                47.5667                 5.7463

                     34                     35                     36
                      A                      A                      A
 Frequencies --   1353.3039              1391.0728              1412.0695
 Red. masses --      1.4620                 1.4757                 1.2351
 Frc consts  --      1.5776                 1.6825                 1.4510
 IR Inten    --     44.7595                 7.2282                 1.6700

                     37                     38                     39
                      A                      A                      A
 Frequencies --   1468.9062              1483.2913              1497.4621
 Red. masses --      2.6071                 1.0714                 1.0424
 Frc consts  --      3.3143                 1.3889                 1.3772
 IR Inten    --     13.4702                 0.9825                 6.1113

                     40                     41                     42
                      A                      A                      A
 Frequencies --   1503.0068              2227.4148              3029.1833
 Red. masses --      1.0730                 6.0248                 1.0523
 Frc consts  --      1.4281                17.6115                 5.6889
 IR Inten    --      2.4463                 8.1052                14.1746

                     43                     44                     45
                      A                      A                      A
 Frequencies --   3032.2897              3076.2262              3095.9023
 Red. masses --      1.0489                 1.0951                 1.0879
 Frc consts  --      5.6823                 6.1059                 6.1437
 IR Inten    --     36.3090                 0.5304                18.5778

                     46                     47                     48
                      A                      A                      A
 Frequencies --   3099.6174              3106.8933              3153.0360
 Red. masses --      1.1012                 1.1008                 1.0875
 Frc consts  --      6.2334                 6.2606                 6.3700
 IR Inten    --     44.5168                36.6432                 7.0504

                     49                     50                     51
                      A                      A                      A
 Frequencies --   3501.2187              3794.8528              3796.8989
 Red. masses --      1.1598                 1.0661                 1.0661
 Frc consts  --      8.3768                 9.0457                 9.0556
 IR Inten    --     79.7338                20.8083                23.8497

 - Thermochemistry -
 -------------------
 Temperature   298.150 Kelvin.  Pressure   1.00000 Atm.
 Atom     1 has atomic number  6 and mass  12.00000

 Molecular mass:   126.06808 amu.
 Principal axes and moments of inertia in atomic units:
                           1         2         3
     Eigenvalues --   856.149121473.948401787.35531
           X            0.99988  -0.01332  -0.00825
           Y            0.01366   0.99899   0.04275
           Z            0.00767  -0.04286   0.99905
 This molecule is an asymmetric top.
 Rotational symmetry number  1.
 Warning -- assumption of classical behavior for rotation
           may cause significant error
 Rotational temperatures (Kelvin)      0.10117     0.05876     0.04846
 Rotational constants (GHZ):           2.10798     1.22443     1.00973
 Zero-point vibrational energy     406903.3 (Joules/Mol)
                                   97.25222 (Kcal/Mol)
 Warning -- explicit consideration of  15 degrees of freedom as
           vibrations may cause significant error
 Vibrational temperatures:    102.37   129.10   200.52   234.80   303.00
          (Kelvin)            327.32   391.15   409.42   442.30   475.41
                              560.05   628.42   729.85   800.86   830.74
                              934.36   974.31   978.29  1120.17  1190.31
                             1324.33  1422.75  1440.93  1506.49  1530.19
                             1598.17  1643.83  1685.29  1748.13  1777.46
                             1862.39  1888.67  1909.51  1947.10  2001.44
                             2031.65  2113.43  2134.12  2154.51  2162.49
                             3204.75  4358.31  4362.78  4426.00  4454.31
                             4459.65  4470.12  4536.51  5037.47  5459.94
                             5462.88

 Zero-point correction=                           0.154981 (Hartree/Particle)
 Thermal correction to Energy=                    0.165458
 Thermal correction to Enthalpy=                  0.166402
 Thermal correction to Gibbs Free Energy=         0.119733
 Sum of electronic and zero-point Energies=           -422.970708
 Sum of electronic and thermal Energies=              -422.960231
 Sum of electronic and thermal Enthalpies=            -422.959287
 Sum of electronic and thermal Free Energies=         -423.005956

                     E (Thermal)             CV                S
                      KCal/Mol        Cal/Mol-Kelvin    Cal/Mol-Kelvin
 Total                  103.826             38.379             98.222
 Electronic               0.000              0.000              0.000
 Translational            0.889              2.981             40.409
 Rotational               0.889              2.981             29.202
 Vibrational            102.049             32.417             28.612
 Vibration     1          0.598              1.968              4.121
 Vibration     2          0.602              1.956              3.666
 Vibration     3          0.615              1.914              2.813
 Vibration     4          0.623              1.888              2.512
 Vibration     5          0.643              1.825              2.039
 Vibration     6          0.651              1.799              1.899
 Vibration     7          0.675              1.725              1.584
 Vibration     8          0.683              1.702              1.506
 Vibration     9          0.697              1.660              1.376
 Vibration    10          0.713              1.615              1.258
 Vibration    11          0.757              1.493              1.003
 Vibration    12          0.797              1.390              0.837
 Vibration    13          0.862              1.234              0.640
 Vibration    14          0.912              1.125              0.531
 Vibration    15          0.934              1.080              0.490

 Normal termination of Gaussian 09 at Tue Jan 28 13:19:34 2020.
