 Gaussian 09, Revision D.01,
 Gaussian 09:  ES64L-G09RevD.01 24-Apr-2013

 -----------------------------
 # b3lyp 6-31G(2df,p) opt Freq
 -----------------------------

 -----
 titel
 -----
 Symbolic Z-matrix:
 Charge =  0 Multiplicity = 1

 SCF Done:  E(RB3LYP) =  -423.115057788     A.U. after   14 cycles
 Optimization completed.
    -- Stationary point found.
 Normal termination of Gaussian 09 at Tue Jan 28 08:53:55 2020.

 ----------------------------------------------------------------------
 #N Geom=AllCheck Guess=TCheck SCRF=Check GenChk RB3LYP/6-31G(2df,p) Fr
 eq
 ----------------------------------------------------------------------

 Structure from the checkpoint file:  "/scratch/puck/g09_80c80a50-9292-4dff-ae38-3d4f8b8b145e/Gau-103816.chk"
 -----
 titel
 -----
 Charge =  0 Multiplicity = 1

                         Standard orientation:
 ---------------------------------------------------------------------
 Center     Atomic      Atomic             Coordinates (Angstroms)
 Number     Number       Type             X           Y           Z
 ---------------------------------------------------------------------
      1          6           0       -2.244770   -0.367759   -1.031979
      2          8           0       -1.803737   -0.084895    0.288729
      3          6           0       -0.538489    0.486767    0.380062
      4          6           0       -0.418702    1.906802   -0.128774
      5          6           0        0.214253    0.064168    1.606617
      6          6           0        0.650001   -0.479731    0.244804
      7          8           0        0.296260   -1.800713   -0.063057
      8          6           0        1.891789   -0.033724   -0.329755
      9          6           0        2.944768    0.303550   -0.805772
     10          1           0       -1.530006   -1.006605   -1.561468
     11          1           0       -3.194180   -0.898333   -0.930293
     12          1           0       -2.418307    0.547194   -1.614386
     13          1           0        0.587514    2.296280    0.035783
     14          1           0       -0.624506    1.971335   -1.201562
     15          1           0       -1.134226    2.544931    0.399637
     16          1           0        0.853504    0.781705    2.108153
     17          1           0       -0.289322   -0.657593    2.239583
     18          1           0        0.949223   -2.381046    0.344099
     19          1           0        3.867012    0.606548   -1.236129
 ---------------------------------------------------------------------

 SCF Done:  E(RB3LYP) =  -423.115057788     A.U. after    1 cycles

 The electronic state is 1-A.
 Alpha  occ. eigenvalues --  -19.15035 -19.14213 -10.25940 -10.24677 -10.21649
 Alpha  occ. eigenvalues --  -10.18708 -10.18405 -10.17826 -10.17714  -1.04926
 Alpha  occ. eigenvalues --   -1.02509  -0.85322  -0.74950  -0.71666  -0.68543
 Alpha  occ. eigenvalues --   -0.63174  -0.57635  -0.54062  -0.51543  -0.49838
 Alpha  occ. eigenvalues --   -0.46412  -0.45163  -0.44420  -0.40808  -0.40102
 Alpha  occ. eigenvalues --   -0.39067  -0.38533  -0.34926  -0.33804  -0.30399
 Alpha  occ. eigenvalues --   -0.28055  -0.27093  -0.26813  -0.22867
 Alpha virt. eigenvalues --    0.03119   0.04677   0.08543   0.10790   0.11646
 Alpha virt. eigenvalues --    0.12611   0.13945   0.14885   0.15730   0.15989
 Alpha virt. eigenvalues --    0.17458   0.18327   0.18871   0.20720   0.22470

 Mulliken charges:
               1
     1  C   -0.253482
     2  O   -0.272997
     3  C    0.393621
     4  C   -0.465115
     5  C   -0.402109
     6  C    0.123003
     7  O   -0.440982
     8  C    0.319233
     9  C   -0.485131
    10  H    0.134130
    11  H    0.125841
    12  H    0.105662
    13  H    0.131924
    14  H    0.124963
    15  H    0.125870
    16  H    0.120635
    17  H    0.130160
    18  H    0.289078
    19  H    0.195694
 Sum of Mulliken charges =   0.00000

 Dipole moment (field-independent basis, Debye):
    X=              1.0570    Y=              0.2876    Z=              0.0110  Tot=              1.0955
 Quadrupole moment (field-independent basis, Debye-Ang):
   XX=            -49.9962   YY=            -50.5017   ZZ=            -51.8620
   XY=             -0.7047   XZ=              1.9105   YZ=             -1.9064

  Exact polarizability:  97.658   3.761  70.856  -5.765  -2.071  69.266
 Approx polarizability: 142.159  10.006 100.850 -16.664  -3.976 104.456

                      1                      2                      3
                      A                      A                      A
 Frequencies --    102.0495               122.6176               135.7913
 Red. masses --      3.5368                 1.7378                 2.3239
 Frc consts  --      0.0217                 0.0154                 0.0252
 IR Inten    --      0.4403                 3.5371                 1.5513

                      4                      5                      6
                      A                      A                      A
 Frequencies --    174.5263               190.5172               236.1064
 Red. masses --      1.5816                 1.2979                 2.0744
 Frc consts  --      0.0284                 0.0278                 0.0681
 IR Inten    --      2.5499                 3.0712                18.2197

                      7                      8                      9
                      A                      A                      A
 Frequencies --    249.1552               272.6181               310.6219
 Red. masses --      1.4107                 2.7419                 3.7668
 Frc consts  --      0.0516                 0.1201                 0.2141
 IR Inten    --     70.3721                11.6347                 4.1167

                     10                     11                     12
                      A                      A                      A
 Frequencies --    351.0264               415.2639               459.8050
 Red. masses --      3.1883                 3.6955                 2.6807
 Frc consts  --      0.2315                 0.3755                 0.3339
 IR Inten    --      0.7002                 9.7308                 5.3936

                     13                     14                     15
                      A                      A                      A
 Frequencies --    498.2186               560.9122               579.2265
 Red. masses --      4.0198                 5.9322                 1.5886
 Frc consts  --      0.5879                 1.0997                 0.3140
 IR Inten    --      4.5035                13.0993                29.6814

                     16                     17                     18
                      A                      A                      A
 Frequencies --    586.8357               676.3281               683.0519
 Red. masses --      2.1468                 1.2678                 4.6217
 Frc consts  --      0.4356                 0.3417                 1.2705
 IR Inten    --     25.4312                34.6735                 1.8073

                     19                     20                     21
                      A                      A                      A
 Frequencies --    756.7245               863.8900               913.1358
 Red. masses --      4.2065                 2.9069                 1.6748
 Frc consts  --      1.4192                 1.2782                 0.8228
 IR Inten    --     20.6932                24.4161                 1.5109

                     22                     23                     24
                      A                      A                      A
 Frequencies --    915.0125               963.4895              1053.1675
 Red. masses --      1.5838                 1.8080                 1.3263
 Frc consts  --      0.7813                 0.9889                 0.8667
 IR Inten    --      1.1519                 5.0120                 3.0119

                     25                     26                     27
                      A                      A                      A
 Frequencies --   1094.2363              1111.0347              1129.0872
 Red. masses --      4.0231                 1.7822                 4.3623
 Frc consts  --      2.8381                 1.2962                 3.2766
 IR Inten    --     62.6273                38.2704                44.7777

                     28                     29                     30
                      A                      A                      A
 Frequencies --   1180.3243              1202.1360              1240.2218
 Red. masses --      1.2862                 2.1550                 2.3792
 Frc consts  --      1.0558                 1.8349                 2.1561
 IR Inten    --      5.3282                52.8270               106.5208

                     31                     32                     33
                      A                      A                      A
 Frequencies --   1287.5937              1308.2302              1372.7923
 Red. masses --      3.1245                 1.7558                 1.6906
 Frc consts  --      3.0520                 1.7704                 1.8772
 IR Inten    --     59.6149                24.3390                 9.5534

                     34                     35                     36
                      A                      A                      A
 Frequencies --   1412.7824              1456.6937              1476.4179
 Red. masses --      1.3398                 1.3562                 1.1316
 Frc consts  --      1.5756                 1.6955                 1.4533
 IR Inten    --      9.1848                15.9700                 0.9633

                     37                     38                     39
                      A                      A                      A
 Frequencies --   1481.9243              1495.2951              1503.5990
 Red. masses --      1.0619                 1.0906                 1.0699
 Frc consts  --      1.3740                 1.4368                 1.4251
 IR Inten    --      5.6016                 2.2754                 2.5082

                     40                     41                     42
                      A                      A                      A
 Frequencies --   1506.9824              2223.7658              3006.4666
 Red. masses --      1.0840                 6.0285                 1.0392
 Frc consts  --      1.4504                17.5646                 5.5341
 IR Inten    --      5.3628                 8.5745                50.5771

                     43                     44                     45
                      A                      A                      A
 Frequencies --   3043.3191              3079.1894              3107.1843
 Red. masses --      1.0367                 1.0956                 1.1015
 Frc consts  --      5.6572                 6.1204                 6.2658
 IR Inten    --     21.5038                33.6584                16.7768

                     46                     47                     48
                      A                      A                      A
 Frequencies --   3124.7864              3135.2715              3138.8209
 Red. masses --      1.1025                 1.0885                 1.0635
 Frc consts  --      6.3426                 6.3042                 6.1733
 IR Inten    --     25.4885                 7.9859                 9.4978

                     49                     50                     51
                      A                      A                      A
 Frequencies --   3238.5139              3501.6921              3796.1389
 Red. masses --      1.1186                 1.1594                 1.0664
 Frc consts  --      6.9120                 8.3764                 9.0544
 IR Inten    --      2.5175                79.5471                25.2644

 - Thermochemistry -
 -------------------
 Temperature   298.150 Kelvin.  Pressure   1.00000 Atm.
 Atom     1 has atomic number  6 and mass  12.00000

 Molecular mass:   126.06808 amu.
 Principal axes and moments of inertia in atomic units:
                           1         2         3
     Eigenvalues --   729.926121375.067401566.06093
           X            0.99962   0.00717   0.02664
           Y           -0.00660   0.99975  -0.02132
           Z           -0.02679   0.02114   0.99942
 This molecule is an asymmetric top.
 Rotational symmetry number  1.
 Warning -- assumption of classical behavior for rotation
           may cause significant error
 Rotational temperatures (Kelvin)      0.11866     0.06299     0.05531
 Rotational constants (GHZ):           2.47250     1.31247     1.15241
 Zero-point vibrational energy     405083.0 (Joules/Mol)
                                   96.81716 (Kcal/Mol)
 Warning -- explicit consideration of  16 degrees of freedom as
           vibrations may cause significant error
 Vibrational temperatures:    146.83   176.42   195.37   251.10   274.11
          (Kelvin)            339.70   358.48   392.24   446.92   505.05
                              597.47   661.56   716.82   807.03   833.38
                              844.32   973.08   982.76  1088.76  1242.94
                             1313.80  1316.50  1386.24  1515.27  1574.36
                             1598.53  1624.50  1698.22  1729.60  1784.40
                             1852.56  1882.25  1975.14  2032.68  2095.85
                             2124.23  2132.16  2151.39  2163.34  2168.21
                             3199.50  4325.63  4378.65  4430.26  4470.54
                             4495.87  4510.95  4516.06  4659.49  5038.15
                             5461.79

 Zero-point correction=                           0.154288 (Hartree/Particle)
 Thermal correction to Energy=                    0.164664
 Thermal correction to Enthalpy=                  0.165609
 Thermal correction to Gibbs Free Energy=         0.119678
 Sum of electronic and zero-point Energies=           -422.960770
 Sum of electronic and thermal Energies=              -422.950393
 Sum of electronic and thermal Enthalpies=            -422.949449
 Sum of electronic and thermal Free Energies=         -422.995379

                     E (Thermal)             CV                S
                      KCal/Mol        Cal/Mol-Kelvin    Cal/Mol-Kelvin
 Total                  103.328             38.389             96.668
 Electronic               0.000              0.000              0.000
 Translational            0.889              2.981             40.409
 Rotational               0.889              2.981             28.843
 Vibrational            101.551             32.428             27.417
 Vibration     1          0.604              1.948              3.415
 Vibration     2          0.610              1.930              3.059
 Vibration     3          0.614              1.918              2.862
 Vibration     4          0.627              1.874              2.386
 Vibration     5          0.634              1.853              2.223
 Vibration     6          0.655              1.785              1.832
 Vibration     7          0.662              1.764              1.737
 Vibration     8          0.676              1.724              1.580
 Vibration     9          0.699              1.653              1.359
 Vibration    10          0.728              1.573              1.162
 Vibration    11          0.779              1.437              0.908
 Vibration    12          0.818              1.339              0.767
 Vibration    13          0.854              1.254              0.663
 Vibration    14          0.917              1.116              0.522
 Vibration    15          0.936              1.076              0.487
 Vibration    16          0.944              1.060              0.473

 Normal termination of Gaussian 09 at Tue Jan 28 09:35:39 2020.
