 Gaussian 09, Revision D.01,
 Gaussian 09:  ES64L-G09RevD.01 24-Apr-2013

 -----------------------------
 # b3lyp 6-31G(2df,p) opt Freq
 -----------------------------

 -----
 titel
 -----
 Symbolic Z-matrix:
 Charge =  0 Multiplicity = 1

 SCF Done:  E(RB3LYP) =  -423.211810901     A.U. after   14 cycles
 Optimization completed.
    -- Stationary point found.
 Normal termination of Gaussian 09 at Tue Jan 28 11:57:59 2020.

 ----------------------------------------------------------------------
 #N Geom=AllCheck Guess=TCheck SCRF=Check GenChk RB3LYP/6-31G(2df,p) Fr
 eq
 ----------------------------------------------------------------------

 Structure from the checkpoint file:  "/scratch/puck/g09_56134ab9-5678-458f-b7f2-529f5a1536e7/Gau-138485.chk"
 -----
 titel
 -----
 Charge =  0 Multiplicity = 1

                         Standard orientation:
 ---------------------------------------------------------------------
 Center     Atomic      Atomic             Coordinates (Angstroms)
 Number     Number       Type             X           Y           Z
 ---------------------------------------------------------------------
      1          6           0       -2.441725   -0.631256   -0.647345
      2          8           0       -1.092507   -1.010966   -0.442704
      3          6           0       -0.462973   -0.378711    0.666352
      4          6           0        0.817449   -1.149679    0.967079
      5          6           0        1.818255   -1.048131   -0.192171
      6          6           0        1.983943    0.363732   -0.673660
      7          6           0        1.087518    1.333190   -0.443006
      8          6           0       -0.166486    1.085603    0.291734
      9          8           0       -0.968269    1.969286    0.531421
     10          1           0       -2.547011    0.439049   -0.862055
     11          1           0       -2.802887   -1.209090   -1.501443
     12          1           0       -3.057399   -0.867102    0.233499
     13          1           0       -1.139453   -0.371515    1.533246
     14          1           0        1.266379   -0.727916    1.874349
     15          1           0        0.570666   -2.195091    1.175613
     16          1           0        2.791217   -1.457377    0.102474
     17          1           0        1.474155   -1.664363   -1.034064
     18          1           0        2.879462    0.589102   -1.249309
     19          1           0        1.235190    2.349255   -0.795943
 ---------------------------------------------------------------------

 SCF Done:  E(RB3LYP) =  -423.211810901     A.U. after    1 cycles

 The electronic state is 1-A.
 Alpha  occ. eigenvalues --  -19.14704 -19.12404 -10.25888 -10.23457 -10.22117
 Alpha  occ. eigenvalues --  -10.21213 -10.19897 -10.19245 -10.18930  -1.04310
 Alpha  occ. eigenvalues --   -1.02312  -0.83778  -0.76116  -0.72716  -0.66962
 Alpha  occ. eigenvalues --   -0.61478  -0.59889  -0.52050  -0.50308  -0.47117
 Alpha  occ. eigenvalues --   -0.46752  -0.45501  -0.43843  -0.42348  -0.40567
 Alpha  occ. eigenvalues --   -0.40122  -0.38169  -0.36858  -0.35146  -0.34272
 Alpha  occ. eigenvalues --   -0.31932  -0.28083  -0.26883  -0.22701
 Alpha virt. eigenvalues --   -0.05222   0.05706   0.08570   0.11456   0.12525
 Alpha virt. eigenvalues --    0.13282   0.14751   0.15290   0.16621   0.16956
 Alpha virt. eigenvalues --    0.17647   0.18528   0.19668   0.20120   0.22175

 Mulliken charges:
               1
     1  C   -0.240130
     2  O   -0.257066
     3  C    0.027250
     4  C   -0.253275
     5  C   -0.251414
     6  C   -0.037896
     7  C   -0.141476
     8  C    0.372866
     9  O   -0.345708
    10  H    0.132601
    11  H    0.123943
    12  H    0.108356
    13  H    0.077754
    14  H    0.110042
    15  H    0.109234
    16  H    0.109880
    17  H    0.142680
    18  H    0.107238
    19  H    0.105123
 Sum of Mulliken charges =   0.00000

 Dipole moment (field-independent basis, Debye):
    X=              1.7815    Y=             -1.9036    Z=             -0.3061  Tot=              2.6251
 Quadrupole moment (field-independent basis, Debye-Ang):
   XX=            -48.0913   YY=            -58.0712   ZZ=            -52.1917
   XY=              2.8747   XZ=              0.2742   YZ=             -2.7877

  Exact polarizability:  92.612  -7.468  81.149  -6.228  -0.463  63.343
 Approx polarizability: 134.995 -25.886 128.296 -14.333   8.324  96.709

                      1                      2                      3
                      A                      A                      A
 Frequencies --     70.5887               107.8774               161.8183
 Red. masses --      3.7215                 2.0907                 2.5697
 Frc consts  --      0.0109                 0.0143                 0.0396
 IR Inten    --      3.4891                 3.9820                 0.6431

                      4                      5                      6
                      A                      A                      A
 Frequencies --    174.1082               240.1311               314.9505
 Red. masses --      1.8321                 2.7264                 2.1379
 Frc consts  --      0.0327                 0.0926                 0.1249
 IR Inten    --      1.6535                 5.3253                 2.0003

                      7                      8                      9
                      A                      A                      A
 Frequencies --    333.2567               397.2931               443.6718
 Red. masses --      2.6086                 3.3997                 5.2039
 Frc consts  --      0.1707                 0.3162                 0.6035
 IR Inten    --      0.9360                 2.1887                11.1960

                     10                     11                     12
                      A                      A                      A
 Frequencies --    484.0959               586.9113               650.0335
 Red. masses --      4.7961                 4.4292                 1.8997
 Frc consts  --      0.6622                 0.8989                 0.4729
 IR Inten    --     12.3197                 0.8683                 4.2063

                     13                     14                     15
                      A                      A                      A
 Frequencies --    732.7610               750.0409               856.1583
 Red. masses --      2.4772                 2.3404                 2.7398
 Frc consts  --      0.7837                 0.7757                 1.1833
 IR Inten    --      5.2595                 5.2266                23.0535

                     16                     17                     18
                      A                      A                      A
 Frequencies --    872.5787               915.1012               964.7165
 Red. masses --      2.8672                 2.2198                 2.1940
 Frc consts  --      1.2862                 1.0952                 1.2031
 IR Inten    --      5.7835                 1.7046                14.4379

                     19                     20                     21
                      A                      A                      A
 Frequencies --    988.1025              1023.9534              1061.3114
 Red. masses --      3.3864                 1.2475                 2.2466
 Frc consts  --      1.9480                 0.7707                 1.4909
 IR Inten    --      6.7588                 2.0626                 2.3493

                     22                     23                     24
                      A                      A                      A
 Frequencies --   1083.4108              1128.8691              1140.4678
 Red. masses --      1.8055                 3.1474                 1.6479
 Frc consts  --      1.2486                 2.3632                 1.2628
 IR Inten    --     14.2651               100.9118                46.7702

                     25                     26                     27
                      A                      A                      A
 Frequencies --   1185.9155              1192.8780              1229.3431
 Red. masses --      1.2276                 1.2287                 1.4460
 Frc consts  --      1.0173                 1.0301                 1.2875
 IR Inten    --      3.0315                 5.8040                15.9323

                     28                     29                     30
                      A                      A                      A
 Frequencies --   1245.8973              1274.0986              1338.5609
 Red. masses --      1.4048                 1.7995                 1.5633
 Frc consts  --      1.2848                 1.7212                 1.6503
 IR Inten    --     19.9028                22.1819                 5.4829

                     31                     32                     33
                      A                      A                      A
 Frequencies --   1350.6032              1375.4920              1387.2130
 Red. masses --      1.4908                 1.4015                 1.5412
 Frc consts  --      1.6022                 1.5623                 1.7474
 IR Inten    --      2.7043                14.4297                 2.6177

                     34                     35                     36
                      A                      A                      A
 Frequencies --   1412.2776              1462.4144              1477.8203
 Red. masses --      1.6907                 1.0848                 1.1039
 Frc consts  --      1.9869                 1.3669                 1.4205
 IR Inten    --     13.9790                 7.2080                 6.0096

                     37                     38                     39
                      A                      A                      A
 Frequencies --   1478.7300              1487.0110              1513.3601
 Red. masses --      1.1050                 1.0733                 1.0612
 Frc consts  --      1.4236                 1.3982                 1.4319
 IR Inten    --      1.6393                 5.0254                 9.1422

                     40                     41                     42
                      A                      A                      A
 Frequencies --   1679.6537              1767.6139              2992.6204
 Red. masses --      6.5554                11.2464                 1.0416
 Frc consts  --     10.8965                20.7032                 5.4964
 IR Inten    --     19.9778               195.5003                46.0072

                     43                     44                     45
                      A                      A                      A
 Frequencies --   3003.7492              3023.9069              3040.0313
 Red. masses --      1.0819                 1.0640                 1.0648
 Frc consts  --      5.7511                 5.7324                 5.7977
 IR Inten    --     42.0563                 8.8583                24.7820

                     46                     47                     48
                      A                      A                      A
 Frequencies --   3060.5121              3062.6916              3089.7118
 Red. masses --      1.0956                 1.0934                 1.1025
 Frc consts  --      6.0463                 6.0426                 6.2009
 IR Inten    --     32.9473                27.0900                21.9835

                     49                     50                     51
                      A                      A                      A
 Frequencies --   3119.1474              3148.6959              3185.8285
 Red. masses --      1.1009                 1.0868                 1.0952
 Frc consts  --      6.3105                 6.3483                 6.5490
 IR Inten    --     24.9541                12.7830                12.6622

 - Thermochemistry -
 -------------------
 Temperature   298.150 Kelvin.  Pressure   1.00000 Atm.
 Atom     1 has atomic number  6 and mass  12.00000

 Molecular mass:   126.06808 amu.
 Principal axes and moments of inertia in atomic units:
                           1         2         3
     Eigenvalues --   791.809221131.134261551.45484
           X            0.99990   0.01314   0.00523
           Y           -0.01294   0.99926  -0.03609
           Z           -0.00570   0.03602   0.99933
 This molecule is an asymmetric top.
 Rotational symmetry number  1.
 Warning -- assumption of classical behavior for rotation
           may cause significant error
 Rotational temperatures (Kelvin)      0.10939     0.07657     0.05583
 Rotational constants (GHZ):           2.27926     1.59551     1.16326
 Zero-point vibrational energy     419099.6 (Joules/Mol)
                                  100.16721 (Kcal/Mol)
 Warning -- explicit consideration of  11 degrees of freedom as
           vibrations may cause significant error
 Vibrational temperatures:    101.56   155.21   232.82   250.50   345.49
          (Kelvin)            453.14   479.48   571.62   638.34   696.51
                              844.43   935.25  1054.28  1079.14  1231.82
                             1255.44  1316.62  1388.01  1421.66  1473.24
                             1526.99  1558.78  1624.19  1640.88  1706.27
                             1716.28  1768.75  1792.57  1833.14  1925.89
                             1943.21  1979.02  1995.89  2031.95  2104.09
                             2126.25  2127.56  2139.47  2177.38  2416.64
                             2543.20  4305.71  4321.72  4350.72  4373.92
                             4403.39  4406.52  4445.40  4487.75  4530.27
                             4583.69

 Zero-point correction=                           0.159627 (Hartree/Particle)
 Thermal correction to Energy=                    0.168329
 Thermal correction to Enthalpy=                  0.169273
 Thermal correction to Gibbs Free Energy=         0.125998
 Sum of electronic and zero-point Energies=           -423.052184
 Sum of electronic and thermal Energies=              -423.043482
 Sum of electronic and thermal Enthalpies=            -423.042538
 Sum of electronic and thermal Free Energies=         -423.085813

                     E (Thermal)             CV                S
                      KCal/Mol        Cal/Mol-Kelvin    Cal/Mol-Kelvin
 Total                  105.628             32.148             91.080
 Electronic               0.000              0.000              0.000
 Translational            0.889              2.981             40.409
 Rotational               0.889              2.981             28.720
 Vibrational            103.851             26.186             21.951
 Vibration     1          0.598              1.968              4.137
 Vibration     2          0.606              1.943              3.307
 Vibration     3          0.622              1.889              2.528
 Vibration     4          0.627              1.874              2.391
 Vibration     5          0.657              1.779              1.802
 Vibration     6          0.702              1.645              1.336
 Vibration     7          0.715              1.609              1.244
 Vibration     8          0.764              1.476              0.973
 Vibration     9          0.803              1.375              0.815
 Vibration    10          0.840              1.285              0.699
 Vibration    11          0.944              1.060              0.473

 Normal termination of Gaussian 09 at Tue Jan 28 12:40:46 2020.
