 Gaussian 09, Revision D.01,
 Gaussian 09:  ES64L-G09RevD.01 24-Apr-2013

 -----------------------------
 # b3lyp 6-31G(2df,p) opt Freq
 -----------------------------

 -----
 titel
 -----
 Symbolic Z-matrix:
 Charge =  0 Multiplicity = 1

 SCF Done:  E(RB3LYP) =  -423.177924062     A.U. after   14 cycles
 Optimization completed.
    -- Stationary point found.
 Normal termination of Gaussian 09 at Mon Jan 27 22:08:18 2020.

 ----------------------------------------------------------------------
 #N Geom=AllCheck Guess=TCheck SCRF=Check GenChk RB3LYP/6-31G(2df,p) Fr
 eq
 ----------------------------------------------------------------------

 Structure from the checkpoint file:  "/scratch/puck/g09_6a18f5c3-8805-4321-9a25-02382927453f/Gau-51284.chk"
 -----
 titel
 -----
 Charge =  0 Multiplicity = 1

                         Standard orientation:
 ---------------------------------------------------------------------
 Center     Atomic      Atomic             Coordinates (Angstroms)
 Number     Number       Type             X           Y           Z
 ---------------------------------------------------------------------
      1          6           0        0.821889    2.016670    0.004264
      2          6           0        0.701598    0.610015    0.570786
      3          6           0        1.633941   -0.492207    0.035794
      4          8           0        2.794070   -0.521669   -0.255218
      5          6           0        0.471725   -1.493945   -0.081891
      6          6           0       -0.497712   -0.303473    0.151937
      7          6           0       -1.815899   -0.393528    0.940087
      8          6           0       -2.468661    0.101140   -0.364530
      9          8           0       -1.191402    0.128150   -1.038852
     10          1           0        1.830909    2.403605    0.172618
     11          1           0        0.623655    2.016033   -1.069911
     12          1           0        0.110016    2.699382    0.478835
     13          1           0        0.780395    0.617955    1.667452
     14          1           0        0.367372   -2.006909   -1.041012
     15          1           0        0.470626   -2.232414    0.727105
     16          1           0       -2.098260   -1.401272    1.250775
     17          1           0       -1.894092    0.280471    1.795615
     18          1           0       -3.166343   -0.592633   -0.846973
     19          1           0       -2.926907    1.095906   -0.320631
 ---------------------------------------------------------------------

 SCF Done:  E(RB3LYP) =  -423.177924062     A.U. after    1 cycles

 The electronic state is 1-A.
 Alpha  occ. eigenvalues --  -19.14012 -19.13550 -10.26714 -10.24969 -10.23855
 Alpha  occ. eigenvalues --  -10.19752 -10.19471 -10.18995 -10.18000  -1.04835
 Alpha  occ. eigenvalues --   -1.04222  -0.84310  -0.75012  -0.73692  -0.65864
 Alpha  occ. eigenvalues --   -0.63642  -0.53950  -0.52312  -0.49698  -0.49179
 Alpha  occ. eigenvalues --   -0.47206  -0.44285  -0.43103  -0.42344  -0.41719
 Alpha  occ. eigenvalues --   -0.38796  -0.38480  -0.37206  -0.35120  -0.34279
 Alpha  occ. eigenvalues --   -0.32003  -0.31023  -0.25448  -0.23513
 Alpha virt. eigenvalues --   -0.02052   0.07321   0.09309   0.09912   0.10427
 Alpha virt. eigenvalues --    0.13060   0.14062   0.14793   0.15600   0.15962
 Alpha virt. eigenvalues --    0.17604   0.18418   0.18678   0.19789   0.22653

 Mulliken charges:
               1
     1  C   -0.409249
     2  C   -0.159434
     3  C    0.389915
     4  O   -0.296275
     5  C   -0.410217
     6  C    0.421363
     7  C   -0.363923
     8  C   -0.070431
     9  O   -0.308283
    10  H    0.133841
    11  H    0.141024
    12  H    0.115203
    13  H    0.101385
    14  H    0.141063
    15  H    0.128290
    16  H    0.115207
    17  H    0.114232
    18  H    0.108524
    19  H    0.107766
 Sum of Mulliken charges =   0.00000

 Dipole moment (field-independent basis, Debye):
    X=             -3.1588    Y=             -0.1209    Z=              2.0780  Tot=              3.7830
 Quadrupole moment (field-independent basis, Debye-Ang):
   XX=            -59.8352   YY=            -50.5653   ZZ=            -53.2876
   XY=              2.0465   XZ=              0.3370   YZ=              0.1665

  Exact polarizability:  87.799   0.381  76.398  -0.653   1.345  62.698
 Approx polarizability: 121.238  -0.388 104.991  -2.975   1.866  98.523

                      1                      2                      3
                      A                      A                      A
 Frequencies --     52.4453                70.8859               154.7450
 Red. masses --      4.0911                 2.2899                 1.0436
 Frc consts  --      0.0066                 0.0068                 0.0147
 IR Inten    --      2.8059                 0.3401                 0.3804

                      4                      5                      6
                      A                      A                      A
 Frequencies --    176.4528               209.1173               258.6322
 Red. masses --      2.9897                 3.4262                 2.6649
 Frc consts  --      0.0548                 0.0883                 0.1050
 IR Inten    --      2.4169                 1.5483                 1.8474

                      7                      8                      9
                      A                      A                      A
 Frequencies --    356.1787               402.3125               463.4604
 Red. masses --      2.5651                 3.5299                 5.8389
 Frc consts  --      0.1917                 0.3366                 0.7389
 IR Inten    --      4.2265                 2.2282                 1.0691

                     10                     11                     12
                      A                      A                      A
 Frequencies --    520.0909               557.5336               717.9683
 Red. masses --      2.6145                 2.6822                 2.8598
 Frc consts  --      0.4167                 0.4912                 0.8686
 IR Inten    --      0.3637                 0.4291                 0.8392

                     13                     14                     15
                      A                      A                      A
 Frequencies --    731.6954               786.3695               825.1905
 Red. masses --      2.7676                 1.2148                 2.2762
 Frc consts  --      0.8730                 0.4426                 0.9132
 IR Inten    --      0.7545                 0.7554                 5.7625

                     16                     17                     18
                      A                      A                      A
 Frequencies --    862.6831               876.6514               934.5072
 Red. masses --      3.4475                 2.5450                 1.4685
 Frc consts  --      1.5117                 1.1524                 0.7556
 IR Inten    --      6.8570                 5.9082                22.5692

                     19                     20                     21
                      A                      A                      A
 Frequencies --    979.4801              1008.3452              1022.8431
 Red. masses --      2.6047                 1.1919                 7.5358
 Frc consts  --      1.4723                 0.7140                 4.6451
 IR Inten    --      1.8187                12.4478               116.9894

                     22                     23                     24
                      A                      A                      A
 Frequencies --   1030.8767              1093.8696              1121.5626
 Red. masses --      3.6083                 2.5123                 2.1389
 Frc consts  --      2.2592                 1.7711                 1.5852
 IR Inten    --     41.5638                11.8230                 7.5727

                     25                     26                     27
                      A                      A                      A
 Frequencies --   1156.8325              1163.9533              1166.4390
 Red. masses --      1.7925                 1.4530                 1.8139
 Frc consts  --      1.4133                 1.1598                 1.4540
 IR Inten    --      6.0328                 1.0319                 2.3823

                     28                     29                     30
                      A                      A                      A
 Frequencies --   1192.9932              1213.0351              1231.5208
 Red. masses --      1.8482                 1.5303                 1.4218
 Frc consts  --      1.5498                 1.3267                 1.2705
 IR Inten    --     24.7318                10.0707                10.6166

                     31                     32                     33
                      A                      A                      A
 Frequencies --   1255.2852              1292.0672              1322.8390
 Red. masses --      1.4837                 2.7097                 1.8880
 Frc consts  --      1.3774                 2.6652                 1.9465
 IR Inten    --      0.7310                39.2197                 8.2778

                     34                     35                     36
                      A                      A                      A
 Frequencies --   1359.0741              1402.2558              1418.1368
 Red. masses --      1.5231                 1.2175                 1.1238
 Frc consts  --      1.6576                 1.4105                 1.3316
 IR Inten    --      4.6872                 3.5278                10.4504

                     37                     38                     39
                      A                      A                      A
 Frequencies --   1484.8722              1488.8705              1498.3918
 Red. masses --      1.0933                 1.0569                 1.0502
 Frc consts  --      1.4202                 1.3804                 1.3892
 IR Inten    --      0.4929                 9.5213                 5.6830

                     40                     41                     42
                      A                      A                      A
 Frequencies --   1531.6698              1894.3644              3013.3025
 Red. masses --      1.1095                12.7380                 1.0814
 Frc consts  --      1.5336                26.9326                 5.7852
 IR Inten    --      1.0478               252.8235                11.4360

                     43                     44                     45
                      A                      A                      A
 Frequencies --   3025.4126              3044.0724              3054.1675
 Red. masses --      1.0552                 1.0359                 1.0611
 Frc consts  --      5.6908                 5.6558                 5.8317
 IR Inten    --     81.9107                21.9723                 4.0145

                     46                     47                     48
                      A                      A                      A
 Frequencies --   3067.0997              3073.2610              3110.8557
 Red. masses --      1.1116                 1.0593                 1.1007
 Frc consts  --      6.1611                 5.8947                 6.2757
 IR Inten    --     29.8460                23.6015                16.4356

                     49                     50                     51
                      A                      A                      A
 Frequencies --   3120.8605              3127.0245              3131.7041
 Red. masses --      1.1036                 1.1087                 1.1015
 Frc consts  --      6.3327                 6.3874                 6.3651
 IR Inten    --      3.4719                18.7244                10.7533

 - Thermochemistry -
 -------------------
 Temperature   298.150 Kelvin.  Pressure   1.00000 Atm.
 Atom     1 has atomic number  6 and mass  12.00000

 Molecular mass:   126.06808 amu.
 Principal axes and moments of inertia in atomic units:
                           1         2         3
     Eigenvalues --   596.440941391.287261657.68241
           X            0.99968   0.02490  -0.00525
           Y           -0.02491   0.99969  -0.00023
           Z            0.00524   0.00036   0.99999
 This molecule is an asymmetric top.
 Rotational symmetry number  1.
 Warning -- assumption of classical behavior for rotation
           may cause significant error
 Rotational temperatures (Kelvin)      0.14522     0.06225     0.05225
 Rotational constants (GHZ):           3.02585     1.29717     1.08871
 Zero-point vibrational energy     413036.2 (Joules/Mol)
                                   98.71802 (Kcal/Mol)
 Warning -- explicit consideration of  11 degrees of freedom as
           vibrations may cause significant error
 Vibrational temperatures:     75.46   101.99   222.64   253.88   300.87
          (Kelvin)            372.11   512.46   578.84   666.82   748.29
                              802.17  1032.99  1052.75  1131.41  1187.26
                             1241.21  1261.30  1344.55  1409.25  1450.78
                             1471.64  1483.20  1573.83  1613.68  1664.42
                             1674.67  1678.24  1716.45  1745.28  1771.88
                             1806.07  1858.99  1903.27  1955.40  2017.53
                             2040.38  2136.40  2142.15  2155.85  2203.73
                             2725.56  4335.46  4352.89  4379.74  4394.26
                             4412.87  4421.73  4475.82  4490.22  4499.09
                             4505.82

 Zero-point correction=                           0.157317 (Hartree/Particle)
 Thermal correction to Energy=                    0.166239
 Thermal correction to Enthalpy=                  0.167183
 Thermal correction to Gibbs Free Energy=         0.122999
 Sum of electronic and zero-point Energies=           -423.020607
 Sum of electronic and thermal Energies=              -423.011685
 Sum of electronic and thermal Enthalpies=            -423.010741
 Sum of electronic and thermal Free Energies=         -423.054925

                     E (Thermal)             CV                S
                      KCal/Mol        Cal/Mol-Kelvin    Cal/Mol-Kelvin
 Total                  104.317             32.728             92.993
 Electronic               0.000              0.000              0.000
 Translational            0.889              2.981             40.409
 Rotational               0.889              2.981             28.710
 Vibrational            102.539             26.767             23.874
 Vibration     1          0.596              1.977              4.723
 Vibration     2          0.598              1.968              4.129
 Vibration     3          0.620              1.897              2.613
 Vibration     4          0.628              1.871              2.366
 Vibration     5          0.642              1.827              2.051
 Vibration     6          0.667              1.748              1.671
 Vibration     7          0.732              1.563              1.139
 Vibration     8          0.768              1.465              0.954
 Vibration     9          0.821              1.331              0.756
 Vibration    10          0.875              1.206              0.610
 Vibration    11          0.913              1.123              0.529

 Normal termination of Gaussian 09 at Mon Jan 27 23:49:05 2020.
