 Gaussian 09, Revision D.01,
 Gaussian 09:  ES64L-G09RevD.01 24-Apr-2013

 -----------------------------
 # b3lyp 6-31G(2df,p) opt Freq
 -----------------------------

 -----
 titel
 -----
 Symbolic Z-matrix:
 Charge =  0 Multiplicity = 1

 SCF Done:  E(RB3LYP) =  -423.121695048     A.U. after   13 cycles
 Optimization completed.
    -- Stationary point found.
 Normal termination of Gaussian 09 at Mon Jan 27 18:06:32 2020.

 ----------------------------------------------------------------------
 #N Geom=AllCheck Guess=TCheck SCRF=Check GenChk RB3LYP/6-31G(2df,p) Fr
 eq
 ----------------------------------------------------------------------

 Structure from the checkpoint file:  "/scratch/puck/g09_cd3fa3e0-9804-487d-ba99-9df71abc7511/Gau-62774.chk"
 -----
 titel
 -----
 Charge =  0 Multiplicity = 1

                         Standard orientation:
 ---------------------------------------------------------------------
 Center     Atomic      Atomic             Coordinates (Angstroms)
 Number     Number       Type             X           Y           Z
 ---------------------------------------------------------------------
      1          6           0       -2.018225   -1.359803    0.107332
      2          6           0       -0.943017   -0.320177   -0.025756
      3          6           0       -1.334831    1.168143   -0.363898
      4          6           0        0.042066    1.889385   -0.054680
      5          6           0        0.778629    0.589806    0.226437
      6          6           0        2.098914   -0.166100    0.281869
      7          8           0        1.467083   -1.266704   -0.442164
      8          6           0        0.361670   -0.418270   -0.846098
      9          8           0       -0.138129   -0.083734    1.164577
     10          1           0       -2.563605   -1.466987   -0.835949
     11          1           0       -1.581110   -2.326519    0.370542
     12          1           0       -2.733140   -1.077431    0.887171
     13          1           0       -1.663565    1.308921   -1.398067
     14          1           0       -2.133052    1.497606    0.304035
     15          1           0        0.439289    2.438622   -0.911618
     16          1           0       -0.018256    2.557159    0.806493
     17          1           0        2.916254    0.274515   -0.303093
     18          1           0        2.446371   -0.464330    1.274204
     19          1           0        0.347943   -0.235964   -1.924255
 ---------------------------------------------------------------------

 SCF Done:  E(RB3LYP) =  -423.121695048     A.U. after    1 cycles

 The electronic state is 1-A.
 Alpha  occ. eigenvalues --  -19.13831 -19.12864 -10.24480 -10.24014 -10.23861
 Alpha  occ. eigenvalues --  -10.22678 -10.19641 -10.19176 -10.17953  -1.07511
 Alpha  occ. eigenvalues --   -1.00526  -0.79576  -0.76182  -0.70109  -0.69367
 Alpha  occ. eigenvalues --   -0.64489  -0.55790  -0.53247  -0.50062  -0.49095
 Alpha  occ. eigenvalues --   -0.46959  -0.45070  -0.42712  -0.42166  -0.40666
 Alpha  occ. eigenvalues --   -0.38243  -0.36715  -0.34812  -0.34422  -0.33285
 Alpha  occ. eigenvalues --   -0.32303  -0.27763  -0.25172  -0.24580
 Alpha virt. eigenvalues --    0.06295   0.08749   0.09923   0.11261   0.13037
 Alpha virt. eigenvalues --    0.13454   0.14333   0.15074   0.16075   0.17080
 Alpha virt. eigenvalues --    0.17300   0.18138   0.18965   0.19331   0.20414

 Mulliken charges:
               1
     1  C   -0.506574
     2  C    0.374090
     3  C   -0.251653
     4  C   -0.321895
     5  C    0.361309
     6  C   -0.178723
     7  O   -0.300807
     8  C    0.055599
     9  O   -0.360557
    10  H    0.121895
    11  H    0.140464
    12  H    0.128052
    13  H    0.101270
    14  H    0.113944
    15  H    0.106302
    16  H    0.114253
    17  H    0.104087
    18  H    0.123524
    19  H    0.075416
 Sum of Mulliken charges =   0.00000

 Dipole moment (field-independent basis, Debye):
    X=             -0.6404    Y=              1.8092    Z=             -1.1598  Tot=              2.2424
 Quadrupole moment (field-independent basis, Debye-Ang):
   XX=            -49.7787   YY=            -54.5847   ZZ=            -54.0182
   XY=              3.2864   XZ=              1.6586   YZ=             -0.6270

  Exact polarizability:  86.063   1.030  72.980   1.905  -1.060  65.576
 Approx polarizability: 116.032  -0.661 105.130   2.785  -0.359 107.333

                      1                      2                      3
                      A                      A                      A
 Frequencies --    201.7450               213.6517               246.3535
 Red. masses --      1.1708                 2.1815                 2.2094
 Frc consts  --      0.0281                 0.0587                 0.0790
 IR Inten    --      0.4098                 0.9785                 2.7664

                      4                      5                      6
                      A                      A                      A
 Frequencies --    273.6405               322.1959               372.6683
 Red. masses --      2.0582                 2.9572                 2.4418
 Frc consts  --      0.0908                 0.1809                 0.1998
 IR Inten    --      2.5726                 0.7793                 1.8169

                      7                      8                      9
                      A                      A                      A
 Frequencies --    451.5232               504.8259               611.5237
 Red. masses --      2.8546                 4.4520                 4.5996
 Frc consts  --      0.3429                 0.6685                 1.0134
 IR Inten    --      3.4364                 3.7711                 5.3201

                     10                     11                     12
                      A                      A                      A
 Frequencies --    621.9265               712.7988               780.6183
 Red. masses --      3.8285                 4.1421                 3.8635
 Frc consts  --      0.8725                 1.2400                 1.3871
 IR Inten    --      2.8134                 2.2593                16.1561

                     13                     14                     15
                      A                      A                      A
 Frequencies --    810.9541               824.0751               858.5970
 Red. masses --      2.0260                 2.0040                 2.1617
 Frc consts  --      0.7850                 0.8018                 0.9389
 IR Inten    --     10.4018                21.3084                 9.3394

                     16                     17                     18
                      A                      A                      A
 Frequencies --    863.6183               900.8708               943.2456
 Red. masses --      2.0944                 3.4086                 5.6067
 Frc consts  --      0.9204                 1.6299                 2.9391
 IR Inten    --      8.6542                 3.6677                52.8830

                     19                     20                     21
                      A                      A                      A
 Frequencies --    970.7689               986.1218              1011.0681
 Red. masses --      4.2168                 1.6301                 4.0256
 Frc consts  --      2.3413                 0.9340                 2.4246
 IR Inten    --     26.6471                13.2585                40.9068

                     22                     23                     24
                      A                      A                      A
 Frequencies --   1021.0703              1060.9753              1120.2868
 Red. masses --      2.2248                 1.6035                 1.8537
 Frc consts  --      1.3667                 1.0635                 1.3707
 IR Inten    --     10.9574                 2.4804                19.1567

                     25                     26                     27
                      A                      A                      A
 Frequencies --   1136.9528              1156.1895              1190.4951
 Red. masses --      1.6722                 1.3752                 2.2812
 Frc consts  --      1.2736                 1.0831                 1.9049
 IR Inten    --      6.4033                 4.3699                20.6104

                     28                     29                     30
                      A                      A                      A
 Frequencies --   1202.1633              1223.8315              1244.2021
 Red. masses --      1.6961                 1.3442                 1.7152
 Frc consts  --      1.4442                 1.1862                 1.5644
 IR Inten    --      0.5613                 6.1967                 1.8096

                     31                     32                     33
                      A                      A                      A
 Frequencies --   1255.7483              1287.6515              1308.0091
 Red. masses --      1.7562                 1.3407                 1.6316
 Frc consts  --      1.6317                 1.3097                 1.6447
 IR Inten    --     11.6879                 0.8737                12.2222

                     34                     35                     36
                      A                      A                      A
 Frequencies --   1357.1863              1367.0024              1414.0509
 Red. masses --      2.5377                 1.8296                 1.6025
 Frc consts  --      2.7541                 2.0144                 1.8879
 IR Inten    --     12.1266                 0.4184                16.1923

                     37                     38                     39
                      A                      A                      A
 Frequencies --   1472.6251              1479.2666              1494.4995
 Red. masses --      1.0782                 1.0625                 1.0552
 Frc consts  --      1.3776                 1.3699                 1.3886
 IR Inten    --      0.1632                 3.6127                 4.6108

                     40                     41                     42
                      A                      A                      A
 Frequencies --   1496.5113              1498.1724              3022.0137
 Red. masses --      1.1199                 1.1208                 1.0614
 Frc consts  --      1.4778                 1.4822                 5.7109
 IR Inten    --      1.1281                 2.8383                68.7849

                     43                     44                     45
                      A                      A                      A
 Frequencies --   3038.3092              3058.7758              3068.4494
 Red. masses --      1.0355                 1.0626                 1.0775
 Frc consts  --      5.6321                 5.8576                 5.9773
 IR Inten    --     14.7795                23.1585                35.1384

                     46                     47                     48
                      A                      A                      A
 Frequencies --   3075.2219              3104.7156              3107.2073
 Red. masses --      1.0670                 1.1041                 1.1009
 Frc consts  --      5.9450                 6.2705                 6.2624
 IR Inten    --     47.4877                21.0629                12.1015

                     49                     50                     51
                      A                      A                      A
 Frequencies --   3114.1131              3121.9552              3130.3442
 Red. masses --      1.1057                 1.1014                 1.1067
 Frc consts  --      6.3177                 6.3251                 6.3896
 IR Inten    --      1.3907                11.8319                36.6934

 - Thermochemistry -
 -------------------
 Temperature   298.150 Kelvin.  Pressure   1.00000 Atm.
 Atom     1 has atomic number  6 and mass  12.00000

 Molecular mass:   126.06808 amu.
 Principal axes and moments of inertia in atomic units:
                           1         2         3
     Eigenvalues --   670.05520 942.481421274.71677
           X            0.99730   0.07261   0.01104
           Y           -0.07233   0.99708  -0.02463
           Z           -0.01279   0.02376   0.99964
 This molecule is an asymmetric top.
 Rotational symmetry number  1.
 Warning -- assumption of classical behavior for rotation
           may cause significant error
 Rotational temperatures (Kelvin)      0.12926     0.09190     0.06795
 Rotational constants (GHZ):           2.69342     1.91488     1.41580
 Zero-point vibrational energy     419355.6 (Joules/Mol)
                                  100.22840 (Kcal/Mol)
 Warning -- explicit consideration of   9 degrees of freedom as
           vibrations may cause significant error
 Vibrational temperatures:    290.27   307.40   354.45   393.71   463.57
          (Kelvin)            536.19   649.64   726.33   879.85   894.81
                             1025.56  1123.13  1166.78  1185.66  1235.33
                             1242.55  1296.15  1357.12  1396.72  1418.81
                             1454.70  1469.09  1526.50  1611.84  1635.82
                             1663.50  1712.85  1729.64  1760.82  1790.13
                             1806.74  1852.64  1881.93  1952.69  1966.81
                             2034.50  2118.78  2128.33  2150.25  2153.14
                             2155.53  4348.00  4371.44  4400.89  4414.81
                             4424.55  4466.99  4470.57  4480.51  4491.79
                             4503.86

 Zero-point correction=                           0.159724 (Hartree/Particle)
 Thermal correction to Energy=                    0.167071
 Thermal correction to Enthalpy=                  0.168015
 Thermal correction to Gibbs Free Energy=         0.128505
 Sum of electronic and zero-point Energies=           -422.961971
 Sum of electronic and thermal Energies=              -422.954624
 Sum of electronic and thermal Enthalpies=            -422.953680
 Sum of electronic and thermal Free Energies=         -422.993190

                     E (Thermal)             CV                S
                      KCal/Mol        Cal/Mol-Kelvin    Cal/Mol-Kelvin
 Total                  104.839             30.217             83.157
 Electronic               0.000              0.000              0.000
 Translational            0.889              2.981             40.409
 Rotational               0.889              2.981             28.178
 Vibrational            103.061             24.255             14.571
 Vibration     1          0.639              1.837              2.117
 Vibration     2          0.644              1.820              2.012
 Vibration     3          0.661              1.769              1.757
 Vibration     4          0.676              1.722              1.573
 Vibration     5          0.707              1.631              1.299
 Vibration     6          0.744              1.528              1.069
 Vibration     7          0.810              1.358              0.791
 Vibration     8          0.860              1.239              0.646
 Vibration     9          0.971              1.007              0.430

 Normal termination of Gaussian 09 at Mon Jan 27 18:52:21 2020.
