 Gaussian 09, Revision D.01,
 Gaussian 09:  ES64L-G09RevD.01 24-Apr-2013

 -----------------------------
 # b3lyp 6-31G(2df,p) opt Freq
 -----------------------------

 -----
 titel
 -----
 Symbolic Z-matrix:
 Charge =  0 Multiplicity = 1

 SCF Done:  E(RB3LYP) =  -423.222988931     A.U. after   14 cycles
 Optimization completed.
    -- Stationary point found.
 Normal termination of Gaussian 09 at Mon Jan 27 13:05:29 2020.

 ----------------------------------------------------------------------
 #N Geom=AllCheck Guess=TCheck SCRF=Check GenChk RB3LYP/6-31G(2df,p) Fr
 eq
 ----------------------------------------------------------------------

 Structure from the checkpoint file:  "/scratch/puck/g09_271d75fe-1b46-46b9-bf7b-3684e18014a9/Gau-21087.chk"
 -----
 titel
 -----
 Charge =  0 Multiplicity = 1

                         Standard orientation:
 ---------------------------------------------------------------------
 Center     Atomic      Atomic             Coordinates (Angstroms)
 Number     Number       Type             X           Y           Z
 ---------------------------------------------------------------------
      1          8           0       -2.538034   -0.385087   -0.015291
      2          6           0       -1.359549   -0.121825   -0.004617
      3          6           0       -0.845292    1.231844   -0.512125
      4          8           0        0.374576    1.678717    0.060378
      5          6           0        1.315369    0.656803    0.390811
      6          6           0        1.677215   -0.238236   -0.816329
      7          6           0        0.652650   -1.408806   -0.772384
      8          6           0       -0.273943   -1.087403    0.437367
      9          6           0        0.676388   -0.322935    1.384005
     10          1           0       -0.755323    1.142579   -1.609730
     11          1           0       -1.603574    1.992612   -0.312719
     12          1           0        2.174801    1.196630    0.793305
     13          1           0        1.637712    0.335040   -1.745865
     14          1           0        2.701040   -0.607875   -0.711912
     15          1           0        0.092257   -1.520638   -1.704761
     16          1           0        1.154558   -2.362957   -0.588189
     17          1           0       -0.744344   -1.973794    0.865822
     18          1           0        0.170018    0.194805    2.202877
     19          1           0        1.423497   -1.002094    1.810107
 ---------------------------------------------------------------------

 SCF Done:  E(RB3LYP) =  -423.222988931     A.U. after    1 cycles

 The electronic state is 1-A.
 Alpha  occ. eigenvalues --  -19.14564 -19.13100 -10.26732 -10.23987 -10.23569
 Alpha  occ. eigenvalues --  -10.19861 -10.19816 -10.19243 -10.19059  -1.04740
 Alpha  occ. eigenvalues --   -1.03311  -0.84758  -0.75988  -0.72744  -0.68183
 Alpha  occ. eigenvalues --   -0.62139  -0.58068  -0.53019  -0.51399  -0.48761
 Alpha  occ. eigenvalues --   -0.46777  -0.45202  -0.43223  -0.41918  -0.41482
 Alpha  occ. eigenvalues --   -0.39049  -0.37051  -0.36071  -0.35379  -0.35201
 Alpha  occ. eigenvalues --   -0.33550  -0.31278  -0.26994  -0.23050
 Alpha virt. eigenvalues --   -0.01655   0.06760   0.08253   0.12752   0.13689
 Alpha virt. eigenvalues --    0.14461   0.14815   0.15579   0.16128   0.16273
 Alpha virt. eigenvalues --    0.17185   0.17577   0.19132   0.20630   0.21154

 Mulliken charges:
               1
     1  O   -0.319564
     2  C    0.377046
     3  C   -0.176779
     4  O   -0.270898
     5  C    0.126915
     6  C   -0.233238
     7  C   -0.236173
     8  C   -0.106885
     9  C   -0.246668
    10  H    0.115930
    11  H    0.138195
    12  H    0.083182
    13  H    0.114842
    14  H    0.106672
    15  H    0.114043
    16  H    0.111913
    17  H    0.084690
    18  H    0.114304
    19  H    0.102471
 Sum of Mulliken charges =   0.00000

 Dipole moment (field-independent basis, Debye):
    X=              2.7803    Y=             -0.8583    Z=             -0.1569  Tot=              2.9140
 Quadrupole moment (field-independent basis, Debye-Ang):
   XX=            -59.4872   YY=            -54.6616   ZZ=            -50.8411
   XY=             -3.6752   XZ=              0.7294   YZ=             -0.6425

  Exact polarizability:  82.800  -1.609  71.440   1.276  -1.374  67.110
 Approx polarizability: 123.125   0.469 104.277   2.505  -1.426  99.614

                      1                      2                      3
                      A                      A                      A
 Frequencies --     94.9649               169.3221               214.7678
 Red. masses --      3.8675                 2.2589                 2.3331
 Frc consts  --      0.0205                 0.0382                 0.0634
 IR Inten    --      3.2165                 4.0408                 0.6655

                      4                      5                      6
                      A                      A                      A
 Frequencies --    357.6969               397.6758               429.0370
 Red. masses --      2.5194                 3.8011                 3.3475
 Frc consts  --      0.1899                 0.3542                 0.3630
 IR Inten    --      1.2393                 3.4118                 6.7507

                      7                      8                      9
                      A                      A                      A
 Frequencies --    447.1519               511.6714               618.0355
 Red. masses --      4.4171                 3.1433                 3.3718
 Frc consts  --      0.5203                 0.4849                 0.7588
 IR Inten    --     12.6286                 0.8296                 3.2091

                     10                     11                     12
                      A                      A                      A
 Frequencies --    688.3772               748.2400               782.4516
 Red. masses --      3.3684                 3.9131                 1.6684
 Frc consts  --      0.9404                 1.2908                 0.6018
 IR Inten    --      3.1457                 1.5078                 2.4430

                     13                     14                     15
                      A                      A                      A
 Frequencies --    822.1702               869.3695               884.4689
 Red. masses --      2.7960                 3.0577                 2.3377
 Frc consts  --      1.1135                 1.3616                 1.0775
 IR Inten    --     11.1967                 1.8055                 2.2041

                     16                     17                     18
                      A                      A                      A
 Frequencies --    918.1961               937.0701               956.2544
 Red. masses --      2.2387                 2.7895                 2.1878
 Frc consts  --      1.1120                 1.4432                 1.1787
 IR Inten    --      4.7503                24.3249                 2.4221

                     19                     20                     21
                      A                      A                      A
 Frequencies --    976.2187              1021.5071              1051.1941
 Red. masses --      1.9841                 1.8492                 1.7806
 Frc consts  --      1.1140                 1.1369                 1.1592
 IR Inten    --      0.8924                 1.5598                 7.2602

                     22                     23                     24
                      A                      A                      A
 Frequencies --   1063.6869              1110.9397              1120.5633
 Red. masses --      2.2355                 2.5632                 1.4882
 Frc consts  --      1.4902                 1.8639                 1.1010
 IR Inten    --     11.4988                69.9864                 7.9095

                     25                     26                     27
                      A                      A                      A
 Frequencies --   1182.7418              1212.5750              1228.0621
 Red. masses --      1.6239                 1.7295                 1.5429
 Frc consts  --      1.3384                 1.4982                 1.3710
 IR Inten    --     17.4214                10.0284                 9.1039

                     28                     29                     30
                      A                      A                      A
 Frequencies --   1250.9334              1253.3467              1270.0621
 Red. masses --      1.4900                 1.2037                 1.4648
 Frc consts  --      1.3737                 1.1141                 1.3922
 IR Inten    --      6.9383                 8.2324                39.6641

                     31                     32                     33
                      A                      A                      A
 Frequencies --   1305.1188              1328.6185              1343.5425
 Red. masses --      1.3278                 1.5899                 1.5211
 Frc consts  --      1.3325                 1.6536                 1.6177
 IR Inten    --      0.4430                 4.4442                 0.5880

                     34                     35                     36
                      A                      A                      A
 Frequencies --   1346.9412              1357.5939              1391.5493
 Red. masses --      1.5424                 1.3262                 1.3411
 Frc consts  --      1.6487                 1.4401                 1.5300
 IR Inten    --      1.5281                 2.3860                 6.9452

                     37                     38                     39
                      A                      A                      A
 Frequencies --   1473.1852              1483.4476              1486.7653
 Red. masses --      1.0806                 1.0825                 1.0876
 Frc consts  --      1.3818                 1.4035                 1.4164
 IR Inten    --      3.5451                 9.4574                 2.0343

                     40                     41                     42
                      A                      A                      A
 Frequencies --   1509.7808              1824.4735              2949.3102
 Red. masses --      1.0952                11.8623                 1.0714
 Frc consts  --      1.4708                23.2644                 5.4911
 IR Inten    --      4.1364               186.1448                33.3828

                     43                     44                     45
                      A                      A                      A
 Frequencies --   3043.0706              3054.0863              3065.3695
 Red. masses --      1.0627                 1.0606                 1.0624
 Frc consts  --      5.7982                 5.8287                 5.8818
 IR Inten    --     22.6366                19.2473                25.8920

                     46                     47                     48
                      A                      A                      A
 Frequencies --   3089.7992              3097.1111              3102.8530
 Red. masses --      1.1031                 1.0891                 1.0998
 Frc consts  --      6.2046                 6.1553                 6.2384
 IR Inten    --      9.4077                37.8802                 9.5315

                     49                     50                     51
                      A                      A                      A
 Frequencies --   3103.8316              3105.8542              3113.6013
 Red. masses --      1.0887                 1.0919                 1.1040
 Frc consts  --      6.1795                 6.2060                 6.3058
 IR Inten    --     19.7329                12.7002                33.7128

 - Thermochemistry -
 -------------------
 Temperature   298.150 Kelvin.  Pressure   1.00000 Atm.
 Atom     1 has atomic number  8 and mass  15.99491

 Molecular mass:   126.06808 amu.
 Principal axes and moments of inertia in atomic units:
                           1         2         3
     Eigenvalues --   697.735161030.792371267.03416
           X            0.99831  -0.05818   0.00090
           Y            0.05819   0.99824  -0.01136
           Z           -0.00024   0.01139   0.99994
 This molecule is an asymmetric top.
 Rotational symmetry number  1.
 Warning -- assumption of classical behavior for rotation
           may cause significant error
 Rotational temperatures (Kelvin)      0.12414     0.08403     0.06836
 Rotational constants (GHZ):           2.58657     1.75083     1.42438
 Zero-point vibrational energy     425659.2 (Joules/Mol)
                                  101.73498 (Kcal/Mol)
 Warning -- explicit consideration of   9 degrees of freedom as
           vibrations may cause significant error
 Vibrational temperatures:    136.63   243.62   309.00   514.65   572.17
          (Kelvin)            617.29   643.35   736.18   889.21   990.42
                             1076.55  1125.77  1182.92  1250.83  1272.55
                             1321.08  1348.23  1375.84  1404.56  1469.72
                             1512.43  1530.41  1598.39  1612.24  1701.70
                             1744.62  1766.91  1799.81  1803.28  1827.33
                             1877.77  1911.58  1933.06  1937.95  1953.27
                             2002.13  2119.58  2134.35  2139.12  2172.24
                             2625.01  4243.39  4378.29  4394.14  4410.38
                             4445.53  4456.05  4464.31  4465.72  4468.63
                             4479.77

 Zero-point correction=                           0.162125 (Hartree/Particle)
 Thermal correction to Energy=                    0.169403
 Thermal correction to Enthalpy=                  0.170347
 Thermal correction to Gibbs Free Energy=         0.130415
 Sum of electronic and zero-point Energies=           -423.060864
 Sum of electronic and thermal Energies=              -423.053586
 Sum of electronic and thermal Enthalpies=            -423.052642
 Sum of electronic and thermal Free Energies=         -423.092574

                     E (Thermal)             CV                S
                      KCal/Mol        Cal/Mol-Kelvin    Cal/Mol-Kelvin
 Total                  106.302             29.088             84.045
 Electronic               0.000              0.000              0.000
 Translational            0.889              2.981             40.409
 Rotational               0.889              2.981             28.301
 Vibrational            104.524             23.126             15.335
 Vibration     1          0.603              1.953              3.555
 Vibration     2          0.625              1.880              2.443
 Vibration     3          0.645              1.818              2.003
 Vibration     4          0.733              1.559              1.132
 Vibration     5          0.764              1.475              0.971
 Vibration     6          0.790              1.407              0.862
 Vibration     7          0.806              1.367              0.804
 Vibration     8          0.867              1.224              0.630
 Vibration     9          0.978              0.994              0.420

 Normal termination of Gaussian 09 at Mon Jan 27 13:55:30 2020.
