 Gaussian 09, Revision D.01,
 Gaussian 09:  ES64L-G09RevD.01 24-Apr-2013

 -----------------------------
 # b3lyp 6-31G(2df,p) opt Freq
 -----------------------------

 -----
 titel
 -----
 Symbolic Z-matrix:
 Charge =  0 Multiplicity = 1

 SCF Done:  E(RB3LYP) =  -423.159592287     A.U. after   14 cycles
 Optimization completed.
    -- Stationary point found.
 Normal termination of Gaussian 09 at Mon Jan 27 18:46:12 2020.

 ----------------------------------------------------------------------
 #N Geom=AllCheck Guess=TCheck SCRF=Check GenChk RB3LYP/6-31G(2df,p) Fr
 eq
 ----------------------------------------------------------------------

 Structure from the checkpoint file:  "/scratch/puck/g09_2f4f1822-b393-44ce-aab7-4e74a1c401a6/Gau-70180.chk"
 -----
 titel
 -----
 Charge =  0 Multiplicity = 1

                         Standard orientation:
 ---------------------------------------------------------------------
 Center     Atomic      Atomic             Coordinates (Angstroms)
 Number     Number       Type             X           Y           Z
 ---------------------------------------------------------------------
      1          8           0       -0.370263    1.757159    0.449308
      2          6           0       -0.889872    0.551901    0.011927
      3          6           0       -2.123688    0.394131   -0.879024
      4          6           0       -2.437486   -0.960562   -0.155199
      5          6           0       -1.217235   -0.758112    0.748194
      6          6           0        0.025927   -0.626380   -0.116057
      7          6           0        1.364604   -0.554934    0.598922
      8          6           0        2.401101    0.192099   -0.219091
      9          8           0        3.492112   -0.237603   -0.494908
     10          1           0       -1.062496    2.240265    0.914281
     11          1           0       -2.886634    1.149884   -0.668957
     12          1           0       -1.946402    0.368003   -1.959189
     13          1           0       -3.388100   -0.938687    0.381717
     14          1           0       -2.412434   -1.854400   -0.786656
     15          1           0       -1.138907   -1.023474    1.795941
     16          1           0        0.054082   -1.169296   -1.062292
     17          1           0        1.242290   -0.004567    1.540743
     18          1           0        1.751843   -1.552190    0.828288
     19          1           0        2.071864    1.199155   -0.557106
 ---------------------------------------------------------------------

 SCF Done:  E(RB3LYP) =  -423.159592287     A.U. after    1 cycles

 The electronic state is 1-A.
 Alpha  occ. eigenvalues --  -19.16177 -19.13029 -10.26114 -10.24815 -10.20168
 Alpha  occ. eigenvalues --  -10.19519 -10.19410 -10.19270 -10.19173  -1.04683
 Alpha  occ. eigenvalues --   -1.03660  -0.89716  -0.77859  -0.70677  -0.66014
 Alpha  occ. eigenvalues --   -0.58837  -0.57176  -0.56463  -0.51897  -0.48619
 Alpha  occ. eigenvalues --   -0.46679  -0.44374  -0.43108  -0.41904  -0.40434
 Alpha  occ. eigenvalues --   -0.38967  -0.38108  -0.37203  -0.35248  -0.33920
 Alpha  occ. eigenvalues --   -0.31988  -0.28094  -0.24733  -0.23759
 Alpha virt. eigenvalues --   -0.01300   0.06547   0.09554   0.10461   0.11397
 Alpha virt. eigenvalues --    0.12217   0.14003   0.14374   0.15155   0.15666
 Alpha virt. eigenvalues --    0.17135   0.18850   0.19923   0.22254   0.22719

 Mulliken charges:
               1
     1  O   -0.456858
     2  C    0.396392
     3  C   -0.297391
     4  C   -0.235894
     5  C   -0.154575
     6  C   -0.057345
     7  C   -0.314189
     8  C    0.157206
     9  O   -0.244029
    10  H    0.287655
    11  H    0.098455
    12  H    0.103481
    13  H    0.105822
    14  H    0.103411
    15  H    0.089944
    16  H    0.084527
    17  H    0.124241
    18  H    0.116559
    19  H    0.092588
 Sum of Mulliken charges =   0.00000

 Dipole moment (field-independent basis, Debye):
    X=             -4.1169    Y=              0.6060    Z=              1.2824  Tot=              4.3543
 Quadrupole moment (field-independent basis, Debye-Ang):
   XX=            -63.5886   YY=            -51.6601   ZZ=            -51.2146
   XY=             -1.0252   XZ=              1.5012   YZ=              1.5460

  Exact polarizability:  93.538  -1.892  72.418  -1.141  -1.376  65.066
 Approx polarizability: 123.933  -5.364 110.496  -6.580  -0.719 100.086

                      1                      2                      3
                      A                      A                      A
 Frequencies --     59.3700                77.0487               146.4860
 Red. masses --      5.0130                 4.0625                 2.6006
 Frc consts  --      0.0104                 0.0142                 0.0329
 IR Inten    --      4.1208                 0.7943                 1.8162

                      4                      5                      6
                      A                      A                      A
 Frequencies --    207.9086               252.3167               319.3924
 Red. masses --      2.4522                 2.1354                 1.1669
 Frc consts  --      0.0625                 0.0801                 0.0701
 IR Inten    --      2.7593                 1.3839                72.7635

                      7                      8                      9
                      A                      A                      A
 Frequencies --    332.7104               355.1768               418.2830
 Red. masses --      3.7181                 3.0813                 2.9138
 Frc consts  --      0.2425                 0.2290                 0.3004
 IR Inten    --      3.4313                19.0582                17.6041

                     10                     11                     12
                      A                      A                      A
 Frequencies --    467.3033               543.3953               671.3811
 Red. masses --      3.5438                 1.9823                 5.6960
 Frc consts  --      0.4560                 0.3449                 1.5127
 IR Inten    --      6.9332                 6.5771                 6.4332

                     13                     14                     15
                      A                      A                      A
 Frequencies --    709.3552               774.1424               815.7942
 Red. masses --      3.1214                 1.4949                 1.9749
 Frc consts  --      0.9254                 0.5279                 0.7744
 IR Inten    --      1.6396                 0.5244                 9.4154

                     16                     17                     18
                      A                      A                      A
 Frequencies --    836.2016               916.7791               937.7457
 Red. masses --      1.9590                 1.4786                 2.2846
 Frc consts  --      0.8070                 0.7322                 1.1837
 IR Inten    --      0.7847                 0.7654                 1.8679

                     19                     20                     21
                      A                      A                      A
 Frequencies --    967.7285               993.0108              1025.9517
 Red. masses --      2.5243                 1.5507                 2.3433
 Frc consts  --      1.3928                 0.9009                 1.4532
 IR Inten    --      8.8951                 2.7728                 3.7273

                     22                     23                     24
                      A                      A                      A
 Frequencies --   1051.8448              1075.5501              1084.3593
 Red. masses --      2.2637                 1.8228                 1.9254
 Frc consts  --      1.4756                 1.2424                 1.3339
 IR Inten    --     45.4737                 2.0574                 9.2286

                     25                     26                     27
                      A                      A                      A
 Frequencies --   1115.6867              1150.3195              1188.8502
 Red. masses --      1.7809                 1.7137                 1.5507
 Frc consts  --      1.3061                 1.3361                 1.2913
 IR Inten    --      3.2589                 5.2939                14.5108

                     28                     29                     30
                      A                      A                      A
 Frequencies --   1208.8968              1222.4636              1226.0232
 Red. masses --      1.2865                 1.3848                 1.4744
 Frc consts  --      1.1078                 1.2193                 1.3058
 IR Inten    --      1.1029                 1.2412                 9.2143

                     31                     32                     33
                      A                      A                      A
 Frequencies --   1256.0167              1281.0253              1296.7425
 Red. masses --      1.5976                 1.4600                 1.5236
 Frc consts  --      1.4849                 1.4116                 1.5095
 IR Inten    --     10.1147                11.7567                 7.9057

                     34                     35                     36
                      A                      A                      A
 Frequencies --   1310.8888              1369.2001              1423.3725
 Red. masses --      1.8839                 1.6867                 1.1972
 Frc consts  --      1.9074                 1.8630                 1.4290
 IR Inten    --    151.8692                 6.3797                 6.0069

                     37                     38                     39
                      A                      A                      A
 Frequencies --   1447.2460              1459.6573              1481.6178
 Red. masses --      1.4277                 1.6089                 1.1171
 Frc consts  --      1.7618                 2.0197                 1.4448
 IR Inten    --      3.2628                10.1165                 0.1451

                     40                     41                     42
                      A                      A                      A
 Frequencies --   1506.9275              1831.7830              2899.6547
 Red. masses --      1.2321                 9.8281                 1.0836
 Frc consts  --      1.6484                19.4297                 5.3681
 IR Inten    --      5.7819               199.0340                71.1160

                     43                     44                     45
                      A                      A                      A
 Frequencies --   3032.2639              3042.0096              3052.3117
 Red. masses --      1.0602                 1.0576                 1.0622
 Frc consts  --      5.7435                 5.7661                 5.8306
 IR Inten    --      9.2366                43.4671                50.9050

                     46                     47                     48
                      A                      A                      A
 Frequencies --   3081.6883              3089.0706              3098.7275
 Red. masses --      1.0883                 1.1070                 1.1003
 Frc consts  --      6.0895                 6.2238                 6.2248
 IR Inten    --     13.5725                 7.9867                21.2783

                     49                     50                     51
                      A                      A                      A
 Frequencies --   3111.8758              3182.8742              3793.2304
 Red. masses --      1.1049                 1.0927                 1.0660
 Frc consts  --      6.3042                 6.5223                 9.0367
 IR Inten    --     40.3423                12.2020                21.5608

 - Thermochemistry -
 -------------------
 Temperature   298.150 Kelvin.  Pressure   1.00000 Atm.
 Atom     1 has atomic number  8 and mass  15.99491

 Molecular mass:   126.06808 amu.
 Principal axes and moments of inertia in atomic units:
                           1         2         3
     Eigenvalues --   506.741931872.234732078.25351
           X            0.99991   0.00589   0.01221
           Y           -0.00571   0.99987  -0.01500
           Z           -0.01230   0.01493   0.99981
 This molecule is an asymmetric top.
 Rotational symmetry number  1.
 Warning -- assumption of classical behavior for rotation
           may cause significant error
 Rotational temperatures (Kelvin)      0.17092     0.04626     0.04168
 Rotational constants (GHZ):           3.56146     0.96395     0.86839
 Zero-point vibrational energy     413905.9 (Joules/Mol)
                                   98.92588 (Kcal/Mol)
 Warning -- explicit consideration of  11 degrees of freedom as
           vibrations may cause significant error
 Vibrational temperatures:     85.42   110.86   210.76   299.13   363.03
          (Kelvin)            459.53   478.70   511.02   601.82   672.34
                              781.82   965.97  1020.60  1113.82  1173.74
                             1203.11  1319.04  1349.21  1392.34  1428.72
                             1476.11  1513.37  1547.47  1560.15  1605.22
                             1655.05  1710.49  1739.33  1758.85  1763.97
                             1807.13  1843.11  1865.72  1886.07  1969.97
                             2047.91  2082.26  2100.12  2131.71  2168.13
                             2635.52  4171.95  4362.75  4376.77  4391.59
                             4433.86  4444.48  4458.37  4477.29  4579.44
                             5457.61

 Zero-point correction=                           0.157648 (Hartree/Particle)
 Thermal correction to Energy=                    0.166576
 Thermal correction to Enthalpy=                  0.167520
 Thermal correction to Gibbs Free Energy=         0.123436
 Sum of electronic and zero-point Energies=           -423.001944
 Sum of electronic and thermal Energies=              -422.993016
 Sum of electronic and thermal Enthalpies=            -422.992072
 Sum of electronic and thermal Free Energies=         -423.036156

                     E (Thermal)             CV                S
                      KCal/Mol        Cal/Mol-Kelvin    Cal/Mol-Kelvin
 Total                  104.528             33.203             92.783
 Electronic               0.000              0.000              0.000
 Translational            0.889              2.981             40.409
 Rotational               0.889              2.981             29.068
 Vibrational            102.751             27.241             23.306
 Vibration     1          0.597              1.974              4.478
 Vibration     2          0.599              1.964              3.965
 Vibration     3          0.617              1.906              2.717
 Vibration     4          0.641              1.829              2.062
 Vibration     5          0.664              1.759              1.714
 Vibration     6          0.705              1.636              1.313
 Vibration     7          0.715              1.610              1.247
 Vibration     8          0.731              1.565              1.143
 Vibration     9          0.781              1.431              0.898
 Vibration    10          0.825              1.323              0.745
 Vibration    11          0.899              1.154              0.558

 Normal termination of Gaussian 09 at Mon Jan 27 19:29:05 2020.
