 Gaussian 09, Revision D.01,
 Gaussian 09:  ES64L-G09RevD.01 24-Apr-2013

 -----------------------------
 # b3lyp 6-31G(2df,p) opt Freq
 -----------------------------

 -----
 titel
 -----
 Symbolic Z-matrix:
 Charge =  0 Multiplicity = 1

 SCF Done:  E(RB3LYP) =  -423.178866612     A.U. after   14 cycles
 Optimization completed.
    -- Stationary point found.
 Normal termination of Gaussian 09 at Tue Jan 28 09:16:08 2020.

 ----------------------------------------------------------------------
 #N Geom=AllCheck Guess=TCheck SCRF=Check GenChk RB3LYP/6-31G(2df,p) Fr
 eq
 ----------------------------------------------------------------------

 Structure from the checkpoint file:  "/scratch/puck/g09_886d4509-2e2a-4571-987c-195a272c6bba/Gau-82376.chk"
 -----
 titel
 -----
 Charge =  0 Multiplicity = 1

                         Standard orientation:
 ---------------------------------------------------------------------
 Center     Atomic      Atomic             Coordinates (Angstroms)
 Number     Number       Type             X           Y           Z
 ---------------------------------------------------------------------
      1          6           0       -2.668368   -0.776203    0.210630
      2          6           0       -1.385550   -0.935578   -0.619429
      3          6           0       -0.250860   -0.144855   -0.054138
      4          8           0        0.371973   -0.591476    1.182915
      5          6           0        1.226509   -0.351368    0.062712
      6          6           0        2.097167   -1.454989   -0.441223
      7          6           0        1.526385    1.159285    0.112249
      8          6           0       -0.009006    1.363708   -0.056512
      9          8           0       -0.699171    2.313534   -0.283949
     10          1           0       -3.486002   -1.357477   -0.224642
     11          1           0       -2.509220   -1.121823    1.236019
     12          1           0       -2.975459    0.272847    0.248132
     13          1           0       -1.092298   -1.990425   -0.669090
     14          1           0       -1.562424   -0.600138   -1.648515
     15          1           0        2.958364   -1.597837    0.220660
     16          1           0        1.542025   -2.395652   -0.483072
     17          1           0        2.476425   -1.222132   -1.441114
     18          1           0        1.984073    1.516474    1.037078
     19          1           0        2.064446    1.559701   -0.752914
 ---------------------------------------------------------------------

 SCF Done:  E(RB3LYP) =  -423.178866612     A.U. after    1 cycles

 The electronic state is 1-A.
 Alpha  occ. eigenvalues --  -19.16287 -19.14185 -10.27516 -10.25723 -10.24498
 Alpha  occ. eigenvalues --  -10.19939 -10.19857 -10.19802 -10.17874  -1.08920
 Alpha  occ. eigenvalues --   -1.04802  -0.80231  -0.78525  -0.74812  -0.67271
 Alpha  occ. eigenvalues --   -0.61647  -0.57650  -0.51579  -0.48878  -0.47790
 Alpha  occ. eigenvalues --   -0.46087  -0.45009  -0.42858  -0.41867  -0.41812
 Alpha  occ. eigenvalues --   -0.39751  -0.39418  -0.37172  -0.36150  -0.35250
 Alpha  occ. eigenvalues --   -0.35017  -0.31055  -0.27357  -0.23627
 Alpha virt. eigenvalues --   -0.02151   0.07969   0.08610   0.11063   0.11410
 Alpha virt. eigenvalues --    0.13581   0.13773   0.15143   0.15479   0.16165
 Alpha virt. eigenvalues --    0.17142   0.17633   0.18510   0.19966   0.22238

 Mulliken charges:
               1
     1  C   -0.383880
     2  C   -0.318465
     3  C    0.231066
     4  O   -0.317335
     5  C    0.331307
     6  C   -0.500706
     7  C   -0.421751
     8  C    0.400274
     9  O   -0.306691
    10  H    0.115003
    11  H    0.134198
    12  H    0.142799
    13  H    0.111040
    14  H    0.114907
    15  H    0.139110
    16  H    0.137603
    17  H    0.131220
    18  H    0.132167
    19  H    0.128136
 Sum of Mulliken charges =   0.00000

 Dipole moment (field-independent basis, Debye):
    X=              1.6226    Y=             -2.1711    Z=             -1.3445  Tot=              3.0256
 Quadrupole moment (field-independent basis, Debye-Ang):
   XX=            -48.9960   YY=            -58.3197   ZZ=            -54.0660
   XY=              3.1857   XZ=             -0.7202   YZ=              2.4131

  Exact polarizability:  90.757  -1.562  79.095   1.152  -0.275  60.713
 Approx polarizability: 122.703  -8.843 116.767   3.776  -6.548  99.015

                      1                      2                      3
                      A                      A                      A
 Frequencies --     57.0684               104.9656               134.5432
 Red. masses --      2.5795                 4.2813                 2.9215
 Frc consts  --      0.0049                 0.0278                 0.0312
 IR Inten    --      0.6307                 3.8762                 0.8234

                      4                      5                      6
                      A                      A                      A
 Frequencies --    185.5836               202.2126               237.2221
 Red. masses --      1.0763                 1.3545                 3.0991
 Frc consts  --      0.0218                 0.0326                 0.1028
 IR Inten    --      0.1228                 0.2608                 0.8881

                      7                      8                      9
                      A                      A                      A
 Frequencies --    276.9530               335.0708               401.8297
 Red. masses --      1.6521                 2.4467                 4.0235
 Frc consts  --      0.0747                 0.1618                 0.3828
 IR Inten    --      0.3971                 3.3619                 3.4589

                     10                     11                     12
                      A                      A                      A
 Frequencies --    498.1961               514.1468               564.1188
 Red. masses --      3.5508                 3.0124                 3.7546
 Frc consts  --      0.5192                 0.4692                 0.7040
 IR Inten    --     11.5399                 1.2751                 2.1853

                     13                     14                     15
                      A                      A                      A
 Frequencies --    616.9804               660.7800               728.5639
 Red. masses --      3.2683                 4.2159                 3.8080
 Frc consts  --      0.7330                 1.0845                 1.1909
 IR Inten    --      7.0390                 1.2717                 9.7629

                     16                     17                     18
                      A                      A                      A
 Frequencies --    761.2181               830.0207               853.6903
 Red. masses --      1.6747                 1.9622                 4.0741
 Frc consts  --      0.5717                 0.7965                 1.7494
 IR Inten    --      1.3612                 4.1809                17.5433

                     19                     20                     21
                      A                      A                      A
 Frequencies --    943.7451               968.2932               983.3365
 Red. masses --      1.9214                 2.2430                 2.1012
 Frc consts  --      1.0083                 1.2391                 1.1971
 IR Inten    --      6.9407                 6.8614                 2.6570

                     22                     23                     24
                      A                      A                      A
 Frequencies --   1025.1659              1061.4599              1095.3582
 Red. masses --      3.3538                 1.4976                 1.9154
 Frc consts  --      2.0767                 0.9941                 1.3540
 IR Inten    --     29.4296                 4.6194                 6.2384

                     25                     26                     27
                      A                      A                      A
 Frequencies --   1131.0813              1147.4279              1187.5783
 Red. masses --      2.0948                 1.5630                 1.5083
 Frc consts  --      1.5790                 1.2125                 1.2533
 IR Inten    --     13.3981                 3.3551                 8.8899

                     28                     29                     30
                      A                      A                      A
 Frequencies --   1207.6919              1289.5523              1313.1005
 Red. masses --      2.7902                 1.9512                 1.5099
 Frc consts  --      2.3977                 1.9118                 1.5339
 IR Inten    --     13.8880                14.7940                 2.6326

                     31                     32                     33
                      A                      A                      A
 Frequencies --   1355.3549              1406.2107              1413.2984
 Red. masses --      1.7063                 1.2664                 1.3526
 Frc consts  --      1.8468                 1.4754                 1.5918
 IR Inten    --      4.5503                 3.1795                 4.7411

                     34                     35                     36
                      A                      A                      A
 Frequencies --   1436.7350              1465.4219              1471.0813
 Red. masses --      1.2471                 1.2686                 1.1926
 Frc consts  --      1.5167                 1.6051                 1.5206
 IR Inten    --      7.9139                 0.8482                 3.2998

                     37                     38                     39
                      A                      A                      A
 Frequencies --   1486.1942              1496.0232              1498.2210
 Red. masses --      1.2180                 1.2527                 1.0856
 Frc consts  --      1.5851                 1.6518                 1.4357
 IR Inten    --      9.3730                 2.8506                 9.7865

                     40                     41                     42
                      A                      A                      A
 Frequencies --   1512.9251              1889.5144              3031.6012
 Red. masses --      1.2259                12.8674                 1.0588
 Frc consts  --      1.6532                27.0670                 5.7334
 IR Inten    --     10.4187               269.9157                15.3248

                     43                     44                     45
                      A                      A                      A
 Frequencies --   3037.9224              3045.2720              3061.5262
 Red. masses --      1.0362                 1.0342                 1.0589
 Frc consts  --      5.6344                 5.6510                 5.8474
 IR Inten    --     21.1856                23.0028                10.8553

                     46                     47                     48
                      A                      A                      A
 Frequencies --   3070.6990              3101.3818              3119.0932
 Red. masses --      1.1024                 1.1001                 1.1023
 Frc consts  --      6.1242                 6.2342                 6.3183
 IR Inten    --     10.0157                11.4599                25.0707

                     49                     50                     51
                      A                      A                      A
 Frequencies --   3123.3149              3123.7974              3125.1348
 Red. masses --      1.1020                 1.1028                 1.1052
 Frc consts  --      6.3338                 6.3401                 6.3596
 IR Inten    --      7.0013                22.3257                10.7453

 - Thermochemistry -
 -------------------
 Temperature   298.150 Kelvin.  Pressure   1.00000 Atm.
 Atom     1 has atomic number  6 and mass  12.00000

 Molecular mass:   126.06808 amu.
 Principal axes and moments of inertia in atomic units:
                           1         2         3
     Eigenvalues --   843.724731125.925981683.32748
           X            0.99816   0.05949  -0.01168
           Y           -0.05915   0.99787   0.02758
           Z            0.01329  -0.02684   0.99955
 This molecule is an asymmetric top.
 Rotational symmetry number  1.
 Warning -- assumption of classical behavior for rotation
           may cause significant error
 Rotational temperatures (Kelvin)      0.10266     0.07693     0.05145
 Rotational constants (GHZ):           2.13902     1.60290     1.07213
 Zero-point vibrational energy     410245.4 (Joules/Mol)
                                   98.05101 (Kcal/Mol)
 Warning -- explicit consideration of  13 degrees of freedom as
           vibrations may cause significant error
 Vibrational temperatures:     82.11   151.02   193.58   267.01   290.94
          (Kelvin)            341.31   398.47   482.09   578.14   716.79
                              739.74   811.64   887.70   950.71  1048.24
                             1095.22  1194.21  1228.27  1357.84  1393.16
                             1414.80  1474.98  1527.20  1575.97  1627.37
                             1650.89  1708.66  1737.60  1855.38  1889.26
                             1950.05  2023.22  2033.42  2067.14  2108.41
                             2116.56  2138.30  2152.44  2155.60  2176.76
                             2718.59  4361.79  4370.89  4381.46  4404.85
                             4418.05  4462.19  4487.67  4493.75  4494.44
                             4496.37

 Zero-point correction=                           0.156254 (Hartree/Particle)
 Thermal correction to Energy=                    0.165686
 Thermal correction to Enthalpy=                  0.166630
 Thermal correction to Gibbs Free Energy=         0.121777
 Sum of electronic and zero-point Energies=           -423.022612
 Sum of electronic and thermal Energies=              -423.013181
 Sum of electronic and thermal Enthalpies=            -423.012237
 Sum of electronic and thermal Free Energies=         -423.057089

                     E (Thermal)             CV                S
                      KCal/Mol        Cal/Mol-Kelvin    Cal/Mol-Kelvin
 Total                  103.969             34.528             94.400
 Electronic               0.000              0.000              0.000
 Translational            0.889              2.981             40.409
 Rotational               0.889              2.981             28.860
 Vibrational            102.192             28.566             25.132
 Vibration     1          0.596              1.975              4.556
 Vibration     2          0.605              1.945              3.360
 Vibration     3          0.613              1.919              2.880
 Vibration     4          0.632              1.860              2.271
 Vibration     5          0.639              1.837              2.113
 Vibration     6          0.656              1.784              1.824
 Vibration     7          0.678              1.716              1.552
 Vibration     8          0.716              1.605              1.236
 Vibration     9          0.767              1.466              0.956
 Vibration    10          0.854              1.254              0.663
 Vibration    11          0.869              1.219              0.624
 Vibration    12          0.920              1.109              0.516
 Vibration    13          0.977              0.996              0.421

 Normal termination of Gaussian 09 at Tue Jan 28 10:05:42 2020.
