 Gaussian 09, Revision D.01,
 Gaussian 09:  ES64L-G09RevD.01 24-Apr-2013

 -----------------------------
 # b3lyp 6-31G(2df,p) opt Freq
 -----------------------------

 -----
 titel
 -----
 Symbolic Z-matrix:
 Charge =  0 Multiplicity = 1

 SCF Done:  E(RB3LYP) =  -423.164635125     A.U. after   14 cycles
 Optimization completed.
    -- Stationary point found.
 Normal termination of Gaussian 09 at Tue Jan 28 12:40:29 2020.

 ----------------------------------------------------------------------
 #N Geom=AllCheck Guess=TCheck SCRF=Check GenChk RB3LYP/6-31G(2df,p) Fr
 eq
 ----------------------------------------------------------------------

 Structure from the checkpoint file:  "/scratch/puck/g09_e985b404-d768-4c21-a1a7-a1496fa0ed78/Gau-30223.chk"
 -----
 titel
 -----
 Charge =  0 Multiplicity = 1

                         Standard orientation:
 ---------------------------------------------------------------------
 Center     Atomic      Atomic             Coordinates (Angstroms)
 Number     Number       Type             X           Y           Z
 ---------------------------------------------------------------------
      1          8           0       -3.087240    0.221031   -0.172283
      2          6           0       -2.042992   -0.717612   -0.008358
      3          6           0       -0.666841   -0.111046    0.123033
      4          6           0       -0.411511    1.184941   -0.060101
      5          6           0        0.991022    1.724317    0.058982
      6          8           0        1.987878    0.767047   -0.283222
      7          6           0        1.841165   -0.479936    0.331069
      8          6           0        1.385343   -1.614483   -0.543912
      9          6           0        0.449028   -1.019538    0.503001
     10          1           0       -3.099503    0.777699    0.613609
     11          1           0       -2.228560   -1.379278    0.855885
     12          1           0       -2.077595   -1.364385   -0.894649
     13          1           0       -1.204975    1.875414   -0.327242
     14          1           0        1.141492    2.557782   -0.634365
     15          1           0        1.167030    2.117753    1.075632
     16          1           0        2.580703   -0.677851    1.105167
     17          1           0        1.194000   -1.363769   -1.581034
     18          1           0        1.785098   -2.607403   -0.368126
     19          1           0        0.265925   -1.640448    1.376883
 ---------------------------------------------------------------------

 SCF Done:  E(RB3LYP) =  -423.164635125     A.U. after    1 cycles

 The electronic state is 1-A.
 Alpha  occ. eigenvalues --  -19.13984 -19.13957 -10.23384 -10.23284 -10.23084
 Alpha  occ. eigenvalues --  -10.19670 -10.19023 -10.18709 -10.17760  -1.03655
 Alpha  occ. eigenvalues --   -1.02189  -0.85635  -0.79465  -0.71247  -0.65437
 Alpha  occ. eigenvalues --   -0.62122  -0.58967  -0.52623  -0.50758  -0.49090
 Alpha  occ. eigenvalues --   -0.48676  -0.46555  -0.44100  -0.43198  -0.40180
 Alpha  occ. eigenvalues --   -0.39586  -0.36456  -0.35030  -0.34572  -0.32205
 Alpha  occ. eigenvalues --   -0.28790  -0.26724  -0.25103  -0.23216
 Alpha virt. eigenvalues --    0.01351   0.07680   0.09873   0.11546   0.12442
 Alpha virt. eigenvalues --    0.12905   0.13422   0.14387   0.16494   0.16825
 Alpha virt. eigenvalues --    0.18146   0.19544   0.20217   0.21182   0.23655

 Mulliken charges:
               1
     1  O   -0.406098
     2  C   -0.145070
     3  C    0.242032
     4  C   -0.179698
     5  C   -0.122792
     6  O   -0.258792
     7  C    0.101072
     8  C   -0.306862
     9  C   -0.155686
    10  H    0.282950
    11  H    0.091040
    12  H    0.128348
    13  H    0.095425
    14  H    0.117309
    15  H    0.098426
    16  H    0.088468
    17  H    0.126006
    18  H    0.111255
    19  H    0.092668
 Sum of Mulliken charges =   0.00000

 Dipole moment (field-independent basis, Debye):
    X=             -0.1544    Y=             -0.3529    Z=              1.8418  Tot=              1.8817
 Quadrupole moment (field-independent basis, Debye-Ang):
   XX=            -60.3341   YY=            -48.4096   ZZ=            -52.0475
   XY=             -2.5990   XZ=             -1.9326   YZ=              0.6594

  Exact polarizability:  81.710  -0.650  91.066   0.484  -0.130  59.676
 Approx polarizability: 108.883   1.852 139.596  -0.702  -1.714  93.602

                      1                      2                      3
                      A                      A                      A
 Frequencies --     88.7916               134.9317               186.8657
 Red. masses --      3.7121                 2.6391                 4.0844
 Frc consts  --      0.0172                 0.0283                 0.0840
 IR Inten    --      2.7049                 1.6850                 0.8325

                      4                      5                      6
                      A                      A                      A
 Frequencies --    234.0133               240.8279               333.7492
 Red. masses --      2.9606                 1.8574                 1.3570
 Frc consts  --      0.0955                 0.0635                 0.0891
 IR Inten    --      4.4967                 6.3265                94.5376

                      7                      8                      9
                      A                      A                      A
 Frequencies --    376.4758               406.8655               517.4264
 Red. masses --      3.1833                 2.7613                 4.2588
 Frc consts  --      0.2658                 0.2693                 0.6718
 IR Inten    --     36.0772                 1.7350                15.8687

                     10                     11                     12
                      A                      A                      A
 Frequencies --    561.2765               591.3788               740.1311
 Red. masses --      4.7766                 3.2741                 3.1992
 Frc consts  --      0.8866                 0.6746                 1.0325
 IR Inten    --      1.7047                 2.3037                 1.2781

                     13                     14                     15
                      A                      A                      A
 Frequencies --    766.7414               819.4571               827.7932
 Red. masses --      2.0077                 2.2749                 1.5387
 Frc consts  --      0.6954                 0.9001                 0.6212
 IR Inten    --      6.2155                 3.9952                18.0879

                     16                     17                     18
                      A                      A                      A
 Frequencies --    833.6444               945.7246               974.3535
 Red. masses --      1.6219                 2.2694                 2.4054
 Frc consts  --      0.6641                 1.1959                 1.3455
 IR Inten    --      3.2369                 1.3391                16.6222

                     19                     20                     21
                      A                      A                      A
 Frequencies --    983.2868              1018.0973              1044.3546
 Red. masses --      1.9576                 2.3429                 1.3994
 Frc consts  --      1.1152                 1.4308                 0.8993
 IR Inten    --      9.0145                12.3715                14.9051

                     22                     23                     24
                      A                      A                      A
 Frequencies --   1056.7539              1070.2406              1082.0077
 Red. masses --      1.9922                 2.8788                 2.5932
 Frc consts  --      1.3108                 1.9428                 1.7888
 IR Inten    --      7.9813                17.9155                53.1160

                     25                     26                     27
                      A                      A                      A
 Frequencies --   1106.3805              1123.8491              1170.9608
 Red. masses --      1.9125                 1.2937                 2.5738
 Frc consts  --      1.3793                 0.9627                 2.0793
 IR Inten    --     49.1254                 1.6452                20.8482

                     28                     29                     30
                      A                      A                      A
 Frequencies --   1184.6864              1209.8090              1234.0396
 Red. masses --      2.0112                 1.1648                 2.0026
 Frc consts  --      1.6631                 1.0044                 1.7968
 IR Inten    --     22.2651                 6.8833                43.4173

                     31                     32                     33
                      A                      A                      A
 Frequencies --   1268.2533              1294.5990              1360.5480
 Red. masses --      1.1447                 1.3466                 1.2666
 Frc consts  --      1.0848                 1.3297                 1.3814
 IR Inten    --      4.3432                 8.2772                 3.8908

                     34                     35                     36
                      A                      A                      A
 Frequencies --   1383.2709              1401.6699              1409.2887
 Red. masses --      1.3634                 1.4763                 1.3588
 Frc consts  --      1.5371                 1.7089                 1.5901
 IR Inten    --      3.6212                27.7718                36.6069

                     37                     38                     39
                      A                      A                      A
 Frequencies --   1427.4088              1473.7918              1490.4460
 Red. masses --      1.7597                 1.3872                 1.0831
 Frc consts  --      2.1124                 1.7752                 1.4176
 IR Inten    --      6.0611                 8.5336                 1.1942

                     40                     41                     42
                      A                      A                      A
 Frequencies --   1495.6704              1731.2515              2949.3565
 Red. masses --      1.1035                 7.4274                 1.0726
 Frc consts  --      1.4544                13.1162                 5.4974
 IR Inten    --      2.0084                 4.5786                64.6607

                     43                     44                     45
                      A                      A                      A
 Frequencies --   2951.3016              3040.7770              3072.7738
 Red. masses --      1.0724                 1.0872                 1.0883
 Frc consts  --      5.5033                 5.9230                 6.0541
 IR Inten    --     63.3489                20.9106                31.4954

                     46                     47                     48
                      A                      A                      A
 Frequencies --   3111.1310              3130.5741              3135.8773
 Red. masses --      1.0874                 1.0774                 1.0650
 Frc consts  --      6.2011                 6.2211                 6.1706
 IR Inten    --     33.1168                16.0501                19.0715

                     49                     50                     51
                      A                      A                      A
 Frequencies --   3183.0233              3230.4400              3808.4472
 Red. masses --      1.0897                 1.1173                 1.0659
 Frc consts  --      6.5046                 6.8700                 9.1087
 IR Inten    --      5.5048                 7.6282                16.6011

 - Thermochemistry -
 -------------------
 Temperature   298.150 Kelvin.  Pressure   1.00000 Atm.
 Atom     1 has atomic number  8 and mass  15.99491

 Molecular mass:   126.06808 amu.
 Principal axes and moments of inertia in atomic units:
                           1         2         3
     Eigenvalues --   592.106271446.160701900.33158
           X            0.99997  -0.00758  -0.00099
           Y            0.00758   0.99996   0.00508
           Z            0.00095  -0.00509   0.99999
 This molecule is an asymmetric top.
 Rotational symmetry number  1.
 Warning -- assumption of classical behavior for rotation
           may cause significant error
 Rotational temperatures (Kelvin)      0.14628     0.05989     0.04558
 Rotational constants (GHZ):           3.04800     1.24795     0.94970
 Zero-point vibrational energy     419977.8 (Joules/Mol)
                                  100.37712 (Kcal/Mol)
 Warning -- explicit consideration of  11 degrees of freedom as
           vibrations may cause significant error
 Vibrational temperatures:    127.75   194.14   268.86   336.69   346.50
          (Kelvin)            480.19   541.66   585.39   744.46   807.55
                              850.86  1064.88  1103.17  1179.01  1191.01
                             1199.43  1360.69  1401.88  1414.73  1464.81
                             1502.59  1520.43  1539.84  1556.77  1591.83
                             1616.97  1684.75  1704.50  1740.64  1775.51
                             1824.73  1862.64  1957.52  1990.22  2016.69
                             2027.65  2053.72  2120.46  2144.42  2151.93
                             2490.88  4243.46  4246.26  4374.99  4421.03
                             4476.22  4504.19  4511.82  4579.65  4647.88
                             5479.50

 Zero-point correction=                           0.159961 (Hartree/Particle)
 Thermal correction to Energy=                    0.168253
 Thermal correction to Enthalpy=                  0.169197
 Thermal correction to Gibbs Free Energy=         0.126997
 Sum of electronic and zero-point Energies=           -423.004674
 Sum of electronic and thermal Energies=              -422.996383
 Sum of electronic and thermal Enthalpies=            -422.995438
 Sum of electronic and thermal Free Energies=         -423.037638

                     E (Thermal)             CV                S
                      KCal/Mol        Cal/Mol-Kelvin    Cal/Mol-Kelvin
 Total                  105.580             31.837             88.816
 Electronic               0.000              0.000              0.000
 Translational            0.889              2.981             40.409
 Rotational               0.889              2.981             28.877
 Vibrational            103.803             25.875             19.530
 Vibration     1          0.602              1.957              3.687
 Vibration     2          0.613              1.918              2.875
 Vibration     3          0.632              1.858              2.259
 Vibration     4          0.654              1.789              1.848
 Vibration     5          0.658              1.778              1.797
 Vibration     6          0.715              1.608              1.242
 Vibration     7          0.747              1.520              1.053
 Vibration     8          0.772              1.455              0.938
 Vibration     9          0.872              1.211              0.616
 Vibration    10          0.917              1.115              0.521
 Vibration    11          0.949              1.050              0.465

 Optimization completed.
    -- Stationary point found.
 Normal termination of Gaussian 09 at Tue Jan 28 13:23:51 2020.
