 Gaussian 09, Revision D.01,
 Gaussian 09:  ES64L-G09RevD.01 24-Apr-2013

 -----------------------------
 # b3lyp 6-31G(2df,p) opt Freq
 -----------------------------

 -----
 titel
 -----
 Symbolic Z-matrix:
 Charge =  0 Multiplicity = 1

 SCF Done:  E(RB3LYP) =  -423.152080311     A.U. after   14 cycles
 Optimization completed.
    -- Stationary point found.
 Normal termination of Gaussian 09 at Tue Jan 28 11:50:41 2020.

 ----------------------------------------------------------------------
 #N Geom=AllCheck Guess=TCheck SCRF=Check GenChk RB3LYP/6-31G(2df,p) Fr
 eq
 ----------------------------------------------------------------------

 Structure from the checkpoint file:  "/scratch/puck/g09_bfdc9331-1f59-4edc-92d5-9bbe29ed3e9a/Gau-24822.chk"
 -----
 titel
 -----
 Charge =  0 Multiplicity = 1

                         Standard orientation:
 ---------------------------------------------------------------------
 Center     Atomic      Atomic             Coordinates (Angstroms)
 Number     Number       Type             X           Y           Z
 ---------------------------------------------------------------------
      1          8           0       -2.838613   -1.069088    0.057009
      2          6           0       -2.259413    0.199958   -0.152397
      3          6           0       -0.805855    0.086218   -0.605603
      4          6           0       -0.046457    1.427329   -0.631571
      5          6           0        0.784945    1.390659    0.661723
      6          6           0        1.064308   -0.116533    0.813872
      7          8           0       -0.135151   -0.748708    0.363807
      8          6           0        2.230130   -0.555446    0.037008
      9          6           0        3.185127   -0.906617   -0.602876
     10          1           0       -2.207922   -1.557024    0.600684
     11          1           0       -2.851079    0.702534   -0.925803
     12          1           0       -2.302307    0.821438    0.759291
     13          1           0       -0.770475   -0.424547   -1.575157
     14          1           0        0.609249    1.480273   -1.503968
     15          1           0       -0.725755    2.283303   -0.669151
     16          1           0        1.696721    1.987558    0.610955
     17          1           0        0.193857    1.728476    1.518064
     18          1           0        1.202641   -0.405927    1.861082
     19          1           0        4.028486   -1.227128   -1.163461
 ---------------------------------------------------------------------

 SCF Done:  E(RB3LYP) =  -423.152080311     A.U. after    1 cycles

 The electronic state is 1-A.
 Alpha  occ. eigenvalues --  -19.14909 -19.12583 -10.26201 -10.23303 -10.22347
 Alpha  occ. eigenvalues --  -10.19857 -10.19451 -10.18493 -10.18077  -1.04734
 Alpha  occ. eigenvalues --   -1.00692  -0.80025  -0.78418  -0.73388  -0.67239
 Alpha  occ. eigenvalues --   -0.61944  -0.59020  -0.53556  -0.51722  -0.50449
 Alpha  occ. eigenvalues --   -0.48883  -0.45775  -0.44002  -0.41892  -0.40829
 Alpha  occ. eigenvalues --   -0.37748  -0.37195  -0.34802  -0.33537  -0.32093
 Alpha  occ. eigenvalues --   -0.28511  -0.27401  -0.27154  -0.25172
 Alpha virt. eigenvalues --    0.03294   0.04371   0.08835   0.10564   0.10874
 Alpha virt. eigenvalues --    0.12138   0.13545   0.13790   0.14341   0.15381
 Alpha virt. eigenvalues --    0.16486   0.18583   0.19462   0.20850   0.22726

 Mulliken charges:
               1
     1  O   -0.423718
     2  C   -0.056426
     3  C    0.114364
     4  C   -0.264299
     5  C   -0.228274
     6  C   -0.065619
     7  O   -0.284317
     8  C    0.351987
     9  C   -0.483784
    10  H    0.291883
    11  H    0.105133
    12  H    0.076764
    13  H    0.089047
    14  H    0.121496
    15  H    0.110378
    16  H    0.119243
    17  H    0.111335
    18  H    0.112573
    19  H    0.202236
 Sum of Mulliken charges =   0.00000

 Dipole moment (field-independent basis, Debye):
    X=              1.7834    Y=              1.9702    Z=              0.1647  Tot=              2.6626
 Quadrupole moment (field-independent basis, Debye-Ang):
   XX=            -57.2203   YY=            -53.0482   ZZ=            -50.0855
   XY=             -4.0078   XZ=             -1.8175   YZ=             -0.3043

  Exact polarizability:  94.700  -7.316  68.461  -5.813   2.479  67.159
 Approx polarizability: 128.233 -10.412  99.828 -15.140   4.904 105.325

                      1                      2                      3
                      A                      A                      A
 Frequencies --     32.7085               101.0869               126.4127
 Red. masses --      5.1973                 3.3632                 3.5199
 Frc consts  --      0.0033                 0.0202                 0.0331
 IR Inten    --      0.1005                 0.5270                 2.7597

                      4                      5                      6
                      A                      A                      A
 Frequencies --    179.2068               225.1023               281.2067
 Red. masses --      2.6846                 3.5448                 3.0313
 Frc consts  --      0.0508                 0.1058                 0.1412
 IR Inten    --      0.8701                 3.2089                 1.4631

                      7                      8                      9
                      A                      A                      A
 Frequencies --    372.8781               446.2305               461.2843
 Red. masses --      2.7917                 2.6038                 1.3134
 Frc consts  --      0.2287                 0.3055                 0.1647
 IR Inten    --      2.5553                20.5706                90.3497

                     10                     11                     12
                      A                      A                      A
 Frequencies --    481.2648               561.3570               634.1328
 Red. masses --      3.3822                 4.9682                 1.2407
 Frc consts  --      0.4616                 0.9224                 0.2939
 IR Inten    --      9.7233                 7.0584                40.0880

                     13                     14                     15
                      A                      A                      A
 Frequencies --    667.8424               671.7486               740.0125
 Red. masses --      1.2636                 2.2985                 4.7435
 Frc consts  --      0.3321                 0.6111                 1.5305
 IR Inten    --     35.4694                 0.3590                 3.0480

                     16                     17                     18
                      A                      A                      A
 Frequencies --    807.4071               849.3488               874.8613
 Red. masses --      2.8345                 3.4870                 1.9372
 Frc consts  --      1.0887                 1.4821                 0.8736
 IR Inten    --     21.0345                 8.2546                10.0885

                     19                     20                     21
                      A                      A                      A
 Frequencies --    942.6440               962.9216               999.6018
 Red. masses --      2.3305                 2.5683                 2.4785
 Frc consts  --      1.2201                 1.4030                 1.4591
 IR Inten    --     12.7395                10.1888                 7.3043

                     22                     23                     24
                      A                      A                      A
 Frequencies --   1016.7747              1064.1947              1071.3332
 Red. masses --      1.6434                 2.4019                 4.1212
 Frc consts  --      1.0010                 1.6027                 2.7869
 IR Inten    --      7.1169                41.9142               177.4816

                     25                     26                     27
                      A                      A                      A
 Frequencies --   1101.1194              1118.7285              1184.7394
 Red. masses --      3.5394                 2.0838                 1.3164
 Frc consts  --      2.5284                 1.5366                 1.0887
 IR Inten    --     70.4936                 9.9756                 4.3411

                     28                     29                     30
                      A                      A                      A
 Frequencies --   1205.9701              1235.4476              1287.3026
 Red. masses --      1.4390                 1.3072                 1.3632
 Frc consts  --      1.2330                 1.1755                 1.3310
 IR Inten    --      9.2546                17.1667                 3.1921

                     31                     32                     33
                      A                      A                      A
 Frequencies --   1309.4231              1324.7546              1343.3954
 Red. masses --      1.3029                 1.4664                 1.2565
 Frc consts  --      1.3162                 1.5163                 1.3360
 IR Inten    --      3.4168                 0.6881                10.0229

                     34                     35                     36
                      A                      A                      A
 Frequencies --   1355.6987              1372.5269              1399.5057
 Red. masses --      1.3264                 1.3095                 1.2250
 Frc consts  --      1.4363                 1.4534                 1.4136
 IR Inten    --     12.6455                24.6119                19.9749

                     37                     38                     39
                      A                      A                      A
 Frequencies --   1441.6572              1481.2278              1494.2392
 Red. masses --      1.3372                 1.0859                 1.0963
 Frc consts  --      1.6375                 1.4038                 1.4422
 IR Inten    --     65.7448                 2.9679                 6.9102

                     40                     41                     42
                      A                      A                      A
 Frequencies --   1500.1631              2232.2417              2952.7224
 Red. masses --      1.0975                 5.8891                 1.0706
 Frc consts  --      1.4553                17.2895                 5.4996
 IR Inten    --      1.3455                 1.7434                51.4293

                     43                     44                     45
                      A                      A                      A
 Frequencies --   3035.0492              3050.6944              3062.8874
 Red. masses --      1.0841                 1.0803                 1.0678
 Frc consts  --      5.8834                 5.9238                 5.9018
 IR Inten    --     32.3289                12.0866                 6.8274

                     46                     47                     48
                      A                      A                      A
 Frequencies --   3066.6173              3070.6235              3109.0273
 Red. masses --      1.0737                 1.0792                 1.1036
 Frc consts  --      5.9492                 5.9951                 6.2854
 IR Inten    --     36.3271                44.2449                14.6272

                     49                     50                     51
                      A                      A                      A
 Frequencies --   3129.6979              3501.7942              3787.2324
 Red. masses --      1.1034                 1.1628                 1.0652
 Frc consts  --      6.3675                 8.4008                 9.0015
 IR Inten    --     22.9377                62.3524                31.8724

 - Thermochemistry -
 -------------------
 Temperature   298.150 Kelvin.  Pressure   1.00000 Atm.
 Atom     1 has atomic number  8 and mass  15.99491

 Molecular mass:   126.06808 amu.
 Principal axes and moments of inertia in atomic units:
                           1         2         3
     Eigenvalues --   545.304331732.611741965.06379
           X            0.99997  -0.00787  -0.00196
           Y            0.00788   0.99995   0.00680
           Z            0.00190  -0.00681   0.99997
 This molecule is an asymmetric top.
 Rotational symmetry number  1.
 Warning -- assumption of classical behavior for rotation
           may cause significant error
 Rotational temperatures (Kelvin)      0.15884     0.04999     0.04408
 Rotational constants (GHZ):           3.30960     1.04163     0.91841
 Zero-point vibrational energy     417054.4 (Joules/Mol)
                                   99.67839 (Kcal/Mol)
 Warning -- explicit consideration of  11 degrees of freedom as
           vibrations may cause significant error
 Vibrational temperatures:     47.06   145.44   181.88   257.84   323.87
          (Kelvin)            404.59   536.49   642.03   663.68   692.43
                              807.67   912.37   960.87   966.50  1064.71
                             1161.68  1222.02  1258.73  1356.25  1385.43
                             1438.20  1462.91  1531.14  1541.41  1584.26
                             1609.60  1704.57  1735.12  1777.53  1852.14
                             1883.97  1906.02  1932.84  1950.55  1974.76
                             2013.57  2074.22  2131.15  2149.87  2158.40
                             3211.69  4248.30  4366.75  4389.26  4406.81
                             4412.17  4417.94  4473.19  4502.93  5038.29
                             5448.98

 Zero-point correction=                           0.158848 (Hartree/Particle)
 Thermal correction to Energy=                    0.167902
 Thermal correction to Enthalpy=                  0.168847
 Thermal correction to Gibbs Free Energy=         0.124170
 Sum of electronic and zero-point Energies=           -422.993233
 Sum of electronic and thermal Energies=              -422.984178
 Sum of electronic and thermal Enthalpies=            -422.983234
 Sum of electronic and thermal Free Energies=         -423.027910

                     E (Thermal)             CV                S
                      KCal/Mol        Cal/Mol-Kelvin    Cal/Mol-Kelvin
 Total                  105.360             33.673             94.029
 Electronic               0.000              0.000              0.000
 Translational            0.889              2.981             40.409
 Rotational               0.889              2.981             29.008
 Vibrational            103.583             27.712             24.612
 Vibration     1          0.594              1.983              5.658
 Vibration     2          0.604              1.948              3.433
 Vibration     3          0.611              1.927              3.000
 Vibration     4          0.629              1.868              2.337
 Vibration     5          0.650              1.803              1.918
 Vibration     6          0.681              1.708              1.526
 Vibration     7          0.744              1.528              1.068
 Vibration     8          0.805              1.369              0.807
 Vibration     9          0.819              1.336              0.762
 Vibration    10          0.838              1.292              0.707
 Vibration    11          0.917              1.115              0.521

 Optimization completed.
    -- Stationary point found.
 Normal termination of Gaussian 09 at Tue Jan 28 12:30:34 2020.
