 Gaussian 09, Revision D.01,
 Gaussian 09:  ES64L-G09RevD.01 24-Apr-2013

 -----------------------------
 # b3lyp 6-31G(2df,p) opt Freq
 -----------------------------

 -----
 titel
 -----
 Symbolic Z-matrix:
 Charge =  0 Multiplicity = 1

 SCF Done:  E(RB3LYP) =  -423.168626750     A.U. after   14 cycles
 Optimization completed.
    -- Stationary point found.
 Normal termination of Gaussian 09 at Mon Jan 27 17:49:19 2020.

 ----------------------------------------------------------------------
 #N Geom=AllCheck Guess=TCheck SCRF=Check GenChk RB3LYP/6-31G(2df,p) Fr
 eq
 ----------------------------------------------------------------------

 Structure from the checkpoint file:  "/scratch/puck/g09_1b733421-579d-4da8-a58c-fc871ab8d3a7/Gau-67467.chk"
 -----
 titel
 -----
 Charge =  0 Multiplicity = 1

                         Standard orientation:
 ---------------------------------------------------------------------
 Center     Atomic      Atomic             Coordinates (Angstroms)
 Number     Number       Type             X           Y           Z
 ---------------------------------------------------------------------
      1          6           0       -1.947274   -1.350774   -0.362034
      2          6           0       -0.990647   -0.272359    0.069098
      3          8           0       -1.581975    0.881645    0.691694
      4          6           0       -0.881004    1.063042   -0.549955
      5          6           0        0.496088    1.665269   -0.342260
      6          6           0        1.272826    0.586884    0.434131
      7          8           0        2.081174   -0.239988   -0.440485
      8          6           0        1.338206   -1.425924   -0.098099
      9          6           0        0.329997   -0.611890    0.736969
     10          1           0       -2.288543   -1.929408    0.503637
     11          1           0       -2.825006   -0.912762   -0.843287
     12          1           0       -1.474738   -2.044640   -1.064469
     13          1           0       -1.502799    1.365366   -1.389945
     14          1           0        1.006009    1.865524   -1.289616
     15          1           0        0.419573    2.605523    0.213215
     16          1           0        1.870254    0.983377    1.261274
     17          1           0        0.949767   -1.939589   -0.986315
     18          1           0        1.943754   -2.133948    0.482187
     19          1           0        0.198977   -0.918184    1.776550
 ---------------------------------------------------------------------

 SCF Done:  E(RB3LYP) =  -423.168626750     A.U. after    1 cycles

 The electronic state is 1-A.
 Alpha  occ. eigenvalues --  -19.14567 -19.13213 -10.24156 -10.23545 -10.23395
 Alpha  occ. eigenvalues --  -10.23254 -10.19455 -10.18703 -10.18461  -1.07015
 Alpha  occ. eigenvalues --   -1.03672  -0.78951  -0.76364  -0.72050  -0.67087
 Alpha  occ. eigenvalues --   -0.62542  -0.57401  -0.53955  -0.51069  -0.48915
 Alpha  occ. eigenvalues --   -0.46712  -0.44585  -0.43242  -0.42542  -0.41114
 Alpha  occ. eigenvalues --   -0.39479  -0.38300  -0.35938  -0.35415  -0.32219
 Alpha  occ. eigenvalues --   -0.30925  -0.28225  -0.26709  -0.24555
 Alpha virt. eigenvalues --    0.07452   0.08852   0.09559   0.11055   0.11740
 Alpha virt. eigenvalues --    0.12827   0.14277   0.15063   0.16034   0.16943
 Alpha virt. eigenvalues --    0.17086   0.18397   0.19609   0.20161   0.20785

 Mulliken charges:
               1
     1  C   -0.489480
     2  C    0.412308
     3  O   -0.307160
     4  C   -0.017188
     5  C   -0.263818
     6  C    0.134104
     7  O   -0.292895
     8  C   -0.090324
     9  C   -0.155170
    10  H    0.128334
    11  H    0.132649
    12  H    0.124995
    13  H    0.090476
    14  H    0.117557
    15  H    0.111758
    16  H    0.077565
    17  H    0.099420
    18  H    0.100200
    19  H    0.086669
 Sum of Mulliken charges =   0.00000

 Dipole moment (field-independent basis, Debye):
    X=             -0.4537    Y=             -0.9774    Z=             -0.3453  Tot=              1.1315
 Quadrupole moment (field-independent basis, Debye-Ang):
   XX=            -58.9348   YY=            -49.7302   ZZ=            -52.6553
   XY=              2.1591   XZ=              4.8676   YZ=             -1.9093

  Exact polarizability:  75.111   1.459  82.110   2.736  -2.156  64.220
 Approx polarizability: 103.403  -0.435 116.249  -2.666  -1.961 102.575

                      1                      2                      3
                      A                      A                      A
 Frequencies --     92.9194               166.8415               205.1653
 Red. masses --      3.4535                 1.5199                 1.5693
 Frc consts  --      0.0176                 0.0249                 0.0389
 IR Inten    --      4.5307                 1.4942                 0.5989

                      4                      5                      6
                      A                      A                      A
 Frequencies --    244.9688               326.7729               371.4114
 Red. masses --      2.3411                 2.5870                 4.1728
 Frc consts  --      0.0828                 0.1628                 0.3391
 IR Inten    --      0.8383                 1.7214                 1.5558

                      7                      8                      9
                      A                      A                      A
 Frequencies --    440.1556               464.1918               559.3313
 Red. masses --      3.2252                 2.7719                 4.2712
 Frc consts  --      0.3681                 0.3519                 0.7873
 IR Inten    --     10.8188                 5.0512                 2.3252

                     10                     11                     12
                      A                      A                      A
 Frequencies --    701.9313               723.3965               804.3570
 Red. masses --      4.0730                 4.2721                 2.3304
 Frc consts  --      1.1824                 1.3172                 0.8883
 IR Inten    --      0.7244                 5.8991                 1.5871

                     13                     14                     15
                      A                      A                      A
 Frequencies --    833.2781               859.0921               885.6584
 Red. masses --      3.4916                 2.6711                 2.6841
 Frc consts  --      1.4284                 1.1615                 1.2404
 IR Inten    --      5.8729                36.6617                 5.8233

                     16                     17                     18
                      A                      A                      A
 Frequencies --    901.4891               933.8954               994.4985
 Red. masses --      2.4787                 2.2231                 2.1344
 Frc consts  --      1.1869                 1.1424                 1.2437
 IR Inten    --      1.7726                 1.8451                 1.2579

                     19                     20                     21
                      A                      A                      A
 Frequencies --   1009.3990              1023.9118              1030.1152
 Red. masses --      1.5109                 3.2817                 2.3606
 Frc consts  --      0.9070                 2.0271                 1.4759
 IR Inten    --      2.9549                65.9223                 7.6600

                     22                     23                     24
                      A                      A                      A
 Frequencies --   1046.8164              1075.3280              1098.7753
 Red. masses --      1.8474                 2.6808                 1.7571
 Frc consts  --      1.1928                 1.8264                 1.2499
 IR Inten    --     16.1612                13.4027                 6.4196

                     25                     26                     27
                      A                      A                      A
 Frequencies --   1121.8895              1167.7542              1204.0955
 Red. masses --      2.2036                 1.1388                 1.3206
 Frc consts  --      1.6341                 0.9149                 1.1281
 IR Inten    --     17.2784                 2.0434                 0.4366

                     28                     29                     30
                      A                      A                      A
 Frequencies --   1211.9171              1246.9920              1259.2379
 Red. masses --      1.7337                 1.8763                 1.4797
 Frc consts  --      1.5003                 1.7190                 1.3824
 IR Inten    --      4.5314                15.9321                 1.0343

                     31                     32                     33
                      A                      A                      A
 Frequencies --   1291.3679              1315.7076              1340.9583
 Red. masses --      1.3070                 1.5869                 2.0414
 Frc consts  --      1.2841                 1.6185                 2.1627
 IR Inten    --      4.2419                10.6901                 6.5900

                     34                     35                     36
                      A                      A                      A
 Frequencies --   1357.2363              1364.7031              1412.6703
 Red. masses --      1.6058                 1.4223                 1.2919
 Frc consts  --      1.7428                 1.5607                 1.5191
 IR Inten    --      7.6101                 4.7740                 6.6031

                     37                     38                     39
                      A                      A                      A
 Frequencies --   1447.2584              1463.6223              1488.4000
 Red. masses --      2.7164                 1.1116                 1.0997
 Frc consts  --      3.3522                 1.4030                 1.4354
 IR Inten    --      8.4584                 5.6206                 8.0897

                     40                     41                     42
                      A                      A                      A
 Frequencies --   1495.7360              1525.9686              3009.0788
 Red. masses --      1.1471                 1.1005                 1.0554
 Frc consts  --      1.5120                 1.5099                 5.6301
 IR Inten    --      1.3649                 1.1508                74.0216

                     43                     44                     45
                      A                      A                      A
 Frequencies --   3036.7842              3045.8717              3049.5934
 Red. masses --      1.0380                 1.0715                 1.1081
 Frc consts  --      5.6399                 5.8569                 6.0720
 IR Inten    --     20.7271                20.3915                39.8915

                     46                     47                     48
                      A                      A                      A
 Frequencies --   3057.8847              3095.4902              3099.6665
 Red. masses --      1.0756                 1.0890                 1.1008
 Frc consts  --      5.9259                 6.1482                 6.2316
 IR Inten    --     50.4604                17.7236                 8.0869

                     49                     50                     51
                      A                      A                      A
 Frequencies --   3100.3300              3124.9321              3136.6299
 Red. masses --      1.1015                 1.1008                 1.0909
 Frc consts  --      6.2383                 6.3337                 6.3237
 IR Inten    --     36.1239                11.5178                30.9342

 - Thermochemistry -
 -------------------
 Temperature   298.150 Kelvin.  Pressure   1.00000 Atm.
 Atom     1 has atomic number  6 and mass  12.00000

 Molecular mass:   126.06808 amu.
 Principal axes and moments of inertia in atomic units:
                           1         2         3
     Eigenvalues --   659.329551024.328751413.09588
           X            0.99744   0.06504   0.02986
           Y           -0.06478   0.99785  -0.00950
           Z           -0.03042   0.00754   0.99951
 This molecule is an asymmetric top.
 Rotational symmetry number  1.
 Warning -- assumption of classical behavior for rotation
           may cause significant error
 Rotational temperatures (Kelvin)      0.13137     0.08456     0.06129
 Rotational constants (GHZ):           2.73724     1.76188     1.27715
 Zero-point vibrational energy     420280.9 (Joules/Mol)
                                  100.44954 (Kcal/Mol)
 Warning -- explicit consideration of   9 degrees of freedom as
           vibrations may cause significant error
 Vibrational temperatures:    133.69   240.05   295.19   352.45   470.15
          (Kelvin)            534.38   633.29   667.87   804.75  1009.92
                             1040.80  1157.29  1198.90  1236.04  1274.26
                             1297.04  1343.67  1430.86  1452.30  1473.18
                             1482.10  1506.13  1547.16  1580.89  1614.15
                             1680.14  1732.42  1743.68  1794.14  1811.76
                             1857.99  1893.01  1929.34  1952.76  1963.50
                             2032.51  2082.28  2105.82  2141.47  2152.03
                             2195.53  4329.39  4369.25  4382.32  4387.68
                             4399.61  4453.71  4459.72  4460.68  4496.07
                             4512.91

 Zero-point correction=                           0.160077 (Hartree/Particle)
 Thermal correction to Energy=                    0.167742
 Thermal correction to Enthalpy=                  0.168686
 Thermal correction to Gibbs Free Energy=         0.127974
 Sum of electronic and zero-point Energies=           -423.008550
 Sum of electronic and thermal Energies=              -423.000885
 Sum of electronic and thermal Enthalpies=            -422.999940
 Sum of electronic and thermal Free Energies=         -423.040653

                     E (Thermal)             CV                S
                      KCal/Mol        Cal/Mol-Kelvin    Cal/Mol-Kelvin
 Total                  105.260             30.027             85.687
 Electronic               0.000              0.000              0.000
 Translational            0.889              2.981             40.409
 Rotational               0.889              2.981             28.347
 Vibrational            103.482             24.065             16.931
 Vibration     1          0.602              1.954              3.598
 Vibration     2          0.624              1.883              2.471
 Vibration     3          0.640              1.833              2.086
 Vibration     4          0.660              1.771              1.767
 Vibration     5          0.710              1.622              1.276
 Vibration     6          0.743              1.531              1.074
 Vibration     7          0.800              1.383              0.826
 Vibration     8          0.822              1.329              0.754
 Vibration     9          0.915              1.119              0.525

 Optimization completed.
    -- Stationary point found.
 Normal termination of Gaussian 09 at Mon Jan 27 18:37:27 2020.
