 Gaussian 09, Revision D.01,
 Gaussian 09:  ES64L-G09RevD.01 24-Apr-2013

 -----------------------------
 # b3lyp 6-31G(2df,p) opt Freq
 -----------------------------

 -----
 titel
 -----
 Symbolic Z-matrix:
 Charge =  0 Multiplicity = 1

 SCF Done:  E(RB3LYP) =  -423.122869520     A.U. after   13 cycles
 Optimization completed.
    -- Stationary point found.
 Normal termination of Gaussian 09 at Mon Jan 27 17:53:50 2020.

 ----------------------------------------------------------------------
 #N Geom=AllCheck Guess=TCheck SCRF=Check GenChk RB3LYP/6-31G(2df,p) Fr
 eq
 ----------------------------------------------------------------------

 Structure from the checkpoint file:  "/scratch/puck/g09_066f0b88-121c-4268-978b-4db7141f5da9/Gau-51765.chk"
 -----
 titel
 -----
 Charge =  0 Multiplicity = 1

                         Standard orientation:
 ---------------------------------------------------------------------
 Center     Atomic      Atomic             Coordinates (Angstroms)
 Number     Number       Type             X           Y           Z
 ---------------------------------------------------------------------
      1          8           0        0.977424    1.799086   -0.451475
      2          6           0        1.069339    0.514341    0.058113
      3          6           0        2.317965   -0.017127    0.699772
      4          6           0        1.787384   -0.676982   -0.555968
      5          6           0        0.612276   -1.590238   -0.190091
      6          6           0       -0.152085   -0.356927    0.414191
      7          6           0       -1.392352    0.010682   -0.352436
      8          6           0       -2.515470    0.723584    0.265429
      9          8           0       -2.592639   -0.680477    0.010030
     10          1           0        1.034956    2.422569    0.280966
     11          1           0        3.191369    0.608129    0.542164
     12          1           0        2.293633   -0.537613    1.655514
     13          1           0        2.383650   -0.732017   -1.457982
     14          1           0        0.091792   -2.007247   -1.055357
     15          1           0        0.838848   -2.401185    0.508650
     16          1           0       -0.394700   -0.423904    1.481038
     17          1           0       -1.254630    0.126565   -1.428910
     18          1           0       -2.461021    1.002834    1.317482
     19          1           0       -3.164512    1.349004   -0.346052
 ---------------------------------------------------------------------

 SCF Done:  E(RB3LYP) =  -423.122869520     A.U. after    1 cycles

 The electronic state is 1-A.
 Alpha  occ. eigenvalues --  -19.15211 -19.14415 -10.24190 -10.23253 -10.22838
 Alpha  occ. eigenvalues --  -10.19200 -10.19149 -10.18786 -10.18635  -1.06384
 Alpha  occ. eigenvalues --   -1.03757  -0.89049  -0.75151  -0.67948  -0.64795
 Alpha  occ. eigenvalues --   -0.60696  -0.59557  -0.54850  -0.52898  -0.49013
 Alpha  occ. eigenvalues --   -0.46964  -0.45650  -0.43755  -0.42703  -0.39315
 Alpha  occ. eigenvalues --   -0.37845  -0.36563  -0.35953  -0.33990  -0.32101
 Alpha  occ. eigenvalues --   -0.29074  -0.27253  -0.25485  -0.25143
 Alpha virt. eigenvalues --    0.07214   0.10002   0.10710   0.11197   0.11576
 Alpha virt. eigenvalues --    0.12014   0.13046   0.13800   0.15062   0.15834
 Alpha virt. eigenvalues --    0.17693   0.18207   0.18952   0.20828   0.21884

 Mulliken charges:
               1
     1  O   -0.458844
     2  C    0.392458
     3  C   -0.347426
     4  C   -0.097134
     5  C   -0.245897
     6  C   -0.105487
     7  C    0.110387
     8  C   -0.191256
     9  O   -0.249453
    10  H    0.286591
    11  H    0.113447
    12  H    0.103520
    13  H    0.094015
    14  H    0.113259
    15  H    0.099595
    16  H    0.065055
    17  H    0.096539
    18  H    0.106446
    19  H    0.114183
 Sum of Mulliken charges =   0.00000

 Dipole moment (field-independent basis, Debye):
    X=              1.3997    Y=              1.4713    Z=              1.0738  Tot=              2.2971
 Quadrupole moment (field-independent basis, Debye-Ang):
   XX=            -56.1035   YY=            -51.6258   ZZ=            -51.6153
   XY=             -3.8231   XZ=              1.0312   YZ=              3.5293

  Exact polarizability:  86.441  -4.967  73.891  -0.246   2.683  66.408
 Approx polarizability: 110.972  -4.181 111.782  -2.002   4.333 103.624

                      1                      2                      3
                      A                      A                      A
 Frequencies --     64.1432               111.6420               150.4468
 Red. masses --      3.8331                 3.2170                 3.8846
 Frc consts  --      0.0093                 0.0236                 0.0518
 IR Inten    --      2.2469                 2.0814                 2.0495

                      4                      5                      6
                      A                      A                      A
 Frequencies --    261.3838               298.5977               310.9641
 Red. masses --      1.3094                 3.9782                 2.2316
 Frc consts  --      0.0527                 0.2090                 0.1271
 IR Inten    --     71.5299                 7.9458                20.6985

                      7                      8                      9
                      A                      A                      A
 Frequencies --    378.2391               424.0559               444.5936
 Red. masses --      3.2908                 2.4227                 2.3444
 Frc consts  --      0.2774                 0.2567                 0.2730
 IR Inten    --      3.0192                 4.6394                 5.4565

                     10                     11                     12
                      A                      A                      A
 Frequencies --    506.9532               633.3366               767.6958
 Red. masses --      3.7260                 3.1652                 3.2374
 Frc consts  --      0.5642                 0.7480                 1.1241
 IR Inten    --     15.5850                 2.3355                 4.8856

                     13                     14                     15
                      A                      A                      A
 Frequencies --    800.4519               851.4035               865.0430
 Red. masses --      1.8641                 3.4110                 2.4447
 Frc consts  --      0.7037                 1.4568                 1.0778
 IR Inten    --      5.9126                26.7627                 5.6413

                     16                     17                     18
                      A                      A                      A
 Frequencies --    895.7201               908.1955               937.3800
 Red. masses --      2.1067                 2.5035                 3.1627
 Frc consts  --      0.9959                 1.2166                 1.6374
 IR Inten    --      4.3450                10.1404                17.3840

                     19                     20                     21
                      A                      A                      A
 Frequencies --    949.1992               985.7451              1011.8413
 Red. masses --      1.5631                 1.3706                 1.6723
 Frc consts  --      0.8297                 0.7847                 1.0087
 IR Inten    --     19.8740                 2.1176                 6.2841

                     22                     23                     24
                      A                      A                      A
 Frequencies --   1023.2709              1044.7176              1081.1496
 Red. masses --      1.5050                 1.7245                 1.6081
 Frc consts  --      0.9285                 1.1089                 1.1075
 IR Inten    --      0.6445                 0.3555                 6.8810

                     25                     26                     27
                      A                      A                      A
 Frequencies --   1101.3386              1151.1385              1162.5087
 Red. masses --      1.2730                 1.4877                 1.6025
 Frc consts  --      0.9097                 1.1615                 1.2760
 IR Inten    --      0.0370                 0.1971                 7.0018

                     28                     29                     30
                      A                      A                      A
 Frequencies --   1172.0537              1188.2354              1218.2670
 Red. masses --      1.3669                 1.6689                 1.4466
 Frc consts  --      1.1064                 1.3883                 1.2649
 IR Inten    --      1.9920                 7.4667                 7.4211

                     31                     32                     33
                      A                      A                      A
 Frequencies --   1222.0579              1255.3996              1282.2840
 Red. masses --      1.9010                 1.9019                 1.6472
 Frc consts  --      1.6727                 1.7660                 1.5957
 IR Inten    --     18.4607                52.2370                25.6135

                     34                     35                     36
                      A                      A                      A
 Frequencies --   1294.5860              1295.8967              1324.2158
 Red. masses --      1.4309                 1.8004                 1.7490
 Frc consts  --      1.4129                 1.7814                 1.8070
 IR Inten    --     33.3645                15.5614                12.1474

                     37                     38                     39
                      A                      A                      A
 Frequencies --   1394.4235              1453.9601              1477.7485
 Red. masses --      2.0837                 1.7030                 1.1842
 Frc consts  --      2.3871                 2.1211                 1.5237
 IR Inten    --     22.4559                12.1731                 2.2761

                     40                     41                     42
                      A                      A                      A
 Frequencies --   1501.4911              1530.4725              3036.0977
 Red. masses --      1.3262                 1.3995                 1.0833
 Frc consts  --      1.7616                 1.9314                 5.8834
 IR Inten    --     11.5324                 4.1605                24.5543

                     43                     44                     45
                      A                      A                      A
 Frequencies --   3053.2763              3078.1456              3096.6159
 Red. masses --      1.0612                 1.0501                 1.0861
 Frc consts  --      5.8287                 5.8619                 6.1363
 IR Inten    --     41.9822                30.9564                17.3366

                     46                     47                     48
                      A                      A                      A
 Frequencies --   3097.5638              3108.6473              3164.0022
 Red. masses --      1.0602                 1.1054                 1.1191
 Frc consts  --      5.9935                 6.2939                 6.6006
 IR Inten    --     14.0659                27.4498                30.4922

                     49                     50                     51
                      A                      A                      A
 Frequencies --   3190.5775              3200.6306              3792.4556
 Red. masses --      1.0988                 1.1068                 1.0662
 Frc consts  --      6.5904                 6.6805                 9.0349
 IR Inten    --      6.6792                16.5989                21.5815

 - Thermochemistry -
 -------------------
 Temperature   298.150 Kelvin.  Pressure   1.00000 Atm.
 Atom     1 has atomic number  8 and mass  15.99491

 Molecular mass:   126.06808 amu.
 Principal axes and moments of inertia in atomic units:
                           1         2         3
     Eigenvalues --   558.252311481.803221822.59781
           X            0.99958  -0.02873   0.00449
           Y            0.02863   0.99936   0.02164
           Z           -0.00510  -0.02150   0.99976
 This molecule is an asymmetric top.
 Rotational symmetry number  1.
 Warning -- assumption of classical behavior for rotation
           may cause significant error
 Rotational temperatures (Kelvin)      0.15515     0.05845     0.04752
 Rotational constants (GHZ):           3.23284     1.21794     0.99020
 Zero-point vibrational energy     416002.9 (Joules/Mol)
                                   99.42709 (Kcal/Mol)
 Warning -- explicit consideration of  10 degrees of freedom as
           vibrations may cause significant error
 Vibrational temperatures:     92.29   160.63   216.46   376.07   429.62
          (Kelvin)            447.41   544.20   610.12   639.67   729.39
                              911.23  1104.54  1151.67  1224.98  1244.60
                             1288.74  1306.69  1348.68  1365.68  1418.27
                             1455.81  1472.26  1503.11  1555.53  1584.58
                             1656.23  1672.59  1686.32  1709.60  1752.81
                             1758.27  1806.24  1844.92  1862.62  1864.50
                             1905.25  2006.26  2091.92  2126.15  2160.31
                             2202.01  4368.26  4392.98  4428.76  4455.33
                             4456.70  4472.64  4552.29  4590.52  4604.99
                             5456.49

 Zero-point correction=                           0.158447 (Hartree/Particle)
 Thermal correction to Energy=                    0.166863
 Thermal correction to Enthalpy=                  0.167807
 Thermal correction to Gibbs Free Energy=         0.125098
 Sum of electronic and zero-point Energies=           -422.964422
 Sum of electronic and thermal Energies=              -422.956006
 Sum of electronic and thermal Enthalpies=            -422.955062
 Sum of electronic and thermal Free Energies=         -422.997772

                     E (Thermal)             CV                S
                      KCal/Mol        Cal/Mol-Kelvin    Cal/Mol-Kelvin
 Total                  104.708             32.200             89.890
 Electronic               0.000              0.000              0.000
 Translational            0.889              2.981             40.409
 Rotational               0.889              2.981             28.802
 Vibrational            102.931             26.239             20.680
 Vibration     1          0.597              1.971              4.325
 Vibration     2          0.607              1.940              3.240
 Vibration     3          0.618              1.902              2.667
 Vibration     4          0.669              1.743              1.653
 Vibration     5          0.692              1.676              1.425
 Vibration     6          0.700              1.653              1.357
 Vibration     7          0.749              1.517              1.046
 Vibration     8          0.786              1.418              0.878
 Vibration     9          0.804              1.373              0.812
 Vibration    10          0.862              1.235              0.641

 Normal termination of Gaussian 09 at Mon Jan 27 18:35:38 2020.
