 Gaussian 09, Revision D.01,
 Gaussian 09:  ES64L-G09RevD.01 24-Apr-2013

 -----------------------------
 # b3lyp 6-31G(2df,p) opt Freq
 -----------------------------

 -----
 titel
 -----
 Symbolic Z-matrix:
 Charge =  0 Multiplicity = 1

 SCF Done:  E(RB3LYP) =  -423.162373936     A.U. after   14 cycles
 Optimization completed.
    -- Stationary point found.
 Normal termination of Gaussian 09 at Mon Jan 27 16:27:50 2020.

 ----------------------------------------------------------------------
 #N Geom=AllCheck Guess=TCheck SCRF=Check GenChk RB3LYP/6-31G(2df,p) Fr
 eq
 ----------------------------------------------------------------------

 Structure from the checkpoint file:  "/scratch/puck/g09_4972f348-ef56-4dbf-9976-17bcc1069f5a/Gau-83504.chk"
 -----
 titel
 -----
 Charge =  0 Multiplicity = 1

                         Standard orientation:
 ---------------------------------------------------------------------
 Center     Atomic      Atomic             Coordinates (Angstroms)
 Number     Number       Type             X           Y           Z
 ---------------------------------------------------------------------
      1          6           0       -0.093580    1.936576   -0.221639
      2          6           0        0.171375    0.455050   -0.050444
      3          8           0       -0.141548   -0.098666    1.224233
      4          6           0       -0.936990   -0.531851    0.109702
      5          6           0       -2.374057   -0.132380    0.131400
      6          8           0       -3.222095   -0.693348   -0.516106
      7          6           0        1.461016   -0.024611   -0.658401
      8          6           0        2.736453    0.066985    0.147960
      9          6           0        2.133867   -1.277665   -0.170261
     10          1           0       -0.993997    2.255326    0.305355
     11          1           0        0.754456    2.507339    0.169420
     12          1           0       -0.202964    2.184794   -1.282258
     13          1           0       -0.756385   -1.549349   -0.233038
     14          1           0       -2.609387    0.720540    0.803581
     15          1           0        1.544639    0.198330   -1.718496
     16          1           0        3.644586    0.369723   -0.360677
     17          1           0        2.653762    0.412071    1.172883
     18          1           0        2.624732   -1.909494   -0.901496
     19          1           0        1.661201   -1.805791    0.649810
 ---------------------------------------------------------------------

 SCF Done:  E(RB3LYP) =  -423.162373935     A.U. after    1 cycles

 The electronic state is 1-A.
 Alpha  occ. eigenvalues --  -19.17051 -19.14482 -10.27555 -10.26494 -10.24648
 Alpha  occ. eigenvalues --  -10.20380 -10.19405 -10.19371 -10.19223  -1.09175
 Alpha  occ. eigenvalues --   -1.05043  -0.86592  -0.76240  -0.71369  -0.65712
 Alpha  occ. eigenvalues --   -0.60795  -0.58456  -0.56120  -0.52201  -0.49345
 Alpha  occ. eigenvalues --   -0.48809  -0.45434  -0.43344  -0.42278  -0.41777
 Alpha  occ. eigenvalues --   -0.40384  -0.38990  -0.37178  -0.36611  -0.33157
 Alpha  occ. eigenvalues --   -0.30812  -0.29129  -0.28198  -0.25616
 Alpha virt. eigenvalues --   -0.03859   0.08303   0.09491   0.09994   0.10986
 Alpha virt. eigenvalues --    0.11912   0.12869   0.14366   0.14830   0.16543
 Alpha virt. eigenvalues --    0.17543   0.18703   0.19308   0.20938   0.22830

 Mulliken charges:
               1
     1  C   -0.464316
     2  C    0.365018
     3  O   -0.277056
     4  C   -0.103807
     5  C    0.140188
     6  O   -0.250417
     7  C   -0.055171
     8  C   -0.265056
     9  C   -0.273990
    10  H    0.129030
    11  H    0.136087
    12  H    0.132151
    13  H    0.114229
    14  H    0.090652
    15  H    0.093623
    16  H    0.115421
    17  H    0.126449
    18  H    0.114498
    19  H    0.132465
 Sum of Mulliken charges =   0.00000

 Dipole moment (field-independent basis, Debye):
    X=              2.4637    Y=              1.2990    Z=             -0.5719  Tot=              2.8433
 Quadrupole moment (field-independent basis, Debye-Ang):
   XX=            -60.7479   YY=            -51.3726   ZZ=            -54.4927
   XY=             -3.1330   XZ=             -4.5431   YZ=             -0.5073

  Exact polarizability:  97.907   2.920  74.468   1.007   2.802  61.482
 Approx polarizability: 130.933  11.598 108.368   8.083   5.762 102.583

                      1                      2                      3
                      A                      A                      A
 Frequencies --     78.0191               103.3399               119.4088
 Red. masses --      3.3943                 3.9164                 3.8544
 Frc consts  --      0.0122                 0.0246                 0.0324
 IR Inten    --      1.9451                 4.2137                 1.4551

                      4                      5                      6
                      A                      A                      A
 Frequencies --    176.8868               209.3156               251.1164
 Red. masses --      1.0902                 2.6743                 2.9315
 Frc consts  --      0.0201                 0.0690                 0.1089
 IR Inten    --      1.1561                 1.2122                 2.0797

                      7                      8                      9
                      A                      A                      A
 Frequencies --    286.8801               362.5799               415.1027
 Red. masses --      2.5399                 2.9883                 3.7439
 Frc consts  --      0.1232                 0.2315                 0.3801
 IR Inten    --      2.2485                 3.3170                25.6445

                     10                     11                     12
                      A                      A                      A
 Frequencies --    446.4454               532.2906               566.8117
 Red. masses --      3.3020                 5.2046                 3.3902
 Frc consts  --      0.3878                 0.8688                 0.6417
 IR Inten    --      1.7766                 1.6782                 6.1326

                     13                     14                     15
                      A                      A                      A
 Frequencies --    669.6250               794.7159               825.1631
 Red. masses --      3.1457                 1.1240                 1.3885
 Frc consts  --      0.8311                 0.4183                 0.5570
 IR Inten    --      4.0057                 1.7051                 5.4083

                     16                     17                     18
                      A                      A                      A
 Frequencies --    845.3655               850.4632               932.4116
 Red. masses --      2.8739                 2.4742                 3.5637
 Frc consts  --      1.2101                 1.0544                 1.8254
 IR Inten    --     23.7270                 3.2790                 8.2532

                     19                     20                     21
                      A                      A                      A
 Frequencies --    948.5018               987.2083              1017.9928
 Red. masses --      3.3909                 1.7372                 1.6760
 Frc consts  --      1.7974                 0.9975                 1.0233
 IR Inten    --     26.1626                 4.9439                 6.4171

                     22                     23                     24
                      A                      A                      A
 Frequencies --   1063.4434              1074.4905              1093.2123
 Red. masses --      1.3556                 1.5914                 1.3955
 Frc consts  --      0.9033                 1.0825                 0.9826
 IR Inten    --      6.0036                 6.9843                 1.0513

                     25                     26                     27
                      A                      A                      A
 Frequencies --   1101.5454              1123.1002              1133.1849
 Red. masses --      1.7273                 2.8434                 1.3498
 Frc consts  --      1.2349                 2.1131                 1.0212
 IR Inten    --      5.8936                40.8534                 5.0364

                     28                     29                     30
                      A                      A                      A
 Frequencies --   1136.6690              1203.2020              1213.3504
 Red. masses --      1.4208                 1.3678                 2.4524
 Frc consts  --      1.0816                 1.1667                 2.1272
 IR Inten    --     16.9347                 1.3164                 9.0515

                     31                     32                     33
                      A                      A                      A
 Frequencies --   1235.7667              1287.4373              1379.5275
 Red. masses --      1.7024                 1.3577                 1.7248
 Frc consts  --      1.5318                 1.3258                 1.9340
 IR Inten    --     18.5185                 8.6107                14.1782

                     34                     35                     36
                      A                      A                      A
 Frequencies --   1405.8651              1414.1906              1437.7510
 Red. masses --      1.5881                 1.4465                 1.7830
 Frc consts  --      1.8493                 1.7045                 2.1715
 IR Inten    --      0.3438                16.8386                27.1879

                     37                     38                     39
                      A                      A                      A
 Frequencies --   1460.4586              1483.3117              1500.1591
 Red. masses --      1.0908                 1.0589                 1.2498
 Frc consts  --      1.3708                 1.3726                 1.6572
 IR Inten    --      2.0342                 4.0483                 0.6319

                     40                     41                     42
                      A                      A                      A
 Frequencies --   1503.3879              1818.9097              2903.9874
 Red. masses --      1.3115                10.3963                 1.0839
 Frc consts  --      1.7465                20.2653                 5.3855
 IR Inten    --      2.3163               216.6203                78.4086

                     43                     44                     45
                      A                      A                      A
 Frequencies --   3045.7124              3108.5742              3136.7756
 Red. masses --      1.0371                 1.1007                 1.0592
 Frc consts  --      5.6680                 6.2667                 6.1405
 IR Inten    --     13.1611                10.8039                 6.0626

                     46                     47                     48
                      A                      A                      A
 Frequencies --   3137.2624              3140.7233              3141.8658
 Red. masses --      1.0803                 1.0808                 1.0766
 Frc consts  --      6.2648                 6.2815                 6.2616
 IR Inten    --     15.9751                19.3850                 6.7945

                     49                     50                     51
                      A                      A                      A
 Frequencies --   3148.3528              3219.7679              3234.9741
 Red. masses --      1.0861                 1.1182                 1.1160
 Frc consts  --      6.3431                 6.8302                 6.8814
 IR Inten    --      9.8090                 1.3462                10.8926

 - Thermochemistry -
 -------------------
 Temperature   298.150 Kelvin.  Pressure   1.00000 Atm.
 Atom     1 has atomic number  6 and mass  12.00000

 Molecular mass:   126.06808 amu.
 Principal axes and moments of inertia in atomic units:
                           1         2         3
     Eigenvalues --   528.843591784.061152004.46472
           X            0.99978  -0.01848  -0.00972
           Y            0.01845   0.99983  -0.00262
           Z            0.00976   0.00244   0.99995
 This molecule is an asymmetric top.
 Rotational symmetry number  1.
 Warning -- assumption of classical behavior for rotation
           may cause significant error
 Rotational temperatures (Kelvin)      0.16378     0.04855     0.04321
 Rotational constants (GHZ):           3.41262     1.01159     0.90036
 Zero-point vibrational energy     410956.7 (Joules/Mol)
                                   98.22102 (Kcal/Mol)
 Warning -- explicit consideration of  12 degrees of freedom as
           vibrations may cause significant error
 Vibrational temperatures:    112.25   148.68   171.80   254.50   301.16
          (Kelvin)            361.30   412.76   521.67   597.24   642.33
                              765.85   815.51   963.44  1143.42  1187.22
                             1216.29  1223.63  1341.53  1364.68  1420.37
                             1464.66  1530.06  1545.95  1572.89  1584.88
                             1615.89  1630.40  1635.41  1731.14  1745.74
                             1777.99  1852.33  1984.83  2022.72  2034.70
                             2068.60  2101.27  2134.15  2158.39  2163.04
                             2617.00  4178.19  4382.10  4472.54  4513.11
                             4513.82  4518.79  4520.44  4529.77  4632.52
                             4654.40

 Zero-point correction=                           0.156525 (Hartree/Particle)
 Thermal correction to Energy=                    0.165774
 Thermal correction to Enthalpy=                  0.166718
 Thermal correction to Gibbs Free Energy=         0.122232
 Sum of electronic and zero-point Energies=           -423.005849
 Sum of electronic and thermal Energies=              -422.996600
 Sum of electronic and thermal Enthalpies=            -422.995656
 Sum of electronic and thermal Free Energies=         -423.040142

                     E (Thermal)             CV                S
                      KCal/Mol        Cal/Mol-Kelvin    Cal/Mol-Kelvin
 Total                  104.025             33.980             93.630
 Electronic               0.000              0.000              0.000
 Translational            0.889              2.981             40.409
 Rotational               0.889              2.981             29.027
 Vibrational            102.247             28.019             24.194
 Vibration     1          0.599              1.964              3.940
 Vibration     2          0.605              1.947              3.390
 Vibration     3          0.609              1.933              3.110
 Vibration     4          0.628              1.871              2.361
 Vibration     5          0.642              1.827              2.050
 Vibration     6          0.663              1.761              1.723
 Vibration     7          0.684              1.698              1.492
 Vibration     8          0.736              1.549              1.111
 Vibration     9          0.779              1.437              0.909
 Vibration    10          0.806              1.369              0.807
 Vibration    11          0.887              1.179              0.582
 Vibration    12          0.923              1.103              0.510

 Optimization completed.
    -- Stationary point found.
 Normal termination of Gaussian 09 at Mon Jan 27 17:05:53 2020.
