 Gaussian 09, Revision D.01,
 Gaussian 09:  ES64L-G09RevD.01 24-Apr-2013

 -----------------------------
 # b3lyp 6-31G(2df,p) opt Freq
 -----------------------------

 -----
 titel
 -----
 Symbolic Z-matrix:
 Charge =  0 Multiplicity = 1

 SCF Done:  E(RB3LYP) =  -423.157606921     A.U. after   14 cycles
 Optimization completed.
    -- Stationary point found.
 Normal termination of Gaussian 09 at Mon Jan 27 22:03:29 2020.

 ----------------------------------------------------------------------
 #N Geom=AllCheck Guess=TCheck SCRF=Check GenChk RB3LYP/6-31G(2df,p) Fr
 eq
 ----------------------------------------------------------------------

 Structure from the checkpoint file:  "/scratch/puck/g09_908923d9-b0a0-44df-ac71-408f8a3c3859/Gau-189742.chk"
 -----
 titel
 -----
 Charge =  0 Multiplicity = 1

                         Standard orientation:
 ---------------------------------------------------------------------
 Center     Atomic      Atomic             Coordinates (Angstroms)
 Number     Number       Type             X           Y           Z
 ---------------------------------------------------------------------
      1          6           0       -0.670936    2.611068    0.253940
      2          6           0       -0.371686    1.135278    0.387744
      3          6           0       -1.184880    0.119796   -0.416733
      4          6           0       -1.621094   -1.125541    0.250644
      5          8           0       -2.661254   -1.693685    0.022785
      6          6           0        0.299326    0.374976   -0.704385
      7          6           0        1.341117   -0.679288   -0.488619
      8          6           0        2.049487   -0.902365    0.780203
      9          8           0        2.678678   -0.206485   -0.292280
     10          1           0       -1.525524    2.898953    0.874470
     11          1           0        0.190897    3.211295    0.563842
     12          1           0       -0.905322    2.873271   -0.782479
     13          1           0       -0.139993    0.809346    1.398863
     14          1           0       -1.897112    0.505404   -1.138927
     15          1           0       -0.911402   -1.515936    1.016659
     16          1           0        0.457776    0.926541   -1.628993
     17          1           0        1.280991   -1.524077   -1.177347
     18          1           0        1.812943   -0.295582    1.652023
     19          1           0        2.449344   -1.891410    1.001088
 ---------------------------------------------------------------------

 SCF Done:  E(RB3LYP) =  -423.157606921     A.U. after    1 cycles

 The electronic state is 1-A.
 Alpha  occ. eigenvalues --  -19.15900 -19.13305 -10.27012 -10.25230 -10.24453
 Alpha  occ. eigenvalues --  -10.21953 -10.21795 -10.20943 -10.19465  -1.08003
 Alpha  occ. eigenvalues --   -1.04100  -0.89097  -0.73899  -0.70037  -0.67115
 Alpha  occ. eigenvalues --   -0.64213  -0.58975  -0.56166  -0.51979  -0.49962
 Alpha  occ. eigenvalues --   -0.48045  -0.45057  -0.43147  -0.42240  -0.41771
 Alpha  occ. eigenvalues --   -0.40527  -0.39213  -0.38578  -0.37623  -0.32742
 Alpha  occ. eigenvalues --   -0.30842  -0.29792  -0.27276  -0.24998
 Alpha virt. eigenvalues --   -0.02161   0.07139   0.08455   0.09296   0.10364
 Alpha virt. eigenvalues --    0.11007   0.13023   0.13468   0.15030   0.15379
 Alpha virt. eigenvalues --    0.16196   0.17249   0.17634   0.19289   0.20200

 Mulliken charges:
               1
     1  C   -0.414768
     2  C   -0.035574
     3  C   -0.130478
     4  C    0.162373
     5  O   -0.273037
     6  C   -0.062987
     7  C    0.051176
     8  C   -0.174231
     9  O   -0.232359
    10  H    0.129285
    11  H    0.132007
    12  H    0.123553
    13  H    0.095035
    14  H    0.106463
    15  H    0.068015
    16  H    0.111081
    17  H    0.105768
    18  H    0.118592
    19  H    0.120086
 Sum of Mulliken charges =   0.00000

 Dipole moment (field-independent basis, Debye):
    X=              1.0187    Y=              1.5411    Z=              0.7177  Tot=              1.9818
 Quadrupole moment (field-independent basis, Debye-Ang):
   XX=            -68.0482   YY=            -53.2498   ZZ=            -49.9242
   XY=             -8.6562   XZ=              2.1697   YZ=             -0.7477

  Exact polarizability:  84.181   2.084  82.125   4.638  -1.609  66.948
 Approx polarizability: 125.605  13.634 112.552   6.545  -1.714 105.745

                      1                      2                      3
                      A                      A                      A
 Frequencies --     56.6118                85.6012               134.0050
 Red. masses --      3.5143                 6.5282                 3.7063
 Frc consts  --      0.0066                 0.0282                 0.0392
 IR Inten    --      4.9637                 6.4923                 1.2707

                      4                      5                      6
                      A                      A                      A
 Frequencies --    179.1653               197.3683               237.7817
 Red. masses --      2.9761                 1.1649                 2.1498
 Frc consts  --      0.0563                 0.0267                 0.0716
 IR Inten    --      1.6961                 0.4218                 2.9719

                      7                      8                      9
                      A                      A                      A
 Frequencies --    257.1356               342.8476               378.3369
 Red. masses --      2.4396                 4.2671                 2.8432
 Frc consts  --      0.0950                 0.2955                 0.2398
 IR Inten    --      2.0808                 4.0880                 0.4103

                     10                     11                     12
                      A                      A                      A
 Frequencies --    456.0003               531.0039               542.9793
 Red. masses --      3.8108                 4.2874                 2.9778
 Frc consts  --      0.4669                 0.7123                 0.5173
 IR Inten    --      9.4012                 8.3690                 0.9251

                     13                     14                     15
                      A                      A                      A
 Frequencies --    779.0476               808.9288               856.5404
 Red. masses --      2.8297                 3.2002                 5.7717
 Frc consts  --      1.0118                 1.2338                 2.4949
 IR Inten    --      4.8448                 3.0290                12.0898

                     16                     17                     18
                      A                      A                      A
 Frequencies --    878.6642               918.6989               969.3990
 Red. masses --      2.3013                 1.7197                 1.4736
 Frc consts  --      1.0468                 0.8551                 0.8159
 IR Inten    --     32.0010                36.6348                 4.1743

                     19                     20                     21
                      A                      A                      A
 Frequencies --    984.3967              1046.6376              1048.3030
 Red. masses --      1.4223                 1.8353                 2.5698
 Frc consts  --      0.8121                 1.1845                 1.6639
 IR Inten    --      4.7673                 0.6948                70.4075

                     22                     23                     24
                      A                      A                      A
 Frequencies --   1063.6736              1100.8447              1124.2010
 Red. masses --      1.3742                 1.3563                 1.5879
 Frc consts  --      0.9161                 0.9684                 1.1824
 IR Inten    --      2.1308                 6.0907                 1.6035

                     25                     26                     27
                      A                      A                      A
 Frequencies --   1128.4641              1145.1922              1163.1664
 Red. masses --      1.5393                 1.6769                 1.3765
 Frc consts  --      1.1549                 1.2957                 1.0973
 IR Inten    --      0.8111                 7.7208                 1.8767

                     28                     29                     30
                      A                      A                      A
 Frequencies --   1178.7477              1194.3570              1225.7507
 Red. masses --      1.4607                 1.8466                 1.6803
 Frc consts  --      1.1958                 1.5520                 1.4874
 IR Inten    --      4.8896                23.9302                 1.3683

                     31                     32                     33
                      A                      A                      A
 Frequencies --   1294.3428              1306.5920              1349.9459
 Red. masses --      1.3617                 1.4499                 1.4498
 Frc consts  --      1.3441                 1.4583                 1.5567
 IR Inten    --      2.5424                 4.9999                 6.4782

                     34                     35                     36
                      A                      A                      A
 Frequencies --   1416.7012              1431.5394              1436.3228
 Red. masses --      1.2913                 1.5511                 1.3817
 Frc consts  --      1.5269                 1.8728                 1.6795
 IR Inten    --      3.3544                19.6420                 3.7900

                     37                     38                     39
                      A                      A                      A
 Frequencies --   1471.2187              1490.1856              1502.1194
 Red. masses --      2.2863                 1.0492                 1.1297
 Frc consts  --      2.9156                 1.3727                 1.5019
 IR Inten    --     10.3830                 2.2016                 6.9061

                     40                     41                     42
                      A                      A                      A
 Frequencies --   1528.0992              1815.7202              2860.9221
 Red. masses --      1.3421                10.0148                 1.0810
 Frc consts  --      1.8465                19.4532                 5.2130
 IR Inten    --      5.0869               269.7893                87.7209

                     43                     44                     45
                      A                      A                      A
 Frequencies --   3034.5022              3085.5457              3093.1990
 Red. masses --      1.0350                 1.0532                 1.0843
 Frc consts  --      5.6152                 5.9076                 6.1127
 IR Inten    --     25.7132                22.5648                20.5212

                     46                     47                     48
                      A                      A                      A
 Frequencies --   3102.0174              3104.9104              3130.3194
 Red. masses --      1.1014                 1.1004                 1.0875
 Frc consts  --      6.2440                 6.2505                 6.2783
 IR Inten    --     15.2455                14.5417                 2.4727

                     49                     50                     51
                      A                      A                      A
 Frequencies --   3143.6506              3171.3273              3173.3067
 Red. masses --      1.0877                 1.0918                 1.1150
 Frc consts  --      6.3334                 6.4697                 6.6154
 IR Inten    --     18.8570                10.9883                23.0200

 - Thermochemistry -
 -------------------
 Temperature   298.150 Kelvin.  Pressure   1.00000 Atm.
 Atom     1 has atomic number  6 and mass  12.00000

 Molecular mass:   126.06808 amu.
 Principal axes and moments of inertia in atomic units:
                           1         2         3
     Eigenvalues --   889.132281475.516772102.50219
           X            0.99696  -0.07707   0.01111
           Y            0.07714   0.99700  -0.00585
           Z           -0.01063   0.00669   0.99992
 This molecule is an asymmetric top.
 Rotational symmetry number  1.
 Warning -- assumption of classical behavior for rotation
           may cause significant error
 Rotational temperatures (Kelvin)      0.09741     0.05870     0.04120
 Rotational constants (GHZ):           2.02978     1.22312     0.85838
 Zero-point vibrational energy     412450.5 (Joules/Mol)
                                   98.57803 (Kcal/Mol)
 Warning -- explicit consideration of  12 degrees of freedom as
           vibrations may cause significant error
 Vibrational temperatures:     81.45   123.16   192.80   257.78   283.97
          (Kelvin)            342.11   369.96   493.28   544.34   656.08
                              764.00   781.23  1120.87  1163.87  1232.37
                             1264.20  1321.80  1394.75  1416.33  1505.88
                             1508.27  1530.39  1583.87  1617.47  1623.61
                             1647.67  1673.53  1695.95  1718.41  1763.58
                             1862.27  1879.89  1942.27  2038.31  2059.66
                             2066.55  2116.75  2144.04  2161.21  2198.59
                             2612.41  4116.22  4365.97  4439.41  4450.42
                             4463.11  4467.27  4503.83  4523.01  4562.83
                             4565.67

 Zero-point correction=                           0.157094 (Hartree/Particle)
 Thermal correction to Energy=                    0.166413
 Thermal correction to Enthalpy=                  0.167358
 Thermal correction to Gibbs Free Energy=         0.122187
 Sum of electronic and zero-point Energies=           -423.000513
 Sum of electronic and thermal Energies=              -422.991194
 Sum of electronic and thermal Enthalpies=            -422.990249
 Sum of electronic and thermal Free Energies=         -423.035420

                     E (Thermal)             CV                S
                      KCal/Mol        Cal/Mol-Kelvin    Cal/Mol-Kelvin
 Total                  104.426             33.438             95.069
 Electronic               0.000              0.000              0.000
 Translational            0.889              2.981             40.409
 Rotational               0.889              2.981             29.402
 Vibrational            102.649             27.476             25.258
 Vibration     1          0.596              1.975              4.572
 Vibration     2          0.601              1.959              3.758
 Vibration     3          0.613              1.919              2.888
 Vibration     4          0.629              1.868              2.337
 Vibration     5          0.637              1.844              2.157
 Vibration     6          0.656              1.783              1.819
 Vibration     7          0.667              1.751              1.681
 Vibration     8          0.722              1.590              1.199
 Vibration     9          0.749              1.516              1.046
 Vibration    10          0.814              1.348              0.778
 Vibration    11          0.886              1.181              0.585
 Vibration    12          0.898              1.155              0.559

 Optimization completed.
    -- Stationary point found.
 Normal termination of Gaussian 09 at Mon Jan 27 22:43:29 2020.
