 Gaussian 09, Revision D.01,
 Gaussian 09:  ES64L-G09RevD.01 24-Apr-2013

 -----------------------------
 # b3lyp 6-31G(2df,p) opt Freq
 -----------------------------

 -----
 titel
 -----
 Symbolic Z-matrix:
 Charge =  0 Multiplicity = 1

 SCF Done:  E(RB3LYP) =  -423.155542304     A.U. after   12 cycles
 Optimization completed.
    -- Stationary point found.
 Normal termination of Gaussian 09 at Mon Jan 27 22:02:48 2020.

 ----------------------------------------------------------------------
 #N Geom=AllCheck Guess=TCheck SCRF=Check GenChk RB3LYP/6-31G(2df,p) Fr
 eq
 ----------------------------------------------------------------------

 Structure from the checkpoint file:  "/scratch/puck/g09_197849f6-72b2-4aad-9461-02834691ee4e/Gau-176388.chk"
 -----
 titel
 -----
 Charge =  0 Multiplicity = 1

                         Standard orientation:
 ---------------------------------------------------------------------
 Center     Atomic      Atomic             Coordinates (Angstroms)
 Number     Number       Type             X           Y           Z
 ---------------------------------------------------------------------
      1          6           0       -2.411260   -1.004587   -0.057224
      2          6           0       -1.089285   -0.291598   -0.051730
      3          8           0       -1.163794    1.006430   -0.622146
      4          6           0       -0.174409    1.815984    0.024189
      5          6           0        0.808148    0.807863    0.610870
      6          6           0       -0.119908   -0.353825    1.075848
      7          6           0        0.196729   -1.080146   -0.250969
      8          6           0        1.362898   -0.129126   -0.515411
      9          8           0        2.630033   -0.685714   -0.237771
     10          1           0       -2.315809   -2.004390    0.375498
     11          1           0       -3.152265   -0.442765    0.519545
     12          1           0       -2.785398   -1.108924   -1.080415
     13          1           0        0.278177    2.472864   -0.726329
     14          1           0       -0.639326    2.437059    0.804725
     15          1           0        1.558918    1.210789    1.290021
     16          1           0       -0.312168   -0.719041    2.076780
     17          1           0        0.192245   -2.142507   -0.474937
     18          1           0        1.446387    0.309472   -1.515046
     19          1           0        2.561856   -1.165675    0.596059
 ---------------------------------------------------------------------

 SCF Done:  E(RB3LYP) =  -423.155542305     A.U. after    1 cycles

 The electronic state is 1-A.
 Alpha  occ. eigenvalues --  -19.13654 -19.13619 -10.24226 -10.23349 -10.22696
 Alpha  occ. eigenvalues --  -10.19433 -10.19320 -10.18991 -10.18271  -1.04296
 Alpha  occ. eigenvalues --   -1.01889  -0.87907  -0.77669  -0.70017  -0.66833
 Alpha  occ. eigenvalues --   -0.62633  -0.56055  -0.55738  -0.51945  -0.47939
 Alpha  occ. eigenvalues --   -0.46579  -0.45908  -0.42851  -0.41235  -0.40134
 Alpha  occ. eigenvalues --   -0.39053  -0.37101  -0.36482  -0.33098  -0.32755
 Alpha  occ. eigenvalues --   -0.31680  -0.27502  -0.25117  -0.23072
 Alpha virt. eigenvalues --    0.08407   0.09316   0.09824   0.11132   0.12411
 Alpha virt. eigenvalues --    0.13444   0.14527   0.14904   0.16104   0.16894
 Alpha virt. eigenvalues --    0.17522   0.18105   0.19414   0.20564   0.22349

 Mulliken charges:
               1
     1  C   -0.475809
     2  C    0.469880
     3  O   -0.312052
     4  C   -0.094183
     5  C   -0.120752
     6  C   -0.186307
     7  C   -0.185937
     8  C    0.152811
     9  O   -0.443727
    10  H    0.119659
    11  H    0.126567
    12  H    0.133260
    13  H    0.109033
    14  H    0.092866
    15  H    0.077101
    16  H    0.087395
    17  H    0.083420
    18  H    0.089459
    19  H    0.277318
 Sum of Mulliken charges =   0.00000

 Dipole moment (field-independent basis, Debye):
    X=             -0.5024    Y=             -0.6241    Z=              1.9624  Tot=              2.1197
 Quadrupole moment (field-independent basis, Debye-Ang):
   XX=            -58.3688   YY=            -50.0648   ZZ=            -52.1726
   XY=              2.5603   XZ=              1.6993   YZ=             -0.4824

  Exact polarizability:  80.965   1.854  76.575  -0.141   0.462  65.782
 Approx polarizability: 110.494  -1.268 109.727   0.842   0.260 106.247

                      1                      2                      3
                      A                      A                      A
 Frequencies --    152.5656               209.1100               216.4563
 Red. masses --      3.9884                 1.1581                 2.4468
 Frc consts  --      0.0547                 0.0298                 0.0675
 IR Inten    --      2.4490                 0.2433                 1.8127

                      4                      5                      6
                      A                      A                      A
 Frequencies --    275.0695               305.9402               336.1021
 Red. masses --      2.6919                 1.9528                 1.4848
 Frc consts  --      0.1200                 0.1077                 0.0988
 IR Inten    --      2.2507                 8.8805                30.4857

                      7                      8                      9
                      A                      A                      A
 Frequencies --    387.9314               404.0667               531.7488
 Red. masses --      2.5126                 3.8628                 4.0270
 Frc consts  --      0.2228                 0.3716                 0.6709
 IR Inten    --     41.2239                 1.9415                 3.7502

                     10                     11                     12
                      A                      A                      A
 Frequencies --    608.9201               688.0889               745.7368
 Red. masses --      3.3374                 3.6919                 4.0204
 Frc consts  --      0.7291                 1.0299                 1.3173
 IR Inten    --      0.2067                 1.7079                12.0650

                     13                     14                     15
                      A                      A                      A
 Frequencies --    810.8473               848.9545               850.8138
 Red. masses --      3.8781                 2.0902                 2.2364
 Frc consts  --      1.5023                 0.8876                 0.9538
 IR Inten    --     14.3507                 6.3648                 6.6613

                     16                     17                     18
                      A                      A                      A
 Frequencies --    875.4475               923.2307               929.7886
 Red. masses --      2.3630                 1.7387                 1.7962
 Frc consts  --      1.0670                 0.8732                 0.9149
 IR Inten    --      3.1085                19.9658                14.5299

                     19                     20                     21
                      A                      A                      A
 Frequencies --    965.5683               984.5947              1006.8237
 Red. masses --      1.5671                 2.0655                 1.4903
 Frc consts  --      0.8608                 1.1798                 0.8901
 IR Inten    --      7.4154                 9.2337                 3.3616

                     22                     23                     24
                      A                      A                      A
 Frequencies --   1048.2524              1056.9989              1066.3384
 Red. masses --      3.7759                 2.4681                 1.8732
 Frc consts  --      2.4445                 1.6247                 1.2549
 IR Inten    --     46.0608                16.2672                 6.0791

                     25                     26                     27
                      A                      A                      A
 Frequencies --   1097.4796              1115.4377              1146.5890
 Red. masses --      2.7619                 1.9802                 1.9649
 Frc consts  --      1.9600                 1.4516                 1.5220
 IR Inten    --     88.8576                18.9153                30.3676

                     28                     29                     30
                      A                      A                      A
 Frequencies --   1190.2128              1203.7823              1219.0541
 Red. masses --      1.5361                 1.7169                 1.4224
 Frc consts  --      1.2821                 1.4659                 1.2454
 IR Inten    --      7.5305                45.7286                10.0543

                     31                     32                     33
                      A                      A                      A
 Frequencies --   1244.1452              1271.2623              1283.9488
 Red. masses --      1.4106                 2.0585                 1.7412
 Frc consts  --      1.2864                 1.9601                 1.6912
 IR Inten    --     11.5549                 6.8492                 8.4541

                     34                     35                     36
                      A                      A                      A
 Frequencies --   1309.4393              1373.9330              1407.1661
 Red. masses --      1.7477                 1.4006                 1.5058
 Frc consts  --      1.7656                 1.5578                 1.7567
 IR Inten    --      3.5054                 3.6612                18.8065

                     37                     38                     39
                      A                      A                      A
 Frequencies --   1429.3205              1433.5267              1479.4038
 Red. masses --      1.3762                 2.3346                 1.0522
 Frc consts  --      1.6565                 2.8267                 1.3568
 IR Inten    --     47.9415                53.3125                 3.0922

                     40                     41                     42
                      A                      A                      A
 Frequencies --   1502.8472              1515.0074              2988.7825
 Red. masses --      1.0963                 1.0993                 1.0681
 Frc consts  --      1.4588                 1.4867                 5.6213
 IR Inten    --      1.6305                 1.0687                77.7936

                     43                     44                     45
                      A                      A                      A
 Frequencies --   3040.4082              3059.8617              3070.6399
 Red. masses --      1.0350                 1.0862                 1.0954
 Frc consts  --      5.6372                 5.9921                 6.0853
 IR Inten    --     25.1070                24.8269                49.6439

                     46                     47                     48
                      A                      A                      A
 Frequencies --   3107.7200              3118.5889              3124.5399
 Red. masses --      1.1017                 1.1013                 1.0895
 Frc consts  --      6.2687                 6.3108                 6.2667
 IR Inten    --     16.1672                16.6985                20.6333

                     49                     50                     51
                      A                      A                      A
 Frequencies --   3158.7587              3189.3548              3787.1059
 Red. masses --      1.0909                 1.0960                 1.0654
 Frc consts  --      6.4133                 6.5684                 9.0028
 IR Inten    --     19.6552                11.4511                10.8272

 - Thermochemistry -
 -------------------
 Temperature   298.150 Kelvin.  Pressure   1.00000 Atm.
 Atom     1 has atomic number  6 and mass  12.00000

 Molecular mass:   126.06808 amu.
 Principal axes and moments of inertia in atomic units:
                           1         2         3
     Eigenvalues --   594.527721156.660521457.26297
           X            0.99890   0.04688   0.00153
           Y           -0.04689   0.99889   0.00346
           Z           -0.00137  -0.00353   0.99999
 This molecule is an asymmetric top.
 Rotational symmetry number  1.
 Warning -- assumption of classical behavior for rotation
           may cause significant error
 Rotational temperatures (Kelvin)      0.14569     0.07488     0.05944
 Rotational constants (GHZ):           3.03559     1.56030     1.23845
 Zero-point vibrational energy     419277.4 (Joules/Mol)
                                  100.20971 (Kcal/Mol)
 Warning -- explicit consideration of  10 degrees of freedom as
           vibrations may cause significant error
 Vibrational temperatures:    219.51   300.86   311.43   395.76   440.18
          (Kelvin)            483.58   558.15   581.36   765.07   876.10
                              990.01  1072.95  1166.63  1221.45  1224.13
                             1259.57  1328.32  1337.76  1389.24  1416.61
                             1448.59  1508.20  1520.78  1534.22  1579.03
                             1604.86  1649.68  1712.45  1731.97  1753.94
                             1790.05  1829.06  1847.31  1883.99  1976.78
                             2024.60  2056.47  2062.52  2128.53  2162.26
                             2179.76  4300.19  4374.46  4402.45  4417.96
                             4471.31  4486.95  4495.51  4544.74  4588.76
                             5448.79

 Zero-point correction=                           0.159694 (Hartree/Particle)
 Thermal correction to Energy=                    0.167466
 Thermal correction to Enthalpy=                  0.168410
 Thermal correction to Gibbs Free Energy=         0.127929
 Sum of electronic and zero-point Energies=           -422.995848
 Sum of electronic and thermal Energies=              -422.988076
 Sum of electronic and thermal Enthalpies=            -422.987132
 Sum of electronic and thermal Free Energies=         -423.027613

                     E (Thermal)             CV                S
                      KCal/Mol        Cal/Mol-Kelvin    Cal/Mol-Kelvin
 Total                  105.087             31.288             85.199
 Electronic               0.000              0.000              0.000
 Translational            0.889              2.981             40.409
 Rotational               0.889              2.981             28.396
 Vibrational            103.309             25.327             16.395
 Vibration     1          0.619              1.900              2.640
 Vibration     2          0.642              1.827              2.051
 Vibration     3          0.645              1.816              1.989
 Vibration     4          0.677              1.719              1.564
 Vibration     5          0.696              1.662              1.384
 Vibration     6          0.717              1.603              1.231
 Vibration     7          0.756              1.496              1.008
 Vibration     8          0.769              1.461              0.948
 Vibration     9          0.887              1.180              0.583
 Vibration    10          0.968              1.013              0.435

 Normal termination of Gaussian 09 at Mon Jan 27 22:55:21 2020.
