 Gaussian 09, Revision D.01,
 Gaussian 09:  ES64L-G09RevD.01 24-Apr-2013

 -----------------------------
 # b3lyp 6-31G(2df,p) opt Freq
 -----------------------------

 -----
 titel
 -----
 Symbolic Z-matrix:
 Charge =  0 Multiplicity = 1

 SCF Done:  E(RB3LYP) =  -423.147208942     A.U. after   15 cycles
 SCF Done:  E(RB3LYP) =  -423.147208848     A.U. after    8 cycles
 SCF Done:  E(RB3LYP) =  -423.147208826     A.U. after    7 cycles
 SCF Done:  E(RB3LYP) =  -423.147208523     A.U. after    7 cycles
 SCF Done:  E(RB3LYP) =  -423.147208914     A.U. after    8 cycles
 SCF Done:  E(RB3LYP) =  -423.147208992     A.U. after    7 cycles
 Optimization completed.
    -- Stationary point found.
 Normal termination of Gaussian 09 at Tue Jan 28 08:45:34 2020.

 ----------------------------------------------------------------------
 #N Geom=AllCheck Guess=TCheck SCRF=Check GenChk RB3LYP/6-31G(2df,p) Fr
 eq
 ----------------------------------------------------------------------

 Structure from the checkpoint file:  "/scratch/puck/g09_df9f67c2-0ba4-4e16-8fba-f9afc69fe728/Gau-79698.chk"
 -----
 titel
 -----
 Charge =  0 Multiplicity = 1

                         Standard orientation:
 ---------------------------------------------------------------------
 Center     Atomic      Atomic             Coordinates (Angstroms)
 Number     Number       Type             X           Y           Z
 ---------------------------------------------------------------------
      1          6           0        0.348766   -2.164567    0.458923
      2          6           0       -0.387747   -0.816853    0.448747
      3          6           0       -1.767599   -1.010871   -0.207581
      4          8           0       -2.475652    0.172744   -0.504897
      5          6           0        0.430476    0.301096   -0.276988
      6          6           0        1.910282    0.233851    0.122390
      7          8           0        2.790672   -0.120876   -0.612833
      8          6           0       -0.040308    1.642639    0.056140
      9          6           0       -0.330003    2.756615    0.407318
     10          1           0       -0.299707   -2.946978    0.865762
     11          1           0        0.641421   -2.460621   -0.553945
     12          1           0        1.254953   -2.137646    1.069586
     13          1           0       -0.537042   -0.487938    1.485814
     14          1           0       -1.635761   -1.521754   -1.169290
     15          1           0       -2.356702   -1.685570    0.435671
     16          1           0       -2.455809    0.750634    0.265133
     17          1           0        0.385866    0.130506   -1.358702
     18          1           0        2.108742    0.547609    1.171045
     19          1           0       -0.609324    3.745362    0.677064
 ---------------------------------------------------------------------

 SCF Done:  E(RB3LYP) =  -423.147208992     A.U. after    1 cycles

 The electronic state is 1-A.
 Alpha  occ. eigenvalues --  -19.14980 -19.13947 -10.28167 -10.23578 -10.22617
 Alpha  occ. eigenvalues --  -10.21419 -10.19746 -10.19109 -10.18700  -1.05793
 Alpha  occ. eigenvalues --   -1.02268  -0.83967  -0.77319  -0.71784  -0.68404
 Alpha  occ. eigenvalues --   -0.61235  -0.58919  -0.54780  -0.50752  -0.49770
 Alpha  occ. eigenvalues --   -0.48405  -0.45324  -0.43685  -0.42195  -0.41937
 Alpha  occ. eigenvalues --   -0.39799  -0.38947  -0.37103  -0.35800  -0.32498
 Alpha  occ. eigenvalues --   -0.29803  -0.28029  -0.27229  -0.25007
 Alpha virt. eigenvalues --   -0.03340   0.03911   0.05132   0.07784   0.09469
 Alpha virt. eigenvalues --    0.10462   0.11812   0.13637   0.15139   0.15265
 Alpha virt. eigenvalues --    0.15502   0.16126   0.18142   0.20688   0.21840

 Mulliken charges:
               1
     1  C   -0.411801
     2  C   -0.052687
     3  C   -0.045497
     4  O   -0.413797
     5  C   -0.213169
     6  C    0.157442
     7  O   -0.247602
     8  C    0.280841
     9  C   -0.437321
    10  H    0.120383
    11  H    0.136088
    12  H    0.130143
    13  H    0.086170
    14  H    0.111366
    15  H    0.091883
    16  H    0.285152
    17  H    0.128343
    18  H    0.090179
    19  H    0.203884
 Sum of Mulliken charges =   0.00000

 Dipole moment (field-independent basis, Debye):
    X=             -1.3158    Y=             -0.1938    Z=              2.3972  Tot=              2.7415
 Quadrupole moment (field-independent basis, Debye-Ang):
   XX=            -64.3903   YY=            -47.2244   ZZ=            -53.4135
   XY=              0.1536   XZ=             -0.5565   YZ=              1.9248

  Exact polarizability:  79.277  -5.860  94.475  -2.483   6.313  62.517
 Approx polarizability: 110.905 -14.521 138.130  -9.454  16.288 102.270

                      1                      2                      3
                      A                      A                      A
 Frequencies --     47.8692                72.4845               116.7737
 Red. masses --      5.3987                 5.3513                 2.4857
 Frc consts  --      0.0073                 0.0166                 0.0200
 IR Inten    --      1.9196                 5.5980                 2.6609

                      4                      5                      6
                      A                      A                      A
 Frequencies --    148.8133               175.6387               216.4973
 Red. masses --      3.3454                 3.2876                 2.5957
 Frc consts  --      0.0436                 0.0598                 0.0717
 IR Inten    --      1.1029                 1.6607                 4.4813

                      7                      8                      9
                      A                      A                      A
 Frequencies --    232.0344               259.3748               297.0341
 Red. masses --      1.3124                 2.4129                 1.1984
 Frc consts  --      0.0416                 0.0956                 0.0623
 IR Inten    --      0.3813                 3.4141               178.2984

                     10                     11                     12
                      A                      A                      A
 Frequencies --    351.5155               390.8640               474.5006
 Red. masses --      2.8004                 2.9550                 4.4066
 Frc consts  --      0.2039                 0.2660                 0.5846
 IR Inten    --      3.4060                13.5622                14.5304

                     13                     14                     15
                      A                      A                      A
 Frequencies --    479.9040               523.6781               541.3934
 Red. masses --      3.6428                 5.9165                 3.9448
 Frc consts  --      0.4943                 0.9560                 0.6812
 IR Inten    --      7.8715                 6.0979                 1.4734

                     16                     17                     18
                      A                      A                      A
 Frequencies --    638.5747               650.6079               841.2320
 Red. masses --      1.2273                 1.2291                 2.3466
 Frc consts  --      0.2949                 0.3065                 0.9784
 IR Inten    --     43.7345                42.3182                 2.2043

                     19                     20                     21
                      A                      A                      A
 Frequencies --    903.2234               939.1897               951.4412
 Red. masses --      1.7786                 1.4669                 2.2021
 Frc consts  --      0.8549                 0.7623                 1.1745
 IR Inten    --      8.9181                 0.2520                 1.0708

                     22                     23                     24
                      A                      A                      A
 Frequencies --   1008.3519              1059.7913              1086.5573
 Red. masses --      3.2407                 3.5995                 2.7399
 Frc consts  --      1.9414                 2.3820                 1.9058
 IR Inten    --     11.0851                43.4294                66.6979

                     25                     26                     27
                      A                      A                      A
 Frequencies --   1101.3052              1130.1176              1148.5830
 Red. masses --      1.8989                 2.9865                 1.9167
 Frc consts  --      1.3569                 2.2473                 1.4898
 IR Inten    --      8.0360                 6.5447                 7.5871

                     28                     29                     30
                      A                      A                      A
 Frequencies --   1206.7238              1259.5732              1293.7035
 Red. masses --      1.2533                 1.4143                 1.3711
 Frc consts  --      1.0753                 1.3220                 1.3520
 IR Inten    --      3.7064                 8.2589                 4.1964

                     31                     32                     33
                      A                      A                      A
 Frequencies --   1331.8050              1365.0593              1383.4996
 Red. masses --      1.1967                 1.2745                 1.3259
 Frc consts  --      1.2506                 1.3992                 1.4953
 IR Inten    --      0.5106                 8.6669                 3.9546

                     34                     35                     36
                      A                      A                      A
 Frequencies --   1412.4944              1419.9827              1433.8693
 Red. masses --      1.2245                 1.1813                 1.2250
 Frc consts  --      1.4394                 1.4033                 1.4839
 IR Inten    --      1.8975                 3.8660                35.9276

                     37                     38                     39
                      A                      A                      A
 Frequencies --   1493.9873              1499.1495              1508.9914
 Red. masses --      1.0597                 1.0437                 1.0781
 Frc consts  --      1.3936                 1.3820                 1.4464
 IR Inten    --      2.7820                 5.6314                 2.4726

                     40                     41                     42
                      A                      A                      A
 Frequencies --   1836.4683              2223.8770              2889.0691
 Red. masses --     10.2618                 5.9606                 1.0841
 Frc consts  --     20.3911                17.3683                 5.3311
 IR Inten    --    186.5763                 1.4666                75.0416

                     43                     44                     45
                      A                      A                      A
 Frequencies --   2965.4328              3016.3661              3038.8964
 Red. masses --      1.0704                 1.0815                 1.0361
 Frc consts  --      5.5459                 5.7978                 5.6374
 IR Inten    --     67.4081                 7.9087                16.0485

                     46                     47                     48
                      A                      A                      A
 Frequencies --   3052.5378              3057.8112              3107.3386
 Red. masses --      1.0882                 1.0875                 1.1015
 Frc consts  --      5.9743                 5.9909                 6.2666
 IR Inten    --      6.0548                35.3816                23.0908

                     49                     50                     51
                      A                      A                      A
 Frequencies --   3115.2219              3501.0004              3812.9811
 Red. masses --      1.1012                 1.1608                 1.0661
 Frc consts  --      6.2963                 8.3827                 9.1322
 IR Inten    --     20.7527                75.5282                19.7867

 - Thermochemistry -
 -------------------
 Temperature   298.150 Kelvin.  Pressure   1.00000 Atm.
 Atom     1 has atomic number  6 and mass  12.00000

 Molecular mass:   126.06808 amu.
 Principal axes and moments of inertia in atomic units:
                           1         2         3
     Eigenvalues --   966.095061288.295922051.63698
           X            0.99997   0.00648   0.00527
           Y           -0.00648   0.99998  -0.00042
           Z           -0.00527   0.00039   0.99999
 This molecule is an asymmetric top.
 Rotational symmetry number  1.
 Warning -- assumption of classical behavior for rotation
           may cause significant error
 Rotational temperatures (Kelvin)      0.08965     0.06723     0.04222
 Rotational constants (GHZ):           1.86808     1.40087     0.87966
 Zero-point vibrational energy     406809.2 (Joules/Mol)
                                   97.22974 (Kcal/Mol)
 Warning -- explicit consideration of  15 degrees of freedom as
           vibrations may cause significant error
 Vibrational temperatures:     68.87   104.29   168.01   214.11   252.70
          (Kelvin)            311.49   333.85   373.18   427.37   505.75
                              562.37   682.70   690.47   753.46   778.94
                              918.77   936.08  1210.34  1299.54  1351.28
                             1368.91  1450.79  1524.80  1563.31  1584.53
                             1625.99  1652.55  1736.20  1812.24  1861.35
                             1916.17  1964.01  1990.54  2032.26  2043.04
                             2063.02  2149.51  2156.94  2171.10  2642.26
                             3199.66  4156.72  4266.59  4339.87  4372.29
                             4391.92  4399.50  4470.76  4482.10  5037.15
                             5486.02

 Zero-point correction=                           0.154945 (Hartree/Particle)
 Thermal correction to Energy=                    0.165611
 Thermal correction to Enthalpy=                  0.166555
 Thermal correction to Gibbs Free Energy=         0.118757
 Sum of electronic and zero-point Energies=           -422.992264
 Sum of electronic and thermal Energies=              -422.981598
 Sum of electronic and thermal Enthalpies=            -422.980654
 Sum of electronic and thermal Free Energies=         -423.028452

                     E (Thermal)             CV                S
                      KCal/Mol        Cal/Mol-Kelvin    Cal/Mol-Kelvin
 Total                  103.922             37.696            100.599
 Electronic               0.000              0.000              0.000
 Translational            0.889              2.981             40.409
 Rotational               0.889              2.981             29.325
 Vibrational            102.145             31.735             30.865
 Vibration     1          0.595              1.978              4.904
 Vibration     2          0.599              1.967              4.085
 Vibration     3          0.608              1.935              3.153
 Vibration     4          0.618              1.904              2.687
 Vibration     5          0.628              1.872              2.374
 Vibration     6          0.645              1.816              1.988
 Vibration     7          0.653              1.792              1.863
 Vibration     8          0.668              1.747              1.666
 Vibration     9          0.691              1.679              1.434
 Vibration    10          0.728              1.572              1.159
 Vibration    11          0.759              1.490              0.997
 Vibration    12          0.831              1.307              0.725
 Vibration    13          0.836              1.295              0.710
 Vibration    14          0.879              1.198              0.601
 Vibration    15          0.896              1.159              0.562

 Optimization completed.
    -- Stationary point found.
 Normal termination of Gaussian 09 at Tue Jan 28 09:31:17 2020.
