 Gaussian 09, Revision D.01,
 Gaussian 09:  ES64L-G09RevD.01 24-Apr-2013

 -----------------------------
 # b3lyp 6-31G(2df,p) opt Freq
 -----------------------------

 -----
 titel
 -----
 Symbolic Z-matrix:
 Charge =  0 Multiplicity = 1

 SCF Done:  E(RB3LYP) =  -423.125621011     A.U. after   14 cycles
 Optimization completed.
    -- Stationary point found.
 Normal termination of Gaussian 09 at Mon Jan 27 22:01:44 2020.

 ----------------------------------------------------------------------
 #N Geom=AllCheck Guess=TCheck SCRF=Check GenChk RB3LYP/6-31G(2df,p) Fr
 eq
 ----------------------------------------------------------------------

 Structure from the checkpoint file:  "/scratch/puck/g09_68a2da02-95c3-42ac-bbc1-81a9946dfb01/Gau-175806.chk"
 -----
 titel
 -----
 Charge =  0 Multiplicity = 1

                         Standard orientation:
 ---------------------------------------------------------------------
 Center     Atomic      Atomic             Coordinates (Angstroms)
 Number     Number       Type             X           Y           Z
 ---------------------------------------------------------------------
      1          6           0        1.926247    1.329884    0.028191
      2          6           0        0.608257    0.577152   -0.030212
      3          6           0       -0.619202    1.483802   -0.192196
      4          6           0       -1.883543    0.751850    0.256100
      5          8           0       -1.896215   -0.598106   -0.196049
      6          6           0       -0.654014   -1.214628   -0.062211
      7          6           0        0.439212   -0.668978    0.913447
      8          8           0        1.427761   -1.406515    0.109356
      9          6           0        0.574240   -0.727933   -0.885048
     10          1           0        1.955036    1.996814    0.897389
     11          1           0        2.764763    0.634485    0.092567
     12          1           0        2.055447    1.952461   -0.864660
     13          1           0       -0.502014    2.397168    0.402615
     14          1           0       -0.698075    1.796967   -1.240994
     15          1           0       -1.938973    0.762016    1.356201
     16          1           0       -2.793124    1.219688   -0.129004
     17          1           0       -0.783456   -2.296870   -0.046880
     18          1           0        0.527288   -0.745206    1.998578
     19          1           0        0.813562   -0.867449   -1.940698
 ---------------------------------------------------------------------

 SCF Done:  E(RB3LYP) =  -423.125621011     A.U. after    1 cycles

 The electronic state is 1-A.
 Alpha  occ. eigenvalues --  -19.14698 -19.13710 -10.24368 -10.23963 -10.23879
 Alpha  occ. eigenvalues --  -10.23431 -10.20681 -10.19016 -10.17467  -1.06856
 Alpha  occ. eigenvalues --   -1.03467  -0.81289  -0.76075  -0.71613  -0.65630
 Alpha  occ. eigenvalues --   -0.64014  -0.60937  -0.52170  -0.50807  -0.48507
 Alpha  occ. eigenvalues --   -0.47747  -0.45176  -0.43170  -0.41263  -0.39441
 Alpha  occ. eigenvalues --   -0.38559  -0.37174  -0.37075  -0.35030  -0.33217
 Alpha  occ. eigenvalues --   -0.30326  -0.30147  -0.25473  -0.23612
 Alpha virt. eigenvalues --    0.07107   0.09789   0.11406   0.11744   0.12389
 Alpha virt. eigenvalues --    0.13220   0.13828   0.14483   0.15801   0.16616
 Alpha virt. eigenvalues --    0.17442   0.17760   0.18636   0.19571   0.20395

 Mulliken charges:
               1
     1  C   -0.486822
     2  C    0.339233
     3  C   -0.308483
     4  C   -0.075593
     5  O   -0.265583
     6  C    0.123935
     7  C   -0.056490
     8  O   -0.310417
     9  C   -0.023064
    10  H    0.112304
    11  H    0.140398
    12  H    0.114284
    13  H    0.103667
    14  H    0.108674
    15  H    0.096469
    16  H    0.111578
    17  H    0.100487
    18  H    0.088710
    19  H    0.086713
 Sum of Mulliken charges =   0.00000

 Dipole moment (field-independent basis, Debye):
    X=             -0.4589    Y=              2.0310    Z=              0.2296  Tot=              2.0948
 Quadrupole moment (field-independent basis, Debye-Ang):
   XX=            -58.2345   YY=            -53.9060   ZZ=            -50.1086
   XY=              0.1923   XZ=             -1.3436   YZ=              0.2250

  Exact polarizability:  77.350  -0.359  77.014  -1.049   0.216  68.145
 Approx polarizability: 109.333  -3.465 111.065   0.152   0.826 109.633

                      1                      2                      3
                      A                      A                      A
 Frequencies --    188.9040               217.0526               235.8301
 Red. masses --      2.7237                 1.8849                 1.1244
 Frc consts  --      0.0573                 0.0523                 0.0368
 IR Inten    --      0.4996                 0.7325                 0.0963

                      4                      5                      6
                      A                      A                      A
 Frequencies --    316.8246               357.4929               414.1655
 Red. masses --      2.7739                 2.1936                 4.8630
 Frc consts  --      0.1641                 0.1652                 0.4915
 IR Inten    --      1.2485                 0.7186                 7.2279

                      7                      8                      9
                      A                      A                      A
 Frequencies --    428.5708               509.0899               581.8132
 Red. masses --      3.9013                 3.6101                 6.6080
 Frc consts  --      0.4222                 0.5513                 1.3179
 IR Inten    --      4.0726                 0.9106                 2.1308

                     10                     11                     12
                      A                      A                      A
 Frequencies --    658.1553               699.9879               763.3849
 Red. masses --      3.6013                 2.4636                 3.4679
 Frc consts  --      0.9191                 0.7112                 1.1907
 IR Inten    --      1.2615                 3.0582                 5.6198

                     13                     14                     15
                      A                      A                      A
 Frequencies --    810.2328               866.9823               876.2313
 Red. masses --      3.5684                 2.1306                 2.7968
 Frc consts  --      1.3802                 0.9436                 1.2652
 IR Inten    --     11.9898                 6.6608                17.9863

                     16                     17                     18
                      A                      A                      A
 Frequencies --    892.5631               916.4535               924.1702
 Red. masses --      2.9202                 2.1045                 2.2401
 Frc consts  --      1.3707                 1.0414                 1.1272
 IR Inten    --      3.6282                 1.6780                 5.0977

                     19                     20                     21
                      A                      A                      A
 Frequencies --    982.3357              1026.6829              1040.2638
 Red. masses --      1.9697                 1.3500                 2.3966
 Frc consts  --      1.1199                 0.8384                 1.5280
 IR Inten    --      3.0250                 0.7768                27.9245

                     22                     23                     24
                      A                      A                      A
 Frequencies --   1078.5470              1108.0436              1136.6097
 Red. masses --      1.6457                 3.3704                 3.1442
 Frc consts  --      1.1279                 2.4381                 2.3932
 IR Inten    --      1.0081                 1.6168                75.8623

                     25                     26                     27
                      A                      A                      A
 Frequencies --   1144.4044              1164.1838              1197.3266
 Red. masses --      1.4817                 1.8591                 1.8154
 Frc consts  --      1.1433                 1.4845                 1.5334
 IR Inten    --     19.5637                 8.2129                15.0924

                     28                     29                     30
                      A                      A                      A
 Frequencies --   1208.2241              1239.4046              1245.2481
 Red. masses --      2.4539                 2.0575                 1.6225
 Frc consts  --      2.1106                 1.8621                 1.4824
 IR Inten    --      6.3077                41.6493                12.7924

                     31                     32                     33
                      A                      A                      A
 Frequencies --   1263.4804              1274.3858              1318.0855
 Red. masses --      1.3084                 1.6999                 1.6117
 Frc consts  --      1.2306                 1.6266                 1.6497
 IR Inten    --      1.3820                35.8951                 6.1945

                     34                     35                     36
                      A                      A                      A
 Frequencies --   1362.2899              1376.5919              1401.6386
 Red. masses --      1.5078                 1.6033                 1.2758
 Frc consts  --      1.6487                 1.7900                 1.4767
 IR Inten    --     23.5287                 1.5215                 4.0207

                     37                     38                     39
                      A                      A                      A
 Frequencies --   1419.6707              1480.6356              1492.4668
 Red. masses --      1.3833                 1.0848                 1.0604
 Frc consts  --      1.6427                 1.4012                 1.3916
 IR Inten    --     17.9470                 2.5496                 2.1656

                     40                     41                     42
                      A                      A                      A
 Frequencies --   1504.0068              1509.6624              2978.5958
 Red. masses --      1.0489                 1.0952                 1.0720
 Frc consts  --      1.3980                 1.4706                 5.6035
 IR Inten    --      5.4381                 1.6473                46.3808

                     43                     44                     45
                      A                      A                      A
 Frequencies --   3024.1544              3031.2485              3066.2080
 Red. masses --      1.0580                 1.0408                 1.1011
 Frc consts  --      5.7009                 5.6344                 6.0991
 IR Inten    --     14.0993                41.9675                24.2607

                     46                     47                     48
                      A                      A                      A
 Frequencies --   3085.6308              3094.4296              3100.8295
 Red. masses --      1.1002                 1.0932                 1.0897
 Frc consts  --      6.1720                 6.1678                 6.1733
 IR Inten    --     22.8577                34.7334                83.1973

                     49                     50                     51
                      A                      A                      A
 Frequencies --   3105.8346              3127.8041              3137.8709
 Red. masses --      1.0915                 1.0919                 1.0977
 Frc consts  --      6.2033                 6.2937                 6.3682
 IR Inten    --      9.6032                29.8989                 9.8769

 - Thermochemistry -
 -------------------
 Temperature   298.150 Kelvin.  Pressure   1.00000 Atm.
 Atom     1 has atomic number  6 and mass  12.00000

 Molecular mass:   126.06808 amu.
 Principal axes and moments of inertia in atomic units:
                           1         2         3
     Eigenvalues --   661.51341 935.769171351.02779
           X            0.99915   0.04011  -0.00951
           Y           -0.04010   0.99920   0.00063
           Z            0.00953  -0.00025   0.99995
 This molecule is an asymmetric top.
 Rotational symmetry number  1.
 Warning -- assumption of classical behavior for rotation
           may cause significant error
 Rotational temperatures (Kelvin)      0.13093     0.09256     0.06411
 Rotational constants (GHZ):           2.72820     1.92862     1.33583
 Zero-point vibrational energy     420994.0 (Joules/Mol)
                                  100.61998 (Kcal/Mol)
 Warning -- explicit consideration of   9 degrees of freedom as
           vibrations may cause significant error
 Vibrational temperatures:    271.79   312.29   339.31   455.84   514.35
          (Kelvin)            595.89   616.62   732.47   837.10   946.94
                             1007.13  1098.34  1165.74  1247.39  1260.70
                             1284.20  1318.57  1329.67  1413.36  1477.17
                             1496.71  1551.79  1594.23  1635.33  1646.54
                             1675.00  1722.68  1738.36  1783.22  1791.63
                             1817.86  1833.55  1896.43  1960.03  1980.61
                             2016.64  2042.59  2130.30  2147.32  2163.93
                             2172.06  4285.53  4351.08  4361.29  4411.58
                             4439.53  4452.19  4461.40  4468.60  4500.21
                             4514.69

 Zero-point correction=                           0.160348 (Hartree/Particle)
 Thermal correction to Energy=                    0.167569
 Thermal correction to Enthalpy=                  0.168513
 Thermal correction to Gibbs Free Energy=         0.129191
 Sum of electronic and zero-point Energies=           -422.965273
 Sum of electronic and thermal Energies=              -422.958052
 Sum of electronic and thermal Enthalpies=            -422.957108
 Sum of electronic and thermal Free Energies=         -422.996430

                     E (Thermal)             CV                S
                      KCal/Mol        Cal/Mol-Kelvin    Cal/Mol-Kelvin
 Total                  105.151             29.743             82.759
 Electronic               0.000              0.000              0.000
 Translational            0.889              2.981             40.409
 Rotational               0.889              2.981             28.216
 Vibrational            103.374             23.781             14.135
 Vibration     1          0.633              1.855              2.239
 Vibration     2          0.646              1.815              1.984
 Vibration     3          0.655              1.786              1.834
 Vibration     4          0.704              1.641              1.326
 Vibration     5          0.733              1.560              1.133
 Vibration     6          0.778              1.439              0.912
 Vibration     7          0.790              1.408              0.863
 Vibration     8          0.864              1.230              0.636
 Vibration     9          0.939              1.071              0.482

 Optimization completed.
    -- Stationary point found.
 Normal termination of Gaussian 09 at Mon Jan 27 22:55:33 2020.
