 Gaussian 09, Revision D.01,
 Gaussian 09:  ES64L-G09RevD.01 24-Apr-2013

 -----------------------------
 # b3lyp 6-31G(2df,p) opt Freq
 -----------------------------

 -----
 titel
 -----
 Symbolic Z-matrix:
 Charge =  0 Multiplicity = 1

 SCF Done:  E(RB3LYP) =  -423.218669656     A.U. after   14 cycles
 SCF Done:  E(RB3LYP) =  -423.218669920     A.U. after    7 cycles
 SCF Done:  E(RB3LYP) =  -423.218670230     A.U. after    9 cycles
 SCF Done:  E(RB3LYP) =  -423.218670321     A.U. after    7 cycles
 SCF Done:  E(RB3LYP) =  -423.218670453     A.U. after    8 cycles
 SCF Done:  E(RB3LYP) =  -423.218670517     A.U. after    8 cycles
 SCF Done:  E(RB3LYP) =  -423.218670544     A.U. after    7 cycles
 SCF Done:  E(RB3LYP) =  -423.218670600     A.U. after    7 cycles
 Optimization completed.
    -- Stationary point found.
 Normal termination of Gaussian 09 at Mon Jan 27 11:47:52 2020.

 ----------------------------------------------------------------------
 #N Geom=AllCheck Guess=TCheck SCRF=Check GenChk RB3LYP/6-31G(2df,p) Fr
 eq
 ----------------------------------------------------------------------

 Structure from the checkpoint file:  "/scratch/puck/g09_3c38ddd9-cf91-48b6-8332-f486fac38fd9/Gau-22669.chk"
 -----
 titel
 -----
 Charge =  0 Multiplicity = 1

                         Standard orientation:
 ---------------------------------------------------------------------
 Center     Atomic      Atomic             Coordinates (Angstroms)
 Number     Number       Type             X           Y           Z
 ---------------------------------------------------------------------
      1          6           0        3.619908   -0.414626   -0.005375
      2          6           0        2.151046   -0.545841    0.347373
      3          8           0        1.441384    0.490016   -0.356620
      4          6           0        0.126280    0.569409   -0.130493
      5          6           0       -0.682987    1.639027    0.076310
      6          6           0       -2.014979    1.102032    0.151055
      7          6           0       -1.917113   -0.243196   -0.001274
      8          6           0       -2.898033   -1.358221    0.002905
      9          8           0       -0.595191   -0.585309   -0.184120
     10          1           0        3.767819   -0.528326   -1.082855
     11          1           0        4.004633    0.564168    0.293875
     12          1           0        4.198501   -1.188202    0.508051
     13          1           0        1.756497   -1.523859    0.051872
     14          1           0        1.984259   -0.422688    1.425784
     15          1           0       -0.369503    2.666027    0.161792
     16          1           0       -2.928651    1.654421    0.308763
     17          1           0       -2.887962   -1.914859   -0.941747
     18          1           0       -2.695606   -2.076695    0.806404
     19          1           0       -3.904257   -0.959147    0.150975
 ---------------------------------------------------------------------

 SCF Done:  E(RB3LYP) =  -423.218670600     A.U. after    1 cycles

 The electronic state is 1-A.
 Alpha  occ. eigenvalues --  -19.19050 -19.16657 -10.26738 -10.23856 -10.22147
 Alpha  occ. eigenvalues --  -10.18674 -10.18191 -10.16906 -10.16440  -1.11016
 Alpha  occ. eigenvalues --   -1.04749  -0.78925  -0.77958  -0.75036  -0.66957
 Alpha  occ. eigenvalues --   -0.62433  -0.59309  -0.54505  -0.53057  -0.48143
 Alpha  occ. eigenvalues --   -0.45804  -0.45034  -0.42501  -0.41197  -0.40304
 Alpha  occ. eigenvalues --   -0.39098  -0.38336  -0.37790  -0.36831  -0.36221
 Alpha  occ. eigenvalues --   -0.34599  -0.29898  -0.26484  -0.19115
 Alpha virt. eigenvalues --    0.03353   0.09088   0.10222   0.11343   0.12321
 Alpha virt. eigenvalues --    0.13008   0.15269   0.15823   0.16425   0.16966
 Alpha virt. eigenvalues --    0.17759   0.18323   0.19187   0.20910   0.22360

 Mulliken charges:
               1
     1  C   -0.385972
     2  C   -0.059810
     3  O   -0.278140
     4  C    0.411282
     5  C   -0.296468
     6  C   -0.254396
     7  C    0.353651
     8  C   -0.487727
     9  O   -0.222717
    10  H    0.132749
    11  H    0.130726
    12  H    0.120220
    13  H    0.121089
    14  H    0.105576
    15  H    0.107514
    16  H    0.103045
    17  H    0.133888
    18  H    0.131767
    19  H    0.133722
 Sum of Mulliken charges =   0.00000

 Dipole moment (field-independent basis, Debye):
    X=              0.1425    Y=             -0.8976    Z=              0.8204  Tot=              1.2244
 Quadrupole moment (field-independent basis, Debye-Ang):
   XX=            -45.9468   YY=            -51.2627   ZZ=            -54.6382
   XY=             -1.1345   XZ=              1.0370   YZ=              0.4618

  Exact polarizability: 107.238   0.736  83.827  -0.917   1.823  52.614
 Approx polarizability: 135.766  -0.829 133.124  -3.503   4.070  80.702

                      1                      2                      3
                      A                      A                      A
 Frequencies --     37.4552                59.7733               119.6037
 Red. masses --      2.1789                 2.7055                 2.6386
 Frc consts  --      0.0018                 0.0057                 0.0222
 IR Inten    --      3.2130                 0.4463                 1.4256

                      4                      5                      6
                      A                      A                      A
 Frequencies --    141.2818               213.4333               244.0110
 Red. masses --      1.1943                 3.1921                 1.1724
 Frc consts  --      0.0140                 0.0857                 0.0411
 IR Inten    --      0.4770                 2.0937                 0.3334

                      7                      8                      9
                      A                      A                      A
 Frequencies --    290.8930               336.5430               373.0707
 Red. masses --      2.8557                 3.5565                 4.3734
 Frc consts  --      0.1424                 0.2373                 0.3586
 IR Inten    --      0.2242                 0.4564                 3.7383

                     10                     11                     12
                      A                      A                      A
 Frequencies --    485.3684               625.4310               633.5980
 Red. masses --      4.1425                 3.8598                 4.6987
 Frc consts  --      0.5750                 0.8896                 1.1114
 IR Inten    --      1.2458                 0.5340                 3.2696

                     13                     14                     15
                      A                      A                      A
 Frequencies --    678.1957               742.1819               780.5453
 Red. masses --      5.3254                 3.6074                 1.3697
 Frc consts  --      1.4431                 1.1708                 0.4917
 IR Inten    --      1.0271                 7.5176                40.8826

                     16                     17                     18
                      A                      A                      A
 Frequencies --    815.2391               817.5921               898.6673
 Red. masses --      1.2763                 1.0979                 2.7753
 Frc consts  --      0.4998                 0.4324                 1.3206
 IR Inten    --      4.4141                 1.1015                16.0297

                     19                     20                     21
                      A                      A                      A
 Frequencies --    968.1873               980.7499              1021.3771
 Red. masses --      2.1321                 4.5244                 1.8141
 Frc consts  --      1.1775                 2.5640                 1.1150
 IR Inten    --     11.1765                 3.0971                 6.2994

                     22                     23                     24
                      A                      A                      A
 Frequencies --   1040.7504              1065.0060              1067.0695
 Red. masses --      1.7915                 1.4493                 3.6672
 Frc consts  --      1.1433                 0.9685                 2.4602
 IR Inten    --     21.5432                 1.9572                96.4728

                     25                     26                     27
                      A                      A                      A
 Frequencies --   1130.1704              1180.5276              1223.5692
 Red. masses --      2.1541                 1.5324                 1.6425
 Frc consts  --      1.6211                 1.2583                 1.4488
 IR Inten    --     21.8393                 4.6357                19.6724

                     28                     29                     30
                      A                      A                      A
 Frequencies --   1239.5846              1283.0872              1295.3806
 Red. masses --      4.9323                 3.4334                 1.2556
 Frc consts  --      4.4653                 3.3303                 1.2413
 IR Inten    --     42.7472               133.5112                35.4184

                     31                     32                     33
                      A                      A                      A
 Frequencies --   1382.9109              1398.3988              1416.0218
 Red. masses --      2.8248                 1.3268                 1.2813
 Frc consts  --      3.1829                 1.5287                 1.5137
 IR Inten    --     27.0189                 8.6611                 2.7079

                     34                     35                     36
                      A                      A                      A
 Frequencies --   1420.8908              1470.9753              1483.3925
 Red. masses --      1.3695                 1.0429                 1.0397
 Frc consts  --      1.6291                 1.3295                 1.3479
 IR Inten    --     42.4901                 5.0687                 4.5285

                     37                     38                     39
                      A                      A                      A
 Frequencies --   1493.8063              1500.4912              1523.1397
 Red. masses --      1.0943                 1.0493                 1.0952
 Frc consts  --      1.4387                 1.3919                 1.4970
 IR Inten    --     12.4506                 2.4222                10.5167

                     40                     41                     42
                      A                      A                      A
 Frequencies --   1631.5996              1673.8229              3017.0372
 Red. masses --      7.2351                 6.9754                 1.0616
 Frc consts  --     11.3481                11.5144                 5.6934
 IR Inten    --    115.0135               148.0120                29.9949

                     43                     44                     45
                      A                      A                      A
 Frequencies --   3022.9059              3047.5923              3069.6805
 Red. masses --      1.0387                 1.0348                 1.1002
 Frc consts  --      5.5924                 5.6627                 6.1083
 IR Inten    --     42.5409                16.3459                19.1367

                     46                     47                     48
                      A                      A                      A
 Frequencies --   3070.9451              3122.5149              3124.4821
 Red. masses --      1.1013                 1.1013                 1.0974
 Frc consts  --      6.1190                 6.3265                 6.3121
 IR Inten    --     16.4712                21.0560                10.9501

                     49                     50                     51
                      A                      A                      A
 Frequencies --   3127.0953              3250.4941              3274.2884
 Red. masses --      1.1033                 1.0945                 1.0997
 Frc consts  --      6.3567                 6.8131                 6.9466
 IR Inten    --     27.1057                 7.7480                 1.2357

 - Thermochemistry -
 -------------------
 Temperature   298.150 Kelvin.  Pressure   1.00000 Atm.
 Atom     1 has atomic number  6 and mass  12.00000

 Molecular mass:   126.06808 amu.
 Principal axes and moments of inertia in atomic units:
                           1         2         3
     Eigenvalues --   434.443251985.542802349.83365
           X            1.00000   0.00165   0.00219
           Y           -0.00166   0.99999   0.00321
           Z           -0.00218  -0.00322   0.99999
 This molecule is an asymmetric top.
 Rotational symmetry number  1.
 Warning -- assumption of classical behavior for rotation
           may cause significant error
 Rotational temperatures (Kelvin)      0.19937     0.04362     0.03686
 Rotational constants (GHZ):           4.15415     0.90894     0.76803
 Zero-point vibrational energy     414570.8 (Joules/Mol)
                                   99.08480 (Kcal/Mol)
 Warning -- explicit consideration of  10 degrees of freedom as
           vibrations may cause significant error
 Vibrational temperatures:     53.89    86.00   172.08   203.27   307.08
          (Kelvin)            351.08   418.53   484.21   536.76   698.34
                              899.85   911.61   975.77  1067.83  1123.03
                             1172.95  1176.33  1292.98  1393.00  1411.08
                             1469.53  1497.41  1532.30  1535.27  1626.06
                             1698.51  1760.44  1783.48  1846.07  1863.76
                             1989.70  2011.98  2037.34  2044.34  2116.40
                             2134.27  2149.25  2158.87  2191.46  2347.50
                             2408.25  4340.84  4349.28  4384.80  4416.58
                             4418.40  4492.60  4495.43  4499.19  4676.73
                             4710.96

 Zero-point correction=                           0.157902 (Hartree/Particle)
 Thermal correction to Energy=                    0.167331
 Thermal correction to Enthalpy=                  0.168276
 Thermal correction to Gibbs Free Energy=         0.122408
 Sum of electronic and zero-point Energies=           -423.060769
 Sum of electronic and thermal Energies=              -423.051339
 Sum of electronic and thermal Enthalpies=            -423.050395
 Sum of electronic and thermal Free Energies=         -423.096263

                     E (Thermal)             CV                S
                      KCal/Mol        Cal/Mol-Kelvin    Cal/Mol-Kelvin
 Total                  105.002             33.614             96.537
 Electronic               0.000              0.000              0.000
 Translational            0.889              2.981             40.409
 Rotational               0.889              2.981             29.096
 Vibrational            103.225             27.653             27.033
 Vibration     1          0.594              1.982              5.389
 Vibration     2          0.597              1.973              4.465
 Vibration     3          0.609              1.933              3.107
 Vibration     4          0.615              1.912              2.786
 Vibration     5          0.644              1.820              2.014
 Vibration     6          0.659              1.773              1.773
 Vibration     7          0.687              1.691              1.469
 Vibration     8          0.717              1.603              1.228
 Vibration     9          0.744              1.527              1.067
 Vibration    10          0.841              1.282              0.696

 Optimization completed.
    -- Stationary point found.
 Normal termination of Gaussian 09 at Mon Jan 27 12:26:59 2020.
