 Gaussian 09, Revision D.01,
 Gaussian 09:  ES64L-G09RevD.01 24-Apr-2013

 -----------------------------
 # b3lyp 6-31G(2df,p) opt Freq
 -----------------------------

 -----
 titel
 -----
 Symbolic Z-matrix:
 Charge =  0 Multiplicity = 1

 SCF Done:  E(RB3LYP) =  -423.140238166     A.U. after   13 cycles
 Optimization completed.
    -- Stationary point found.
 Normal termination of Gaussian 09 at Mon Jan 27 22:06:20 2020.

 ----------------------------------------------------------------------
 #N Geom=AllCheck Guess=TCheck SCRF=Check GenChk RB3LYP/6-31G(2df,p) Fr
 eq
 ----------------------------------------------------------------------

 Structure from the checkpoint file:  "/scratch/puck/g09_b6f81be6-a54d-400f-be66-23f93b81124e/Gau-46858.chk"
 -----
 titel
 -----
 Charge =  0 Multiplicity = 1

                         Standard orientation:
 ---------------------------------------------------------------------
 Center     Atomic      Atomic             Coordinates (Angstroms)
 Number     Number       Type             X           Y           Z
 ---------------------------------------------------------------------
      1          8           0       -2.680244   -0.473336   -0.133139
      2          6           0       -1.376794   -0.545236    0.400770
      3          6           0       -0.718722    0.822902    0.659222
      4          6           0       -0.228501    0.864611   -0.832927
      5          6           0        1.106206    1.465590   -0.370360
      6          6           0        0.838787    0.624868    0.904821
      7          6           0        0.977970   -0.820498    0.355985
      8          8           0        2.185570   -1.103560   -0.325989
      9          6           0       -0.208159   -0.714815   -0.615095
     10          1           0       -2.696736    0.214674   -0.807324
     11          1           0       -1.437764   -1.275262    1.213643
     12          1           0       -1.222912    1.649325    1.161006
     13          1           0       -0.806802    1.264319   -1.665776
     14          1           0        2.017034    1.260734   -0.934889
     15          1           0        1.002873    2.538033   -0.181326
     16          1           0        1.308176    0.855842    1.862237
     17          1           0        0.798311   -1.577681    1.132126
     18          1           0        2.905183   -1.068726    0.313174
     19          1           0       -0.254695   -1.430625   -1.434351
 ---------------------------------------------------------------------

 SCF Done:  E(RB3LYP) =  -423.140238166     A.U. after    1 cycles

 The electronic state is 1-A.
 Alpha  occ. eigenvalues --  -19.13818 -19.13524 -10.23170 -10.22901 -10.19384
 Alpha  occ. eigenvalues --  -10.19278 -10.19017 -10.18455 -10.17911  -1.02376
 Alpha  occ. eigenvalues --   -1.01829  -0.90406  -0.74407  -0.69833  -0.66496
 Alpha  occ. eigenvalues --   -0.61478  -0.55687  -0.53143  -0.51389  -0.51261
 Alpha  occ. eigenvalues --   -0.48427  -0.44699  -0.44180  -0.39506  -0.37253
 Alpha  occ. eigenvalues --   -0.36908  -0.36858  -0.33832  -0.32712  -0.30942
 Alpha  occ. eigenvalues --   -0.29975  -0.28124  -0.26309  -0.24826
 Alpha virt. eigenvalues --    0.07006   0.07834   0.10796   0.10868   0.12371
 Alpha virt. eigenvalues --    0.13343   0.15562   0.15890   0.16859   0.17319
 Alpha virt. eigenvalues --    0.18991   0.19352   0.20041   0.21583   0.22012

 Mulliken charges:
               1
     1  O   -0.457213
     2  C    0.164807
     3  C   -0.073509
     4  C   -0.060775
     5  C   -0.232018
     6  C   -0.111983
     7  C    0.153219
     8  O   -0.446233
     9  C   -0.102562
    10  H    0.280257
    11  H    0.077478
    12  H    0.070328
    13  H    0.063491
    14  H    0.107091
    15  H    0.092828
    16  H    0.058124
    17  H    0.063951
    18  H    0.279768
    19  H    0.072951
 Sum of Mulliken charges =   0.00000

 Dipole moment (field-independent basis, Debye):
    X=              1.2359    Y=              1.2441    Z=              0.8197  Tot=              1.9358
 Quadrupole moment (field-independent basis, Debye-Ang):
   XX=            -55.1705   YY=            -53.3519   ZZ=            -51.5990
   XY=             -3.0432   XZ=              5.7071   YZ=             -2.3210

  Exact polarizability:  81.902   0.547  72.854   1.866  -1.705  67.616
 Approx polarizability: 115.692  -0.045 107.260   1.837  -2.024 107.755

                      1                      2                      3
                      A                      A                      A
 Frequencies --    215.0110               227.7491               252.6141
 Red. masses --      3.3813                 1.8595                 1.8509
 Frc consts  --      0.0921                 0.0568                 0.0696
 IR Inten    --      7.2581                17.9204                36.8796

                      4                      5                      6
                      A                      A                      A
 Frequencies --    274.2601               302.4997               362.2625
 Red. masses --      1.4506                 2.2106                 2.9908
 Frc consts  --      0.0643                 0.1192                 0.2313
 IR Inten    --     56.1658                66.2679                 4.4313

                      7                      8                      9
                      A                      A                      A
 Frequencies --    440.7547               485.0171               544.2013
 Red. masses --      2.7269                 5.3396                 3.2519
 Frc consts  --      0.3121                 0.7401                 0.5674
 IR Inten    --     15.0489                 0.9758                 0.9328

                     10                     11                     12
                      A                      A                      A
 Frequencies --    689.1014               746.5540               818.8726
 Red. masses --      3.5026                 3.5540                 1.9619
 Frc consts  --      0.9800                 1.1670                 0.7751
 IR Inten    --      1.7973                 8.2314                 3.8093

                     13                     14                     15
                      A                      A                      A
 Frequencies --    827.4668               849.6709               859.8312
 Red. masses --      3.0314                 2.2650                 2.5628
 Frc consts  --      1.2229                 0.9634                 1.1163
 IR Inten    --      3.2641                 0.0942                 8.2148

                     16                     17                     18
                      A                      A                      A
 Frequencies --    894.9904               936.8758               965.7398
 Red. masses --      2.5311                 1.9430                 2.3852
 Frc consts  --      1.1945                 1.0048                 1.3107
 IR Inten    --      7.3839                 2.1961                10.1317

                     19                     20                     21
                      A                      A                      A
 Frequencies --    966.6675               992.5288              1006.6063
 Red. masses --      2.0199                 1.9963                 1.4627
 Frc consts  --      1.1121                 1.1587                 0.8732
 IR Inten    --      2.4484                 0.5889                13.4162

                     22                     23                     24
                      A                      A                      A
 Frequencies --   1038.5590              1065.3557              1068.3637
 Red. masses --      2.5127                 3.2958                 1.5823
 Frc consts  --      1.5968                 2.2040                 1.0641
 IR Inten    --      2.7514               146.4433                 0.6734

                     25                     26                     27
                      A                      A                      A
 Frequencies --   1101.4444              1133.2509              1148.9804
 Red. masses --      1.2746                 2.3963                 1.8702
 Frc consts  --      0.9111                 1.8132                 1.4547
 IR Inten    --      0.8008                19.2769                10.5097

                     28                     29                     30
                      A                      A                      A
 Frequencies --   1176.8565              1189.2277              1202.1566
 Red. masses --      1.5334                 1.6749                 1.5071
 Frc consts  --      1.2513                 1.3956                 1.2832
 IR Inten    --      7.6751                25.2265                40.6064

                     31                     32                     33
                      A                      A                      A
 Frequencies --   1227.4270              1247.3346              1249.7065
 Red. masses --      1.3315                 1.5220                 1.5138
 Frc consts  --      1.1819                 1.3952                 1.3929
 IR Inten    --     16.8204                 0.1428                 2.7662

                     34                     35                     36
                      A                      A                      A
 Frequencies --   1280.6072              1286.2036              1288.8302
 Red. masses --      1.6202                 1.4824                 1.7178
 Frc consts  --      1.5655                 1.4449                 1.6812
 IR Inten    --      2.4880                44.9200                 4.5845

                     37                     38                     39
                      A                      A                      A
 Frequencies --   1312.2623              1349.5060              1429.4826
 Red. masses --      1.7151                 1.4532                 1.3710
 Frc consts  --      1.7401                 1.5592                 1.6506
 IR Inten    --      3.0099                19.9349                39.1046

                     40                     41                     42
                      A                      A                      A
 Frequencies --   1448.3096              1488.2512              2994.7974
 Red. masses --      1.2947                 1.1181                 1.0842
 Frc consts  --      1.6001                 1.4591                 5.7290
 IR Inten    --     49.7586                 3.5186                44.3768

                     43                     44                     45
                      A                      A                      A
 Frequencies --   3060.7204              3064.1069              3100.4192
 Red. masses --      1.0589                 1.0853                 1.0889
 Frc consts  --      5.8443                 6.0035                 6.1670
 IR Inten    --     43.6543                48.6255                37.4155

                     46                     47                     48
                      A                      A                      A
 Frequencies --   3107.0443              3117.7215              3126.1393
 Red. masses --      1.0879                 1.0918                 1.1063
 Frc consts  --      6.1880                 6.2525                 6.3700
 IR Inten    --     52.1066                48.3908                17.3118

                     49                     50                     51
                      A                      A                      A
 Frequencies --   3134.9891              3805.8299              3807.0903
 Red. masses --      1.0914                 1.0653                 1.0661
 Frc consts  --      6.3201                 9.0912                 9.1036
 IR Inten    --     21.6816                 8.3338                21.1303

 - Thermochemistry -
 -------------------
 Temperature   298.150 Kelvin.  Pressure   1.00000 Atm.
 Atom     1 has atomic number  8 and mass  15.99491

 Molecular mass:   126.06808 amu.
 Principal axes and moments of inertia in atomic units:
                           1         2         3
     Eigenvalues --   564.428131188.069331402.20168
           X            0.99992   0.00311   0.01224
           Y           -0.00270   0.99944  -0.03321
           Z           -0.01234   0.03317   0.99937
 This molecule is an asymmetric top.
 Rotational symmetry number  1.
 Warning -- assumption of classical behavior for rotation
           may cause significant error
 Rotational temperatures (Kelvin)      0.15345     0.07290     0.06177
 Rotational constants (GHZ):           3.19747     1.51905     1.28708
 Zero-point vibrational energy     422941.2 (Joules/Mol)
                                  101.08537 (Kcal/Mol)
 Warning -- explicit consideration of   9 degrees of freedom as
           vibrations may cause significant error
 Vibrational temperatures:    309.35   327.68   363.45   394.60   435.23
          (Kelvin)            521.21   634.15   697.83   782.98   991.46
                             1074.12  1178.17  1190.54  1222.49  1237.10
                             1287.69  1347.95  1389.48  1390.82  1428.03
                             1448.28  1494.25  1532.81  1537.14  1584.73
                             1630.49  1653.12  1693.23  1711.03  1729.63
                             1765.99  1794.63  1798.05  1842.51  1850.56
                             1854.34  1888.05  1941.64  2056.70  2083.79
                             2141.26  4308.84  4403.69  4408.56  4460.81
                             4470.34  4485.70  4497.81  4510.54  5475.73
                             5477.55

 Zero-point correction=                           0.161090 (Hartree/Particle)
 Thermal correction to Energy=                    0.168448
 Thermal correction to Enthalpy=                  0.169393
 Thermal correction to Gibbs Free Energy=         0.129830
 Sum of electronic and zero-point Energies=           -422.979148
 Sum of electronic and thermal Energies=              -422.971790
 Sum of electronic and thermal Enthalpies=            -422.970846
 Sum of electronic and thermal Free Energies=         -423.010409

                     E (Thermal)             CV                S
                      KCal/Mol        Cal/Mol-Kelvin    Cal/Mol-Kelvin
 Total                  105.703             30.489             83.268
 Electronic               0.000              0.000              0.000
 Translational            0.889              2.981             40.409
 Rotational               0.889              2.981             28.332
 Vibrational            103.926             24.528             14.527
 Vibration     1          0.645              1.818              2.001
 Vibration     2          0.651              1.799              1.897
 Vibration     3          0.664              1.758              1.712
 Vibration     4          0.677              1.721              1.569
 Vibration     5          0.694              1.669              1.403
 Vibration     6          0.736              1.550              1.112
 Vibration     7          0.801              1.381              0.824
 Vibration     8          0.841              1.283              0.697
 Vibration     9          0.899              1.152              0.556

 Normal termination of Gaussian 09 at Mon Jan 27 22:59:02 2020.
