 Gaussian 09, Revision D.01,
 Gaussian 09:  ES64L-G09RevD.01 24-Apr-2013

 -----------------------------
 # b3lyp 6-31G(2df,p) opt Freq
 -----------------------------

 -----
 titel
 -----
 Symbolic Z-matrix:
 Charge =  0 Multiplicity = 1

 SCF Done:  E(RB3LYP) =  -423.115138092     A.U. after   12 cycles
 Optimization completed.
    -- Stationary point found.
 Normal termination of Gaussian 09 at Mon Jan 27 22:07:16 2020.

 ----------------------------------------------------------------------
 #N Geom=AllCheck Guess=TCheck SCRF=Check GenChk RB3LYP/6-31G(2df,p) Fr
 eq
 ----------------------------------------------------------------------

 Structure from the checkpoint file:  "/scratch/puck/g09_6931eff9-6147-4232-9a37-d345ad97edd9/Gau-159536.chk"
 -----
 titel
 -----
 Charge =  0 Multiplicity = 1

                         Standard orientation:
 ---------------------------------------------------------------------
 Center     Atomic      Atomic             Coordinates (Angstroms)
 Number     Number       Type             X           Y           Z
 ---------------------------------------------------------------------
      1          6           0        2.526055   -0.757047    0.001429
      2          6           0        1.222218   -0.008569    0.002859
      3          6           0        1.011338    1.529581   -0.007532
      4          6           0       -0.400143    0.925523   -0.007894
      5          8           0       -1.641870    1.547087   -0.091684
      6          6           0       -0.008103   -0.250232   -0.951817
      7          6           0       -0.626556   -1.293082    0.005605
      8          8           0       -2.016845   -1.476300    0.008229
      9          6           0       -0.001272   -0.250699    0.960691
     10          1           0        3.124197   -0.504376    0.883911
     11          1           0        2.366477   -1.840336    0.005045
     12          1           0        3.120268   -0.509466   -0.884992
     13          1           0        1.325444    2.071324    0.892216
     14          1           0        1.322166    2.062618   -0.912393
     15          1           0       -1.760220    2.103000    0.686893
     16          1           0        0.007991   -0.214430   -2.042632
     17          1           0       -0.177965   -2.290911    0.004756
     18          1           0       -2.420336   -0.599740   -0.037476
     19          1           0        0.020474   -0.216832    2.052279
 ---------------------------------------------------------------------

 SCF Done:  E(RB3LYP) =  -423.115138092     A.U. after    1 cycles

 The electronic state is 1-A.
 Alpha  occ. eigenvalues --  -19.16043 -19.12334 -10.24989 -10.22734 -10.21004
 Alpha  occ. eigenvalues --  -10.18954 -10.18831 -10.18459 -10.18206  -1.04538
 Alpha  occ. eigenvalues --   -1.00965  -0.93028  -0.73958  -0.72540  -0.64072
 Alpha  occ. eigenvalues --   -0.61742  -0.59803  -0.51969  -0.50968  -0.49662
 Alpha  occ. eigenvalues --   -0.45406  -0.44735  -0.42634  -0.40926  -0.40329
 Alpha  occ. eigenvalues --   -0.37787  -0.37270  -0.36710  -0.32427  -0.30421
 Alpha  occ. eigenvalues --   -0.29683  -0.28191  -0.25992  -0.24549
 Alpha virt. eigenvalues --    0.06825   0.09440   0.11501   0.12326   0.12682
 Alpha virt. eigenvalues --    0.13732   0.13992   0.14332   0.16552   0.16776
 Alpha virt. eigenvalues --    0.17798   0.18142   0.18973   0.20781   0.22296

 Mulliken charges:
               1
     1  C   -0.515906
     2  C    0.343848
     3  C   -0.369927
     4  C    0.378003
     5  O   -0.481422
     6  C   -0.174812
     7  C    0.150812
     8  O   -0.460193
     9  C   -0.208820
    10  H    0.121275
    11  H    0.126364
    12  H    0.122552
    13  H    0.085890
    14  H    0.095762
    15  H    0.287014
    16  H    0.071986
    17  H    0.076841
    18  H    0.286315
    19  H    0.064418
 Sum of Mulliken charges =   0.00000

 Dipole moment (field-independent basis, Debye):
    X=              1.5771    Y=              1.7984    Z=              1.0466  Tot=              2.6109
 Quadrupole moment (field-independent basis, Debye-Ang):
   XX=            -54.9299   YY=            -53.9061   ZZ=            -51.5244
   XY=             -5.1077   XZ=             -2.2728   YZ=              2.9508

  Exact polarizability:  82.399  -0.140  77.103  -0.721   1.197  67.065
 Approx polarizability: 115.003  -0.358 111.872  -0.097   1.375 107.246

                      1                      2                      3
                      A                      A                      A
 Frequencies --    166.8475               211.2665               221.5884
 Red. masses --      4.7082                 1.1764                 2.0665
 Frc consts  --      0.0772                 0.0309                 0.0598
 IR Inten    --      1.2148                 1.3721                 3.5345

                      4                      5                      6
                      A                      A                      A
 Frequencies --    240.5327               274.8556               316.9894
 Red. masses --      2.6093                 2.6227                 1.4000
 Frc consts  --      0.0889                 0.1167                 0.0829
 IR Inten    --      2.4300                 5.6305                59.8050

                      7                      8                      9
                      A                      A                      A
 Frequencies --    401.1031               430.3411               459.4124
 Red. masses --      4.1158                 2.4222                 1.6305
 Frc consts  --      0.3901                 0.2643                 0.2028
 IR Inten    --     10.2792                 5.9146                11.9851

                     10                     11                     12
                      A                      A                      A
 Frequencies --    512.9028               542.7975               586.7313
 Red. masses --      1.3685                 3.7006                 4.9407
 Frc consts  --      0.2121                 0.6424                 1.0021
 IR Inten    --     79.3299                 2.1795                 3.0675

                     13                     14                     15
                      A                      A                      A
 Frequencies --    686.1433               706.6222               794.6403
 Red. masses --      3.7116                 3.4993                 2.5770
 Frc consts  --      1.0295                 1.0295                 0.9588
 IR Inten    --      4.6643                 1.3458                 4.3148

                     16                     17                     18
                      A                      A                      A
 Frequencies --    863.8053               889.1206               897.3021
 Red. masses --      2.5103                 2.1191                 2.0400
 Frc consts  --      1.1036                 0.9870                 0.9677
 IR Inten    --      2.1085                 4.1071                 9.1312

                     19                     20                     21
                      A                      A                      A
 Frequencies --    912.3761              1008.7460              1021.2805
 Red. masses --      2.0063                 1.3378                 2.7868
 Frc consts  --      0.9840                 0.8021                 1.7126
 IR Inten    --      4.4218                 0.8428                15.1564

                     22                     23                     24
                      A                      A                      A
 Frequencies --   1039.1242              1066.0973              1078.9673
 Red. masses --      1.2932                 2.0555                 1.5766
 Frc consts  --      0.8227                 1.3765                 1.0814
 IR Inten    --      0.3274                 3.2061                 6.2469

                     25                     26                     27
                      A                      A                      A
 Frequencies --   1084.4664              1104.9706              1135.8011
 Red. masses --      3.0573                 2.5412                 1.6408
 Frc consts  --      2.1185                 1.8281                 1.2471
 IR Inten    --     72.0349                57.6380                12.6958

                     28                     29                     30
                      A                      A                      A
 Frequencies --   1148.7040              1179.8612              1201.5532
 Red. masses --      1.5815                 1.7829                 2.1645
 Frc consts  --      1.2295                 1.4623                 1.8412
 IR Inten    --     12.2200                16.0395               101.5176

                     31                     32                     33
                      A                      A                      A
 Frequencies --   1226.4113              1261.4693              1281.8937
 Red. masses --      1.7482                 2.3278                 2.1097
 Frc consts  --      1.5493                 2.1825                 2.0426
 IR Inten    --      1.2282               120.5238                72.3522

                     34                     35                     36
                      A                      A                      A
 Frequencies --   1323.7556              1333.4644              1386.1088
 Red. masses --      1.6650                 1.9816                 2.3680
 Frc consts  --      1.7190                 2.0760                 2.6806
 IR Inten    --     33.9609                 3.4986                 9.2338

                     37                     38                     39
                      A                      A                      A
 Frequencies --   1416.5348              1465.0103              1488.4455
 Red. masses --      1.3961                 1.2672                 1.0455
 Frc consts  --      1.6505                 1.6025                 1.3647
 IR Inten    --      2.7482               106.4793                 4.2872

                     40                     41                     42
                      A                      A                      A
 Frequencies --   1495.6225              1516.8247              3026.1962
 Red. masses --      1.0500                 1.2560                 1.0465
 Frc consts  --      1.3838                 1.7026                 5.6463
 IR Inten    --      2.2814                 3.9927                38.8845

                     43                     44                     45
                      A                      A                      A
 Frequencies --   3028.7213              3068.9766              3087.7120
 Red. masses --      1.0441                 1.0846                 1.1087
 Frc consts  --      5.6430                 6.0186                 6.2280
 IR Inten    --     44.4872                46.6339                23.3959

                     46                     47                     48
                      A                      A                      A
 Frequencies --   3090.6309              3091.6130              3097.9098
 Red. masses --      1.0907                 1.1012                 1.1006
 Frc consts  --      6.1383                 6.2013                 6.2234
 IR Inten    --     77.5812                17.6576                23.5400

                     49                     50                     51
                      A                      A                      A
 Frequencies --   3103.5627              3767.0838              3798.9169
 Red. masses --      1.0923                 1.0656                 1.0657
 Frc consts  --      6.1987                 8.9092                 9.0619
 IR Inten    --     19.8285                40.9964                29.1790

 - Thermochemistry -
 -------------------
 Temperature   298.150 Kelvin.  Pressure   1.00000 Atm.
 Atom     1 has atomic number  6 and mass  12.00000

 Molecular mass:   126.06808 amu.
 Principal axes and moments of inertia in atomic units:
                           1         2         3
     Eigenvalues --   702.640771047.962811506.30760
           X            0.99919  -0.03983  -0.00491
           Y            0.03988   0.99914   0.01104
           Z            0.00446  -0.01123   0.99993
 This molecule is an asymmetric top.
 Rotational symmetry number  1.
 Warning -- assumption of classical behavior for rotation
           may cause significant error
 Rotational temperatures (Kelvin)      0.12327     0.08265     0.05750
 Rotational constants (GHZ):           2.56851     1.72214     1.19812
 Zero-point vibrational energy     415952.4 (Joules/Mol)
                                   99.41501 (Kcal/Mol)
 Warning -- explicit consideration of  12 degrees of freedom as
           vibrations may cause significant error
 Vibrational temperatures:    240.06   303.96   318.82   346.07   395.46
          (Kelvin)            456.08   577.10   619.16   660.99   737.95
                              780.96   844.17   987.21  1016.67  1143.31
                             1242.82  1279.24  1291.02  1312.70  1451.36
                             1469.39  1495.07  1533.87  1552.39  1560.30
                             1589.80  1634.16  1652.73  1697.56  1728.76
                             1764.53  1814.97  1844.36  1904.59  1918.56
                             1994.30  2038.08  2107.82  2141.54  2151.86
                             2182.37  4354.02  4357.65  4415.57  4442.52
                             4446.72  4448.14  4457.20  4465.33  5419.99
                             5465.79

 Zero-point correction=                           0.158428 (Hartree/Particle)
 Thermal correction to Energy=                    0.166632
 Thermal correction to Enthalpy=                  0.167576
 Thermal correction to Gibbs Free Energy=         0.126407
 Sum of electronic and zero-point Energies=           -422.956710
 Sum of electronic and thermal Energies=              -422.948506
 Sum of electronic and thermal Enthalpies=            -422.947562
 Sum of electronic and thermal Free Energies=         -422.988731

                     E (Thermal)             CV                S
                      KCal/Mol        Cal/Mol-Kelvin    Cal/Mol-Kelvin
 Total                  104.563             33.105             86.647
 Electronic               0.000              0.000              0.000
 Translational            0.889              2.981             40.409
 Rotational               0.889              2.981             28.497
 Vibrational            102.786             27.144             17.742
 Vibration     1          0.624              1.883              2.471
 Vibration     2          0.643              1.824              2.033
 Vibration     3          0.648              1.808              1.946
 Vibration     4          0.658              1.778              1.799
 Vibration     5          0.677              1.720              1.565
 Vibration     6          0.704              1.641              1.326
 Vibration     7          0.767              1.468              0.959
 Vibration     8          0.792              1.404              0.858
 Vibration     9          0.817              1.340              0.768
 Vibration    10          0.868              1.221              0.627
 Vibration    11          0.898              1.155              0.559
 Vibration    12          0.944              1.060              0.473

 Optimization completed.
    -- Stationary point found.
 Normal termination of Gaussian 09 at Mon Jan 27 23:00:25 2020.
