 Gaussian 09, Revision D.01,
 Gaussian 09:  ES64L-G09RevD.01 24-Apr-2013

 -----------------------------
 # b3lyp 6-31G(2df,p) opt Freq
 -----------------------------

 -----
 titel
 -----
 Symbolic Z-matrix:
 Charge =  0 Multiplicity = 1

 SCF Done:  E(RB3LYP) =  -423.137505284     A.U. after   12 cycles
 Optimization completed.
    -- Stationary point found.
 Normal termination of Gaussian 09 at Tue Jan 28 12:09:28 2020.

 ----------------------------------------------------------------------
 #N Geom=AllCheck Guess=TCheck SCRF=Check GenChk RB3LYP/6-31G(2df,p) Fr
 eq
 ----------------------------------------------------------------------

 Structure from the checkpoint file:  "/scratch/puck/g09_023fa540-d975-413d-8086-33fb1fec88da/Gau-18858.chk"
 -----
 titel
 -----
 Charge =  0 Multiplicity = 1

                         Standard orientation:
 ---------------------------------------------------------------------
 Center     Atomic      Atomic             Coordinates (Angstroms)
 Number     Number       Type             X           Y           Z
 ---------------------------------------------------------------------
      1          6           0       -2.748145   -0.042276   -0.415521
      2          8           0       -1.794794   -0.026827    0.634154
      3          6           0       -0.481014    0.036491    0.199758
      4          6           0        0.066559    1.358959   -0.347370
      5          8           0        1.456900    1.355188   -0.011235
      6          6           0        1.792448    0.018700    0.341924
      7          6           0        1.559385   -0.976808   -0.845523
      8          6           0        0.178818   -1.264093   -0.254340
      9          6           0        0.566166   -0.587499    1.061995
     10          1           0       -2.574337   -0.878488   -1.106413
     11          1           0       -3.729093   -0.158888    0.050269
     12          1           0       -2.740061    0.894097   -0.990796
     13          1           0       -0.058604    1.466836   -1.433522
     14          1           0       -0.425237    2.205599    0.146194
     15          1           0        2.769729    0.023930    0.821359
     16          1           0        1.633616   -0.554200   -1.852980
     17          1           0        2.214466   -1.849308   -0.768574
     18          1           0       -0.419251   -2.157929   -0.387831
     19          1           0        0.426620   -0.879375    2.093403
 ---------------------------------------------------------------------

 SCF Done:  E(RB3LYP) =  -423.137505284     A.U. after    1 cycles

 The electronic state is 1-A.
 Alpha  occ. eigenvalues --  -19.15247 -19.13427 -10.24102 -10.23500 -10.22973
 Alpha  occ. eigenvalues --  -10.22422 -10.19511 -10.18605 -10.18384  -1.05262
 Alpha  occ. eigenvalues --   -1.03137  -0.88337  -0.75102  -0.69314  -0.67407
 Alpha  occ. eigenvalues --   -0.63265  -0.56848  -0.53462  -0.53228  -0.47391
 Alpha  occ. eigenvalues --   -0.46943  -0.45573  -0.44596  -0.43276  -0.41138
 Alpha  occ. eigenvalues --   -0.39437  -0.37820  -0.36773  -0.34432  -0.31447
 Alpha  occ. eigenvalues --   -0.28747  -0.27012  -0.24992  -0.23830
 Alpha virt. eigenvalues --    0.07784   0.09585   0.10606   0.11514   0.12972
 Alpha virt. eigenvalues --    0.14368   0.14951   0.15691   0.15813   0.16431
 Alpha virt. eigenvalues --    0.17574   0.17787   0.19406   0.20203   0.21558

 Mulliken charges:
               1
     1  C   -0.257473
     2  O   -0.294123
     3  C    0.419971
     4  C   -0.159435
     5  O   -0.262531
     6  C    0.078077
     7  C   -0.257318
     8  C   -0.139427
     9  C   -0.165101
    10  H    0.111714
    11  H    0.130117
    12  H    0.114472
    13  H    0.095012
    14  H    0.110384
    15  H    0.087139
    16  H    0.096637
    17  H    0.104881
    18  H    0.088983
    19  H    0.098021
 Sum of Mulliken charges =   0.00000

 Dipole moment (field-independent basis, Debye):
    X=             -0.8738    Y=             -1.2233    Z=             -0.8671  Tot=              1.7354
 Quadrupole moment (field-independent basis, Debye-Ang):
   XX=            -50.8951   YY=            -54.1739   ZZ=            -52.9111
   XY=             -3.2561   XZ=              3.2583   YZ=             -0.4816

  Exact polarizability:  85.022  -4.198  70.985   1.760  -0.096  66.341
 Approx polarizability: 112.287  -3.696 105.432   3.056   0.794 104.064

                      1                      2                      3
                      A                      A                      A
 Frequencies --     92.7996               163.7357               179.3924
 Red. masses --      2.4790                 1.3115                 2.1492
 Frc consts  --      0.0126                 0.0207                 0.0408
 IR Inten    --      2.1292                 0.2038                 0.9938

                      4                      5                      6
                      A                      A                      A
 Frequencies --    224.2842               358.7473               378.2064
 Red. masses --      2.3918                 2.8320                 4.6092
 Frc consts  --      0.0709                 0.2147                 0.3885
 IR Inten    --      5.3599                 0.6282                 8.6066

                      7                      8                      9
                      A                      A                      A
 Frequencies --    413.8826               460.2512               601.3063
 Red. masses --      3.2411                 2.4590                 3.9824
 Frc consts  --      0.3271                 0.3069                 0.8484
 IR Inten    --      0.6632                 1.2169                 2.8167

                     10                     11                     12
                      A                      A                      A
 Frequencies --    660.4594               696.1101               797.1233
 Red. masses --      5.5774                 3.5900                 3.4377
 Frc consts  --      1.4334                 1.0249                 1.2870
 IR Inten    --      5.3437                 4.6367                 7.2611

                     13                     14                     15
                      A                      A                      A
 Frequencies --    841.3086               848.6177               874.7159
 Red. masses --      2.3428                 1.4342                 1.8180
 Frc consts  --      0.9770                 0.6085                 0.8196
 IR Inten    --     11.0506                10.0601                10.4778

                     16                     17                     18
                      A                      A                      A
 Frequencies --    929.5855               960.5984               975.7188
 Red. masses --      2.3244                 2.7242                 1.5795
 Frc consts  --      1.1834                 1.4810                 0.8860
 IR Inten    --      0.8590                29.9256                 4.8301

                     19                     20                     21
                      A                      A                      A
 Frequencies --    996.5693               999.7170              1040.7782
 Red. masses --      1.6132                 3.0036                 4.1175
 Frc consts  --      0.9439                 1.7687                 2.6278
 IR Inten    --      1.6660                14.7130                21.8576

                     22                     23                     24
                      A                      A                      A
 Frequencies --   1063.2126              1090.1160              1107.3777
 Red. masses --      4.2751                 1.9388                 2.6463
 Frc consts  --      2.8473                 1.3575                 1.9120
 IR Inten    --     49.9765                 1.2682                 4.8207

                     25                     26                     27
                      A                      A                      A
 Frequencies --   1133.8037              1179.7103              1184.6493
 Red. masses --      2.1046                 1.2869                 1.8001
 Frc consts  --      1.5940                 1.0552                 1.4884
 IR Inten    --     70.1230                 3.7446                 9.3933

                     28                     29                     30
                      A                      A                      A
 Frequencies --   1199.9389              1210.5767              1217.1584
 Red. masses --      1.5227                 1.1842                 1.4184
 Frc consts  --      1.2918                 1.0225                 1.2381
 IR Inten    --      9.8828                 2.6109                 2.8558

                     31                     32                     33
                      A                      A                      A
 Frequencies --   1237.2083              1278.4120              1281.0046
 Red. masses --      1.7458                 2.0515                 1.8262
 Frc consts  --      1.5744                 1.9755                 1.7656
 IR Inten    --     21.6251                30.4398                37.8763

                     34                     35                     36
                      A                      A                      A
 Frequencies --   1332.9671              1358.1891              1413.8864
 Red. masses --      1.6344                 1.9778                 2.1387
 Frc consts  --      1.7110                 2.1496                 2.5190
 IR Inten    --     25.4801                11.0595                40.2807

                     37                     38                     39
                      A                      A                      A
 Frequencies --   1480.3103              1486.9485              1491.3826
 Red. masses --      1.1671                 1.1230                 1.0985
 Frc consts  --      1.5068                 1.4629                 1.4395
 IR Inten    --      4.7098                 1.1530                 1.9283

                     40                     41                     42
                      A                      A                      A
 Frequencies --   1506.1263              1522.9940              2993.0153
 Red. masses --      1.0535                 1.0888                 1.0381
 Frc consts  --      1.4080                 1.4880                 5.4790
 IR Inten    --      7.3362                 1.6947                20.3552

                     43                     44                     45
                      A                      A                      A
 Frequencies --   3003.0853              3042.2619              3048.4535
 Red. masses --      1.0589                 1.0580                 1.1037
 Frc consts  --      5.6265                 5.7693                 6.0429
 IR Inten    --     78.5770                41.9628                43.9039

                     46                     47                     48
                      A                      A                      A
 Frequencies --   3053.0968              3096.9705              3122.8246
 Red. masses --      1.1016                 1.1075                 1.0985
 Frc consts  --      6.0499                 6.2586                 6.3115
 IR Inten    --     41.0644                22.1668                28.6718

                     49                     50                     51
                      A                      A                      A
 Frequencies --   3135.2137              3182.0451              3217.0529
 Red. masses --      1.0910                 1.0910                 1.0966
 Frc consts  --      6.3181                 6.5087                 6.6867
 IR Inten    --     35.1477                16.2316                 5.0094

 - Thermochemistry -
 -------------------
 Temperature   298.150 Kelvin.  Pressure   1.00000 Atm.
 Atom     1 has atomic number  6 and mass  12.00000

 Molecular mass:   126.06808 amu.
 Principal axes and moments of inertia in atomic units:
                           1         2         3
     Eigenvalues --   543.875151226.241031425.94906
           X            0.99953  -0.02572   0.01646
           Y            0.02580   0.99966  -0.00477
           Z           -0.01633   0.00519   0.99985
 This molecule is an asymmetric top.
 Rotational symmetry number  1.
 Warning -- assumption of classical behavior for rotation
           may cause significant error
 Rotational temperatures (Kelvin)      0.15925     0.07063     0.06074
 Rotational constants (GHZ):           3.31830     1.47177     1.26564
 Zero-point vibrational energy     419673.3 (Joules/Mol)
                                  100.30433 (Kcal/Mol)
 Warning -- explicit consideration of   9 degrees of freedom as
           vibrations may cause significant error
 Vibrational temperatures:    133.52   235.58   258.11   322.69   516.16
          (Kelvin)            544.15   595.48   662.20   865.14   950.25
                             1001.55  1146.88  1210.45  1220.97  1258.52
                             1337.46  1382.09  1403.84  1433.84  1438.37
                             1497.45  1529.72  1568.43  1593.27  1631.29
                             1697.34  1704.44  1726.44  1741.75  1751.22
                             1780.06  1839.35  1843.08  1917.84  1954.13
                             2034.26  2129.83  2139.38  2145.76  2166.98
                             2191.25  4306.28  4320.76  4377.13  4386.04
                             4392.72  4455.84  4493.04  4510.87  4578.25
                             4628.62

 Zero-point correction=                           0.159845 (Hartree/Particle)
 Thermal correction to Energy=                    0.167584
 Thermal correction to Enthalpy=                  0.168528
 Thermal correction to Gibbs Free Energy=         0.127630
 Sum of electronic and zero-point Energies=           -422.977660
 Sum of electronic and thermal Energies=              -422.969921
 Sum of electronic and thermal Enthalpies=            -422.968977
 Sum of electronic and thermal Free Energies=         -423.009876

                     E (Thermal)             CV                S
                      KCal/Mol        Cal/Mol-Kelvin    Cal/Mol-Kelvin
 Total                  105.160             30.222             86.078
 Electronic               0.000              0.000              0.000
 Translational            0.889              2.981             40.409
 Rotational               0.889              2.981             28.344
 Vibrational            103.383             24.260             17.326
 Vibration     1          0.602              1.954              3.600
 Vibration     2          0.623              1.887              2.506
 Vibration     3          0.629              1.868              2.335
 Vibration     4          0.649              1.804              1.924
 Vibration     5          0.734              1.557              1.128
 Vibration     6          0.748              1.517              1.046
 Vibration     7          0.777              1.440              0.913
 Vibration     8          0.818              1.338              0.765
 Vibration     9          0.960              1.029              0.447

 Normal termination of Gaussian 09 at Tue Jan 28 13:01:57 2020.
