 Gaussian 09, Revision D.01,
 Gaussian 09:  ES64L-G09RevD.01 24-Apr-2013

 -----------------------------
 # b3lyp 6-31G(2df,p) opt Freq
 -----------------------------

 -----
 titel
 -----
 Symbolic Z-matrix:
 Charge =  0 Multiplicity = 1

 SCF Done:  E(RB3LYP) =  -423.175164575     A.U. after   14 cycles
 Optimization completed.
    -- Stationary point found.
 Normal termination of Gaussian 09 at Tue Jan 28 09:18:11 2020.

 ----------------------------------------------------------------------
 #N Geom=AllCheck Guess=TCheck SCRF=Check GenChk RB3LYP/6-31G(2df,p) Fr
 eq
 ----------------------------------------------------------------------

 Structure from the checkpoint file:  "/scratch/puck/g09_9562d527-bad9-4da4-a2ab-36038f9ad276/Gau-28618.chk"
 -----
 titel
 -----
 Charge =  0 Multiplicity = 1

                         Standard orientation:
 ---------------------------------------------------------------------
 Center     Atomic      Atomic             Coordinates (Angstroms)
 Number     Number       Type             X           Y           Z
 ---------------------------------------------------------------------
      1          6           0        2.613442   -1.168949   -0.195364
      2          6           0        1.548144   -0.620020    0.764812
      3          6           0        0.293335   -0.202150    0.049572
      4          6           0       -0.716371   -1.168955   -0.602332
      5          6           0       -1.850597   -0.314285    0.024735
      6          8           0       -3.030868   -0.493100    0.146049
      7          6           0       -0.891999    0.680054    0.580070
      8          6           0        0.076574    1.141529   -0.530516
      9          8           0        1.002527    2.107573   -0.143785
     10          1           0        3.507197   -1.479941    0.353623
     11          1           0        2.242230   -2.037893   -0.749076
     12          1           0        2.911172   -0.407904   -0.923094
     13          1           0        1.297183   -1.381209    1.514160
     14          1           0        1.949309    0.241726    1.305890
     15          1           0       -0.694650   -1.257490   -1.693207
     16          1           0       -0.707787   -2.170039   -0.160242
     17          1           0       -0.981867    1.279963    1.478125
     18          1           0       -0.294438    1.249196   -1.551815
     19          1           0        0.563209    2.964455   -0.138328
 ---------------------------------------------------------------------

 SCF Done:  E(RB3LYP) =  -423.175164575     A.U. after    1 cycles

 The electronic state is 1-A.
 Alpha  occ. eigenvalues --  -19.16378 -19.12420 -10.26584 -10.25813 -10.21605
 Alpha  occ. eigenvalues --  -10.19947 -10.19432 -10.19152 -10.17918  -1.05129
 Alpha  occ. eigenvalues --   -1.03463  -0.90275  -0.77132  -0.72049  -0.65584
 Alpha  occ. eigenvalues --   -0.63499  -0.55751  -0.54023  -0.52522  -0.48784
 Alpha  occ. eigenvalues --   -0.46227  -0.44663  -0.43607  -0.41170  -0.40205
 Alpha  occ. eigenvalues --   -0.39104  -0.38220  -0.36719  -0.35633  -0.33759
 Alpha  occ. eigenvalues --   -0.32697  -0.28756  -0.26432  -0.23740
 Alpha virt. eigenvalues --   -0.00741   0.06111   0.08121   0.11013   0.11974
 Alpha virt. eigenvalues --    0.12894   0.14667   0.15157   0.15749   0.16192
 Alpha virt. eigenvalues --    0.16775   0.17702   0.19304   0.20345   0.21827

 Mulliken charges:
               1
     1  C   -0.380264
     2  C   -0.291708
     3  C    0.328793
     4  C   -0.428933
     5  C    0.425079
     6  O   -0.325099
     7  C   -0.296515
     8  C    0.058727
     9  O   -0.426143
    10  H    0.116044
    11  H    0.118217
    12  H    0.129156
    13  H    0.100861
    14  H    0.121422
    15  H    0.117754
    16  H    0.133493
    17  H    0.107476
    18  H    0.095117
    19  H    0.296523
 Sum of Mulliken charges =   0.00000

 Dipole moment (field-independent basis, Debye):
    X=              2.4330    Y=              1.1447    Z=             -0.3354  Tot=              2.7097
 Quadrupole moment (field-independent basis, Debye-Ang):
   XX=            -67.5065   YY=            -46.3591   ZZ=            -51.4933
   XY=             -4.0436   XZ=              1.3958   YZ=             -0.2183

  Exact polarizability:  90.526   0.924  78.224  -1.009   2.483  63.939
 Approx polarizability: 132.478   5.099 113.575  -3.929   3.419  98.374

                      1                      2                      3
                      A                      A                      A
 Frequencies --     67.3604                99.0815               178.9685
 Red. masses --      2.7101                 4.0781                 3.6216
 Frc consts  --      0.0072                 0.0236                 0.0683
 IR Inten    --      0.1253                 3.6338                 4.6812

                      4                      5                      6
                      A                      A                      A
 Frequencies --    200.7328               263.2191               278.0491
 Red. masses --      1.3239                 2.1395                 2.4790
 Frc consts  --      0.0314                 0.0873                 0.1129
 IR Inten    --      0.2254                 1.4283                 6.1678

                      7                      8                      9
                      A                      A                      A
 Frequencies --    315.4878               349.0814               386.8808
 Red. masses --      1.2629                 2.4590                 2.9501
 Frc consts  --      0.0741                 0.1765                 0.2602
 IR Inten    --    106.8516                10.2387                 3.4982

                     10                     11                     12
                      A                      A                      A
 Frequencies --    489.1556               507.9266               541.2004
 Red. masses --      4.9952                 3.4649                 2.8788
 Frc consts  --      0.7042                 0.5267                 0.4968
 IR Inten    --      4.5670                 4.3954                 2.3508

                     13                     14                     15
                      A                      A                      A
 Frequencies --    638.5433               684.4013               787.1840
 Red. masses --      3.2460                 2.7195                 1.2527
 Frc consts  --      0.7798                 0.7505                 0.4574
 IR Inten    --     10.4967                 0.4079                 5.1753

                     16                     17                     18
                      A                      A                      A
 Frequencies --    794.9425               842.0904               920.2360
 Red. masses --      3.4885                 3.1431                 1.4277
 Frc consts  --      1.2988                 1.3132                 0.7123
 IR Inten    --     27.9995                13.2532                11.5589

                     19                     20                     21
                      A                      A                      A
 Frequencies --    944.5385               974.5382              1005.0522
 Red. masses --      3.3400                 1.9796                 2.0150
 Frc consts  --      1.7556                 1.1077                 1.1992
 IR Inten    --      2.2356                 2.5160                 6.4699

                     22                     23                     24
                      A                      A                      A
 Frequencies --   1036.4032              1075.9677              1080.3345
 Red. masses --      2.2080                 1.8259                 1.3224
 Frc consts  --      1.3974                 1.2454                 0.9093
 IR Inten    --      3.9317                 6.4764                19.5335

                     25                     26                     27
                      A                      A                      A
 Frequencies --   1092.5451              1130.6627              1154.5742
 Red. masses --      1.5301                 2.4937                 2.5422
 Frc consts  --      1.0761                 1.8783                 1.9967
 IR Inten    --     26.0914                33.0661                31.3451

                     28                     29                     30
                      A                      A                      A
 Frequencies --   1196.1314              1205.9702              1241.1603
 Red. masses --      2.2113                 1.4889                 2.1855
 Frc consts  --      1.8641                 1.2758                 1.9836
 IR Inten    --     89.1107                 7.2109                 8.7577

                     31                     32                     33
                      A                      A                      A
 Frequencies --   1270.7799              1325.5577              1342.9811
 Red. masses --      1.2980                 1.3563                 1.3372
 Frc consts  --      1.2350                 1.4041                 1.4210
 IR Inten    --     66.7229                 3.9912                 6.3911

                     34                     35                     36
                      A                      A                      A
 Frequencies --   1384.5500              1408.4212              1447.9029
 Red. masses --      1.8201                 1.2299                 1.2272
 Frc consts  --      2.0557                 1.4374                 1.5158
 IR Inten    --      2.1119                 1.6313                 3.0925

                     37                     38                     39
                      A                      A                      A
 Frequencies --   1475.4338              1487.9292              1498.7725
 Red. masses --      1.4685                 1.3811                 1.0390
 Frc consts  --      1.8834                 1.8015                 1.3751
 IR Inten    --      3.2401                 8.2759                 5.0130

                     40                     41                     42
                      A                      A                      A
 Frequencies --   1506.8155              1874.4234              3030.2877
 Red. masses --      1.0925                12.3772                 1.0664
 Frc consts  --      1.4615                25.6217                 5.7694
 IR Inten    --      2.8996               404.9174                23.6955

                     43                     44                     45
                      A                      A                      A
 Frequencies --   3036.5226              3049.2265              3072.8956
 Red. masses --      1.0355                 1.0584                 1.0881
 Frc consts  --      5.6254                 5.7981                 6.0535
 IR Inten    --     23.6020                16.6370                30.8574

                     46                     47                     48
                      A                      A                      A
 Frequencies --   3085.8897              3105.3043              3108.6290
 Red. masses --      1.0953                 1.1056                 1.1002
 Frc consts  --      6.1452                 6.2816                 6.2640
 IR Inten    --      0.8966                 9.5704                35.3552

                     49                     50                     51
                      A                      A                      A
 Frequencies --   3113.9806              3191.3564              3811.7881
 Red. masses --      1.1026                 1.0935                 1.0663
 Frc consts  --      6.2997                 6.5619                 9.1285
 IR Inten    --     29.9388                 4.8921                37.6421

 - Thermochemistry -
 -------------------
 Temperature   298.150 Kelvin.  Pressure   1.00000 Atm.
 Atom     1 has atomic number  6 and mass  12.00000

 Molecular mass:   126.06808 amu.
 Principal axes and moments of inertia in atomic units:
                           1         2         3
     Eigenvalues --   695.284531422.540991881.64352
           X            0.99879  -0.04899   0.00428
           Y            0.04893   0.99873   0.01225
           Z           -0.00487  -0.01202   0.99992
 This molecule is an asymmetric top.
 Rotational symmetry number  1.
 Warning -- assumption of classical behavior for rotation
           may cause significant error
 Rotational temperatures (Kelvin)      0.12457     0.06089     0.04603
 Rotational constants (GHZ):           2.59569     1.26867     0.95913
 Zero-point vibrational energy     413380.8 (Joules/Mol)
                                   98.80037 (Kcal/Mol)
 Warning -- explicit consideration of  12 degrees of freedom as
           vibrations may cause significant error
 Vibrational temperatures:     96.92   142.56   257.50   288.81   378.71
          (Kelvin)            400.05   453.92   502.25   556.63   703.78
                              730.79   778.67   918.72   984.70  1132.58
                             1143.74  1211.58  1324.01  1358.98  1402.14
                             1446.04  1491.15  1548.08  1554.36  1571.93
                             1626.77  1661.17  1720.96  1735.12  1785.75
                             1828.37  1907.18  1932.25  1992.06  2026.40
                             2083.21  2122.82  2140.80  2156.40  2167.97
                             2696.87  4359.90  4368.87  4387.15  4421.21
                             4439.90  4467.83  4472.62  4480.32  4591.64
                             5484.31

 Zero-point correction=                           0.157448 (Hartree/Particle)
 Thermal correction to Energy=                    0.166556
 Thermal correction to Enthalpy=                  0.167500
 Thermal correction to Gibbs Free Energy=         0.123494
 Sum of electronic and zero-point Energies=           -423.017716
 Sum of electronic and thermal Energies=              -423.008609
 Sum of electronic and thermal Enthalpies=            -423.007665
 Sum of electronic and thermal Free Energies=         -423.051671

                     E (Thermal)             CV                S
                      KCal/Mol        Cal/Mol-Kelvin    Cal/Mol-Kelvin
 Total                  104.515             34.209             92.618
 Electronic               0.000              0.000              0.000
 Translational            0.889              2.981             40.409
 Rotational               0.889              2.981             29.011
 Vibrational            102.738             28.247             23.199
 Vibration     1          0.598              1.970              4.229
 Vibration     2          0.604              1.950              3.472
 Vibration     3          0.629              1.868              2.339
 Vibration     4          0.638              1.839              2.126
 Vibration     5          0.670              1.740              1.640
 Vibration     6          0.679              1.714              1.546
 Vibration     7          0.703              1.644              1.333
 Vibration     8          0.726              1.577              1.170
 Vibration     9          0.755              1.498              1.012
 Vibration    10          0.845              1.274              0.686
 Vibration    11          0.863              1.232              0.639
 Vibration    12          0.896              1.159              0.563

 Optimization completed.
    -- Stationary point found.
 Normal termination of Gaussian 09 at Tue Jan 28 10:02:48 2020.
