 Gaussian 09, Revision D.01,
 Gaussian 09:  ES64L-G09RevD.01 24-Apr-2013

 -----------------------------
 # b3lyp 6-31G(2df,p) opt Freq
 -----------------------------

 -----
 titel
 -----
 Symbolic Z-matrix:
 Charge =  0 Multiplicity = 1

 SCF Done:  E(RB3LYP) =  -423.126940672     A.U. after   14 cycles
 Optimization completed.
    -- Stationary point found.
 Normal termination of Gaussian 09 at Mon Jan 27 18:36:52 2020.

 ----------------------------------------------------------------------
 #N Geom=AllCheck Guess=TCheck SCRF=Check GenChk RB3LYP/6-31G(2df,p) Fr
 eq
 ----------------------------------------------------------------------

 Structure from the checkpoint file:  "/scratch/puck/g09_22b941a2-fa52-4168-965b-378241e29b49/Gau-43131.chk"
 -----
 titel
 -----
 Charge =  0 Multiplicity = 1

                         Standard orientation:
 ---------------------------------------------------------------------
 Center     Atomic      Atomic             Coordinates (Angstroms)
 Number     Number       Type             X           Y           Z
 ---------------------------------------------------------------------
      1          6           0       -1.489167   -1.280341    1.016045
      2          6           0       -0.823586   -0.418504   -0.023677
      3          6           0       -0.016809   -1.056242   -1.189597
      4          6           0        1.098502   -0.020590   -0.922324
      5          8           0        2.077353   -0.459220    0.057744
      6          6           0        1.508995    0.388289    1.092165
      7          6           0        0.294284    0.643172    0.221543
      8          6           0       -0.777333    1.687631   -0.008850
      9          8           0       -1.687648    0.664453   -0.488241
     10          1           0       -0.788667   -2.022040    1.413058
     11          1           0       -1.872434   -0.676560    1.844390
     12          1           0       -2.334113   -1.817554    0.570445
     13          1           0        0.306694   -2.088866   -1.035787
     14          1           0       -0.519494   -0.961296   -2.155320
     15          1           0        1.562755    0.514453   -1.756549
     16          1           0        1.356971   -0.148104    2.036492
     17          1           0        2.139439    1.269649    1.277074
     18          1           0       -1.160296    2.170209    0.901620
     19          1           0       -0.577806    2.457751   -0.763267
 ---------------------------------------------------------------------

 SCF Done:  E(RB3LYP) =  -423.126940672     A.U. after    1 cycles

 The electronic state is 1-A.
 Alpha  occ. eigenvalues --  -19.13768 -19.13544 -10.24046 -10.23645 -10.23553
 Alpha  occ. eigenvalues --  -10.23482 -10.19694 -10.18063 -10.18039  -1.04989
 Alpha  occ. eigenvalues --   -1.02968  -0.81099  -0.74604  -0.72624  -0.67059
 Alpha  occ. eigenvalues --   -0.62326  -0.59786  -0.51761  -0.49331  -0.49203
 Alpha  occ. eigenvalues --   -0.48193  -0.44347  -0.43293  -0.42236  -0.40885
 Alpha  occ. eigenvalues --   -0.39898  -0.38113  -0.36640  -0.34392  -0.31235
 Alpha  occ. eigenvalues --   -0.29698  -0.28211  -0.25136  -0.24356
 Alpha virt. eigenvalues --    0.06552   0.07418   0.09740   0.11399   0.12096
 Alpha virt. eigenvalues --    0.13041   0.13598   0.14239   0.15333   0.16559
 Alpha virt. eigenvalues --    0.17375   0.18024   0.18554   0.19799   0.21259

 Mulliken charges:
               1
     1  C   -0.476594
     2  C    0.410821
     3  C   -0.296438
     4  C    0.087983
     5  O   -0.300126
     6  C   -0.188209
     7  C    0.205551
     8  C   -0.199555
     9  O   -0.335888
    10  H    0.124516
    11  H    0.120903
    12  H    0.132200
    13  H    0.110115
    14  H    0.111450
    15  H    0.074121
    16  H    0.107631
    17  H    0.102484
    18  H    0.102360
    19  H    0.106675
 Sum of Mulliken charges =   0.00000

 Dipole moment (field-independent basis, Debye):
    X=             -0.0656    Y=              0.6502    Z=              0.8108  Tot=              1.0414
 Quadrupole moment (field-independent basis, Debye-Ang):
   XX=            -60.9274   YY=            -50.4640   ZZ=            -50.5910
   XY=              3.7654   XZ=             -1.3525   YZ=              0.7246

  Exact polarizability:  73.889   2.471  76.662  -0.175   1.736  73.550
 Approx polarizability: 106.556  -0.014 109.631   2.031   2.932 107.113

                      1                      2                      3
                      A                      A                      A
 Frequencies --    107.1826               192.4460               209.8727
 Red. masses --      3.4899                 1.9340                 1.1752
 Frc consts  --      0.0236                 0.0422                 0.0305
 IR Inten    --      3.9568                 1.6970                 0.1565

                      4                      5                      6
                      A                      A                      A
 Frequencies --    236.8224               332.9294               347.8997
 Red. masses --      2.4346                 2.6708                 2.8706
 Frc consts  --      0.0804                 0.1744                 0.2047
 IR Inten    --      0.9953                 2.0374                 2.6839

                      7                      8                      9
                      A                      A                      A
 Frequencies --    387.3831               460.9028               501.3213
 Red. masses --      2.6438                 1.9863                 4.6142
 Frc consts  --      0.2338                 0.2486                 0.6833
 IR Inten    --      3.4222                 4.5673                 0.3395

                     10                     11                     12
                      A                      A                      A
 Frequencies --    619.2727               712.2950               728.6924
 Red. masses --      3.8384                 3.1001                 2.8222
 Frc consts  --      0.8673                 0.9267                 0.8829
 IR Inten    --      0.2904                 0.5991                 0.9208

                     13                     14                     15
                      A                      A                      A
 Frequencies --    814.1168               860.1104               870.3017
 Red. masses --      2.7174                 2.4624                 2.3627
 Frc consts  --      1.0611                 1.0733                 1.0544
 IR Inten    --     24.8230                 3.1478                28.5069

                     16                     17                     18
                      A                      A                      A
 Frequencies --    916.9593               959.8333               963.1006
 Red. masses --      2.0297                 1.7253                 1.9985
 Frc consts  --      1.0055                 0.9365                 1.0922
 IR Inten    --      4.3037                 1.8649                 7.5202

                     19                     20                     21
                      A                      A                      A
 Frequencies --    977.5722               997.6802              1007.9118
 Red. masses --      6.4562                 6.0644                 1.9627
 Frc consts  --      3.6351                 3.5565                 1.1748
 IR Inten    --     32.6628               114.4033                 5.4409

                     22                     23                     24
                      A                      A                      A
 Frequencies --   1092.2604              1108.7626              1132.9701
 Red. masses --      1.7719                 2.2612                 1.5702
 Frc consts  --      1.2455                 1.6378                 1.1875
 IR Inten    --     16.5681                 0.9077                 4.0252

                     25                     26                     27
                      A                      A                      A
 Frequencies --   1153.0524              1167.1679              1187.7131
 Red. masses --      1.7950                 1.4889                 2.1617
 Frc consts  --      1.4061                 1.1950                 1.7967
 IR Inten    --      5.0723                 2.4587                15.8222

                     28                     29                     30
                      A                      A                      A
 Frequencies --   1191.9605              1227.8583              1260.0388
 Red. masses --      1.5429                 1.7744                 2.1720
 Frc consts  --      1.2915                 1.5761                 2.0318
 IR Inten    --      0.8687                 2.4777                14.2262

                     31                     32                     33
                      A                      A                      A
 Frequencies --   1266.2140              1303.2587              1314.0917
 Red. masses --      1.7056                 2.4631                 1.4824
 Frc consts  --      1.6112                 2.4648                 1.5083
 IR Inten    --      3.1685                29.4226                 9.9937

                     34                     35                     36
                      A                      A                      A
 Frequencies --   1350.6772              1395.7144              1407.7227
 Red. masses --      1.4356                 2.8399                 1.3674
 Frc consts  --      1.5431                 3.2595                 1.5965
 IR Inten    --      0.3309                 0.5440                11.2994

                     37                     38                     39
                      A                      A                      A
 Frequencies --   1445.3162              1482.2150              1485.5445
 Red. masses --      1.1185                 1.0582                 1.0507
 Frc consts  --      1.3766                 1.3697                 1.3661
 IR Inten    --      4.3830                 2.2487                 2.7284

                     40                     41                     42
                      A                      A                      A
 Frequencies --   1518.7401              1521.8397              2995.6850
 Red. masses --      1.1103                 1.1012                 1.0602
 Frc consts  --      1.5089                 1.5027                 5.6056
 IR Inten    --      0.2745                 0.8437                34.5082

                     43                     44                     45
                      A                      A                      A
 Frequencies --   2999.4743              3030.9108              3051.5224
 Red. masses --      1.0609                 1.0353                 1.1038
 Frc consts  --      5.6238                 5.6037                 6.0561
 IR Inten    --    121.8482                12.9940                14.1529

                     46                     47                     48
                      A                      A                      A
 Frequencies --   3052.7371              3055.6810              3065.6687
 Red. masses --      1.1026                 1.0766                 1.0707
 Frc consts  --      6.0538                 5.9229                 5.9286
 IR Inten    --     49.9095                58.4624                35.9204

                     49                     50                     51
                      A                      A                      A
 Frequencies --   3099.4604              3110.1423              3125.2585
 Red. masses --      1.1003                 1.1022                 1.1082
 Frc consts  --      6.2275                 6.2813                 6.3775
 IR Inten    --     13.4274                17.3036                14.6496

 - Thermochemistry -
 -------------------
 Temperature   298.150 Kelvin.  Pressure   1.00000 Atm.
 Atom     1 has atomic number  6 and mass  12.00000

 Molecular mass:   126.06808 amu.
 Principal axes and moments of inertia in atomic units:
                           1         2         3
     Eigenvalues --   686.644831073.404971187.88629
           X            0.99809   0.05780  -0.02192
           Y           -0.05819   0.99815  -0.01758
           Z            0.02087   0.01882   0.99961
 This molecule is an asymmetric top.
 Rotational symmetry number  1.
 Warning -- assumption of classical behavior for rotation
           may cause significant error
 Rotational temperatures (Kelvin)      0.12614     0.08069     0.07291
 Rotational constants (GHZ):           2.62835     1.68132     1.51929
 Zero-point vibrational energy     417522.2 (Joules/Mol)
                                   99.79021 (Kcal/Mol)
 Warning -- explicit consideration of  10 degrees of freedom as
           vibrations may cause significant error
 Vibrational temperatures:    154.21   276.89   301.96   340.73   479.01
          (Kelvin)            500.55   557.36   663.14   721.29   890.99
                             1024.83  1048.42  1171.33  1237.51  1252.17
                             1319.30  1380.98  1385.69  1406.51  1435.44
                             1450.16  1571.52  1595.26  1630.09  1658.98
                             1679.29  1708.85  1714.96  1766.61  1812.91
                             1821.80  1875.10  1890.68  1943.32  2008.12
                             2025.40  2079.49  2132.57  2137.36  2185.13
                             2189.59  4310.12  4315.57  4360.80  4390.45
                             4392.20  4396.44  4410.81  4459.43  4474.80
                             4496.54

 Zero-point correction=                           0.159026 (Hartree/Particle)
 Thermal correction to Energy=                    0.166810
 Thermal correction to Enthalpy=                  0.167755
 Thermal correction to Gibbs Free Energy=         0.127042
 Sum of electronic and zero-point Energies=           -422.967915
 Sum of electronic and thermal Energies=              -422.960130
 Sum of electronic and thermal Enthalpies=            -422.959186
 Sum of electronic and thermal Free Energies=         -422.999899

                     E (Thermal)             CV                S
                      KCal/Mol        Cal/Mol-Kelvin    Cal/Mol-Kelvin
 Total                  104.675             30.641             85.687
 Electronic               0.000              0.000              0.000
 Translational            0.889              2.981             40.409
 Rotational               0.889              2.981             28.262
 Vibrational            102.898             24.679             17.017
 Vibration     1          0.606              1.943              3.319
 Vibration     2          0.634              1.850              2.204
 Vibration     3          0.642              1.826              2.045
 Vibration     4          0.656              1.784              1.827
 Vibration     5          0.715              1.610              1.246
 Vibration     6          0.726              1.580              1.176
 Vibration     7          0.756              1.497              1.010
 Vibration     8          0.819              1.337              0.763
 Vibration     9          0.857              1.247              0.655
 Vibration    10          0.979              0.991              0.418

 Optimization completed.
    -- Stationary point found.
 Normal termination of Gaussian 09 at Mon Jan 27 19:34:19 2020.
