 Gaussian 09, Revision D.01,
 Gaussian 09:  ES64L-G09RevD.01 24-Apr-2013

 -----------------------------
 # b3lyp 6-31G(2df,p) opt Freq
 -----------------------------

 -----
 titel
 -----
 Symbolic Z-matrix:
 Charge =  0 Multiplicity = 1

 SCF Done:  E(RB3LYP) =  -423.125910736     A.U. after   14 cycles
 Optimization completed.
    -- Stationary point found.
 Normal termination of Gaussian 09 at Tue Jan 28 08:52:58 2020.

 ----------------------------------------------------------------------
 #N Geom=AllCheck Guess=TCheck SCRF=Check GenChk RB3LYP/6-31G(2df,p) Fr
 eq
 ----------------------------------------------------------------------

 Structure from the checkpoint file:  "/scratch/puck/g09_67e23aed-4fe3-4e98-961d-018f4b43da00/Gau-187690.chk"
 -----
 titel
 -----
 Charge =  0 Multiplicity = 1

                         Standard orientation:
 ---------------------------------------------------------------------
 Center     Atomic      Atomic             Coordinates (Angstroms)
 Number     Number       Type             X           Y           Z
 ---------------------------------------------------------------------
      1          8           0       -2.683170   -0.941719   -0.644987
      2          6           0       -2.206639    0.403728   -0.585223
      3          6           0       -0.943391    0.369902    0.234009
      4          8           0       -1.148823   -0.174241    1.509033
      5          6           0        0.054991    1.480305    0.154863
      6          6           0        0.389396    0.129132   -0.447709
      7          6           0        1.425891   -0.763603    0.215962
      8          6           0        2.798682   -0.377692   -0.096477
      9          6           0        3.922473   -0.049004   -0.368836
     10          1           0       -3.615162   -0.926542   -0.879166
     11          1           0       -2.004320    0.803428   -1.589448
     12          1           0       -2.943568    1.055905   -0.094228
     13          1           0       -1.659856   -0.981036    1.359497
     14          1           0       -0.136156    2.318985   -0.506287
     15          1           0        0.546021    1.742189    1.086110
     16          1           0        0.373036    0.070867   -1.532322
     17          1           0        1.266100   -0.744886    1.299639
     18          1           0        1.263024   -1.804072   -0.095514
     19          1           0        4.918402    0.236228   -0.600177
 ---------------------------------------------------------------------

 SCF Done:  E(RB3LYP) =  -423.125910736     A.U. after    1 cycles

 The electronic state is 1-A.
 Alpha  occ. eigenvalues --  -19.15086 -19.14001 -10.23842 -10.23697 -10.20141
 Alpha  occ. eigenvalues --  -10.19127 -10.18349 -10.17219 -10.16027  -1.04118
 Alpha  occ. eigenvalues --   -1.01566  -0.85656  -0.77017  -0.71032  -0.68814
 Alpha  occ. eigenvalues --   -0.59107  -0.57215  -0.52499  -0.51890  -0.49601
 Alpha  occ. eigenvalues --   -0.48730  -0.45831  -0.44694  -0.42364  -0.40514
 Alpha  occ. eigenvalues --   -0.38632  -0.36552  -0.35201  -0.32603  -0.29203
 Alpha  occ. eigenvalues --   -0.28249  -0.26295  -0.25424  -0.24078
 Alpha virt. eigenvalues --    0.05562   0.06564   0.06858   0.09324   0.11444
 Alpha virt. eigenvalues --    0.13198   0.13597   0.13934   0.14971   0.15871
 Alpha virt. eigenvalues --    0.16752   0.18212   0.19114   0.21680   0.22472

 Mulliken charges:
               1
     1  O   -0.434185
     2  C   -0.150977
     3  C    0.419612
     4  O   -0.469875
     5  C   -0.341298
     6  C   -0.060501
     7  C   -0.389113
     8  C    0.311389
     9  C   -0.454619
    10  H    0.294289
    11  H    0.092151
    12  H    0.098869
    13  H    0.288636
    14  H    0.110441
    15  H    0.128806
    16  H    0.092616
    17  H    0.144378
    18  H    0.128698
    19  H    0.190681
 Sum of Mulliken charges =   0.00000

 Dipole moment (field-independent basis, Debye):
    X=             -2.4473    Y=              0.2975    Z=             -1.2700  Tot=              2.7732
 Quadrupole moment (field-independent basis, Debye-Ang):
   XX=            -43.5892   YY=            -52.3612   ZZ=            -54.9509
   XY=              1.5296   XZ=              2.3387   YZ=             -2.0828

  Exact polarizability: 106.780   4.938  67.185  -3.741  -1.946  61.467
 Approx polarizability: 140.998  13.311 100.848 -10.427  -3.292  94.571

                      1                      2                      3
                      A                      A                      A
 Frequencies --     48.3514                98.4079               113.5797
 Red. masses --      3.9699                 3.6262                 4.2836
 Frc consts  --      0.0055                 0.0207                 0.0326
 IR Inten    --      0.3671                 1.2365                 1.3971

                      4                      5                      6
                      A                      A                      A
 Frequencies --    177.5277               220.1933               258.1455
 Red. masses --      2.9779                 4.0940                 1.2013
 Frc consts  --      0.0553                 0.1170                 0.0472
 IR Inten    --      3.9970                 5.6680                86.2147

                      7                      8                      9
                      A                      A                      A
 Frequencies --    298.9247               340.8128               347.0678
 Red. masses --      3.7815                 2.7193                 2.9206
 Frc consts  --      0.1991                 0.1861                 0.2073
 IR Inten    --      3.1828                 4.3881                 1.3383

                     10                     11                     12
                      A                      A                      A
 Frequencies --    401.3870               467.3371               505.7619
 Red. masses --      2.4330                 1.2347                 2.9604
 Frc consts  --      0.2309                 0.1589                 0.4462
 IR Inten    --      5.6625                78.6706                 4.9365

                     13                     14                     15
                      A                      A                      A
 Frequencies --    534.8313               557.4644               612.6537
 Red. masses --      3.6025                 3.7319                 1.2010
 Frc consts  --      0.6071                 0.6833                 0.2656
 IR Inten    --     43.7101                25.6801                43.8272

                     16                     17                     18
                      A                      A                      A
 Frequencies --    630.4622               751.3020               848.7893
 Red. masses --      1.2229                 3.1002                 2.4503
 Frc consts  --      0.2864                 1.0310                 1.0401
 IR Inten    --     42.3444                 1.1605                 2.5289

                     19                     20                     21
                      A                      A                      A
 Frequencies --    864.4664               913.4378               920.2585
 Red. masses --      1.3202                 2.5211                 1.7067
 Frc consts  --      0.5813                 1.2394                 0.8516
 IR Inten    --      3.7648                14.6933                 8.2850

                     22                     23                     24
                      A                      A                      A
 Frequencies --    954.7074              1033.6726              1041.7729
 Red. masses --      3.7902                 2.1230                 2.1284
 Frc consts  --      2.0354                 1.3365                 1.3610
 IR Inten    --      0.2718                44.2174                23.9748

                     25                     26                     27
                      A                      A                      A
 Frequencies --   1050.3127              1069.4900              1097.3644
 Red. masses --      2.3295                 1.9998                 1.8892
 Frc consts  --      1.5141                 1.3477                 1.3404
 IR Inten    --     10.2588                43.1749                11.4348

                     28                     29                     30
                      A                      A                      A
 Frequencies --   1142.2785              1199.4388              1232.8811
 Red. masses --      1.5244                 1.2760                 1.3537
 Frc consts  --      1.1719                 1.0815                 1.2123
 IR Inten    --      5.5238                23.9660                21.1042

                     31                     32                     33
                      A                      A                      A
 Frequencies --   1247.8028              1270.9028              1315.8425
 Red. masses --      1.2434                 1.3366                 1.6641
 Frc consts  --      1.1407                 1.2720                 1.6976
 IR Inten    --     33.3065                30.7084                63.2859

                     34                     35                     36
                      A                      A                      A
 Frequencies --   1321.6923              1380.0384              1423.5925
 Red. masses --      1.5931                 1.4903                 1.3457
 Frc consts  --      1.6397                 1.6722                 1.6069
 IR Inten    --     27.6234                19.2544                19.6784

                     37                     38                     39
                      A                      A                      A
 Frequencies --   1457.1316              1476.9378              1504.4457
 Red. masses --      1.3361                 1.1260                 1.3327
 Frc consts  --      1.6714                 1.4471                 1.7772
 IR Inten    --     13.8895                 1.9068                 0.3494

                     40                     41                     42
                      A                      A                      A
 Frequencies --   1509.0238              2237.6661              2987.0862
 Red. masses --      1.5323                 5.9351                 1.0550
 Frc consts  --      2.0558                17.5093                 5.5464
 IR Inten    --     14.0769                 5.2954                47.2621

                     43                     44                     45
                      A                      A                      A
 Frequencies --   3020.3857              3027.3930              3069.8672
 Red. masses --      1.0656                 1.1077                 1.0929
 Frc consts  --      5.7277                 5.9815                 6.0681
 IR Inten    --     16.9547                51.0371                 2.3027

                     46                     47                     48
                      A                      A                      A
 Frequencies --   3132.1710              3148.1730              3220.1094
 Red. masses --      1.0548                 1.0887                 1.1162
 Frc consts  --      6.0968                 6.3572                 6.8191
 IR Inten    --      8.4509                11.7852                 5.6254

                     49                     50                     51
                      A                      A                      A
 Frequencies --   3507.8438              3764.1705              3841.2014
 Red. masses --      1.1618                 1.0649                 1.0666
 Frc consts  --      8.4226                 8.8898                 9.2724
 IR Inten    --     67.2174                50.7479                32.7259

 - Thermochemistry -
 -------------------
 Temperature   298.150 Kelvin.  Pressure   1.00000 Atm.
 Atom     1 has atomic number  8 and mass  15.99491

 Molecular mass:   126.06808 amu.
 Principal axes and moments of inertia in atomic units:
                           1         2         3
     Eigenvalues --   476.210582250.256312275.76314
           X            0.99998  -0.00014   0.00646
           Y            0.00227   0.94352  -0.33130
           Z           -0.00605   0.33130   0.94351
 This molecule is an asymmetric top.
 Rotational symmetry number  1.
 Warning -- assumption of classical behavior for rotation
           may cause significant error
 Rotational temperatures (Kelvin)      0.18188     0.03849     0.03806
 Rotational constants (GHZ):           3.78980     0.80202     0.79303
 Zero-point vibrational energy     410298.5 (Joules/Mol)
                                   98.06370 (Kcal/Mol)
 Warning -- explicit consideration of  15 degrees of freedom as
           vibrations may cause significant error
 Vibrational temperatures:     69.57   141.59   163.42   255.42   316.81
          (Kelvin)            371.41   430.09   490.35   499.35   577.51
                              672.39   727.68   769.50   802.07   881.47
                              907.09  1080.95  1221.22  1243.77  1314.23
                             1324.05  1373.61  1487.22  1498.88  1511.16
                             1538.76  1578.86  1643.48  1725.72  1773.84
                             1795.31  1828.54  1893.20  1901.62  1985.56
                             2048.23  2096.48  2124.98  2164.56  2171.15
                             3219.50  4297.75  4345.66  4355.74  4416.85
                             4506.49  4529.51  4633.01  5047.00  5415.80
                             5526.63

 Zero-point correction=                           0.156274 (Hartree/Particle)
 Thermal correction to Energy=                    0.166259
 Thermal correction to Enthalpy=                  0.167203
 Thermal correction to Gibbs Free Energy=         0.121116
 Sum of electronic and zero-point Energies=           -422.969636
 Sum of electronic and thermal Energies=              -422.959652
 Sum of electronic and thermal Enthalpies=            -422.958707
 Sum of electronic and thermal Free Energies=         -423.004795

                     E (Thermal)             CV                S
                      KCal/Mol        Cal/Mol-Kelvin    Cal/Mol-Kelvin
 Total                  104.329             37.021             97.000
 Electronic               0.000              0.000              0.000
 Translational            0.889              2.981             40.409
 Rotational               0.889              2.981             29.279
 Vibrational            102.552             31.059             27.312
 Vibration     1          0.595              1.978              4.884
 Vibration     2          0.604              1.950              3.486
 Vibration     3          0.607              1.938              3.207
 Vibration     4          0.628              1.870              2.354
 Vibration     5          0.647              1.810              1.958
 Vibration     6          0.667              1.749              1.674
 Vibration     7          0.692              1.676              1.423
 Vibration     8          0.720              1.594              1.208
 Vibration     9          0.725              1.581              1.179
 Vibration    10          0.767              1.467              0.958
 Vibration    11          0.825              1.323              0.745
 Vibration    12          0.861              1.237              0.644
 Vibration    13          0.890              1.173              0.577
 Vibration    14          0.913              1.123              0.529
 Vibration    15          0.972              1.005              0.428

 Normal termination of Gaussian 09 at Tue Jan 28 09:23:35 2020.
