 Gaussian 09, Revision D.01,
 Gaussian 09:  ES64L-G09RevD.01 24-Apr-2013

 -----------------------------
 # b3lyp 6-31G(2df,p) opt Freq
 -----------------------------

 -----
 titel
 -----
 Symbolic Z-matrix:
 Charge =  0 Multiplicity = 1

 SCF Done:  E(RB3LYP) =  -423.184866031     A.U. after   13 cycles
 Optimization completed.
    -- Stationary point found.
 Normal termination of Gaussian 09 at Mon Jan 27 11:18:58 2020.

 ----------------------------------------------------------------------
 #N Geom=AllCheck Guess=TCheck SCRF=Check GenChk RB3LYP/6-31G(2df,p) Fr
 eq
 ----------------------------------------------------------------------

 Structure from the checkpoint file:  "/scratch/puck/g09_eed147ab-957b-4d98-bc49-331f3e09eca9/Gau-150495.chk"
 -----
 titel
 -----
 Charge =  0 Multiplicity = 1

                         Standard orientation:
 ---------------------------------------------------------------------
 Center     Atomic      Atomic             Coordinates (Angstroms)
 Number     Number       Type             X           Y           Z
 ---------------------------------------------------------------------
      1          6           0       -1.800010    0.419822    0.293803
      2          6           0       -0.909931    1.532905   -0.280126
      3          6           0        0.582483    1.404322    0.006970
      4          6           0        1.448367    0.327954   -0.620259
      5          8           0        0.788097   -0.807660   -1.117628
      6          6           0        0.002589   -1.357202   -0.060563
      7          6           0       -1.477342   -0.989818   -0.216794
      8          8           0        0.530275   -0.853529    1.161953
      9          6           0        1.240789    0.320410    0.857824
     10          1           0       -1.711425    0.423740    1.384983
     11          1           0       -2.845290    0.651611    0.061586
     12          1           0       -1.055844    1.599456   -1.366482
     13          1           0       -1.253784    2.487635    0.133229
     14          1           0        1.103156    2.356170    0.094735
     15          1           0        2.375414    0.534247   -1.140723
     16          1           0        0.140731   -2.444821   -0.072115
     17          1           0       -1.729806   -1.101268   -1.277436
     18          1           0       -2.079055   -1.721010    0.335723
     19          1           0        1.987265    0.553392    1.606771
 ---------------------------------------------------------------------

 SCF Done:  E(RB3LYP) =  -423.184866031     A.U. after    1 cycles

 The electronic state is 1-A.
 Alpha  occ. eigenvalues --  -19.15030 -19.14827 -10.27646 -10.23552 -10.23152
 Alpha  occ. eigenvalues --  -10.19008 -10.18576 -10.17993 -10.17768  -1.09279
 Alpha  occ. eigenvalues --   -0.99644  -0.84784  -0.79699  -0.70641  -0.67034
 Alpha  occ. eigenvalues --   -0.61401  -0.57944  -0.54642  -0.53178  -0.47507
 Alpha  occ. eigenvalues --   -0.46321  -0.44466  -0.44176  -0.42071  -0.40263
 Alpha  occ. eigenvalues --   -0.39455  -0.37478  -0.35218  -0.33190  -0.33052
 Alpha  occ. eigenvalues --   -0.32555  -0.30420  -0.24800  -0.22554
 Alpha virt. eigenvalues --    0.07915   0.10633   0.11868   0.12020   0.13619
 Alpha virt. eigenvalues --    0.14092   0.15204   0.16299   0.16769   0.17267
 Alpha virt. eigenvalues --    0.18429   0.18652   0.19758   0.21392   0.22720

 Mulliken charges:
               1
     1  C   -0.202805
     2  C   -0.227119
     3  C   -0.104638
     4  C    0.045004
     5  O   -0.265163
     6  C    0.183524
     7  C   -0.213178
     8  O   -0.259239
     9  C    0.031549
    10  H    0.114889
    11  H    0.092176
    12  H    0.105936
    13  H    0.100926
    14  H    0.088683
    15  H    0.103676
    16  H    0.092200
    17  H    0.107881
    18  H    0.098945
    19  H    0.106754
 Sum of Mulliken charges =   0.00000

 Dipole moment (field-independent basis, Debye):
    X=             -0.2231    Y=              1.1237    Z=              0.0553  Tot=              1.1470
 Quadrupole moment (field-independent basis, Debye-Ang):
   XX=            -49.9834   YY=            -51.1005   ZZ=            -56.3089
   XY=              2.7586   XZ=              0.8207   YZ=              0.3928

  Exact polarizability:  77.296   3.054  77.728   0.673   0.322  63.612
 Approx polarizability: 103.568   3.127 111.022   0.192   0.136 105.020

                      1                      2                      3
                      A                      A                      A
 Frequencies --    152.0520               246.6955               272.6790
 Red. masses --      2.7707                 2.6036                 4.1268
 Frc consts  --      0.0377                 0.0934                 0.1808
 IR Inten    --      0.7697                 2.0030                 5.8830

                      4                      5                      6
                      A                      A                      A
 Frequencies --    375.7637               394.6021               509.4597
 Red. masses --      2.1260                 3.7658                 3.2625
 Frc consts  --      0.1769                 0.3455                 0.4989
 IR Inten    --      0.9234                 0.5773                 1.3329

                      7                      8                      9
                      A                      A                      A
 Frequencies --    595.9104               656.5103               713.5586
 Red. masses --      2.9348                 2.9145                 3.0327
 Frc consts  --      0.6140                 0.7401                 0.9098
 IR Inten    --      3.3279                 3.1980                10.7316

                     10                     11                     12
                      A                      A                      A
 Frequencies --    744.4511               761.7626               802.1044
 Red. masses --      4.8933                 2.1772                 6.1843
 Frc consts  --      1.5978                 0.7444                 2.3442
 IR Inten    --     12.2490                15.3546                 3.9197

                     13                     14                     15
                      A                      A                      A
 Frequencies --    812.9985               851.5649               898.1272
 Red. masses --      2.3481                 1.6918                 2.6445
 Frc consts  --      0.9144                 0.7228                 1.2568
 IR Inten    --      1.2651                 5.6207                15.8807

                     16                     17                     18
                      A                      A                      A
 Frequencies --    915.3481               928.0061               966.5058
 Red. masses --      2.0236                 2.4284                 2.8650
 Frc consts  --      0.9989                 1.2322                 1.5768
 IR Inten    --      3.5325                27.6874                17.1267

                     19                     20                     21
                      A                      A                      A
 Frequencies --   1032.9212              1048.7911              1072.0326
 Red. masses --      2.1280                 2.0423                 2.1936
 Frc consts  --      1.3377                 1.3236                 1.4853
 IR Inten    --     14.4426                 4.2965                 3.0636

                     22                     23                     24
                      A                      A                      A
 Frequencies --   1085.3824              1086.8963              1102.2644
 Red. masses --      2.5309                 1.3722                 2.0605
 Frc consts  --      1.7567                 0.9551                 1.4750
 IR Inten    --     28.4036                 3.4029                 7.2296

                     25                     26                     27
                      A                      A                      A
 Frequencies --   1127.5444              1153.5304              1197.2638
 Red. masses --      2.3394                 2.2871                 1.2502
 Frc consts  --      1.7523                 1.7930                 1.0559
 IR Inten    --      7.9365                63.8828                 2.9205

                     28                     29                     30
                      A                      A                      A
 Frequencies --   1205.5321              1242.8980              1289.7871
 Red. masses --      1.6967                 1.5430                 1.1814
 Frc consts  --      1.4528                 1.4044                 1.1580
 IR Inten    --     94.2096                12.2254                 0.6517

                     31                     32                     33
                      A                      A                      A
 Frequencies --   1295.7341              1340.1207              1359.1273
 Red. masses --      1.1791                 1.3463                 1.5583
 Frc consts  --      1.1663                 1.4246                 1.6960
 IR Inten    --      1.9108                 5.4635                 6.2805

                     34                     35                     36
                      A                      A                      A
 Frequencies --   1374.6083              1383.4583              1387.9240
 Red. masses --      1.5061                 1.4362                 1.3996
 Frc consts  --      1.6768                 1.6195                 1.5885
 IR Inten    --      6.1076                12.4702                 5.0090

                     37                     38                     39
                      A                      A                      A
 Frequencies --   1408.1123              1424.2240              1471.6401
 Red. masses --      1.4062                 2.3265                 1.0865
 Frc consts  --      1.6427                 2.7804                 1.3864
 IR Inten    --      9.3465                16.3661                 2.9422

                     40                     41                     42
                      A                      A                      A
 Frequencies --   1484.0672              1492.0484              3017.7964
 Red. masses --      1.0879                 1.0965                 1.0634
 Frc consts  --      1.4117                 1.4382                 5.7061
 IR Inten    --      4.8325                 3.1344                31.2569

                     43                     44                     45
                      A                      A                      A
 Frequencies --   3028.6302              3040.0110              3046.7490
 Red. masses --      1.0696                 1.0690                 1.0752
 Frc consts  --      5.7807                 5.8207                 5.8805
 IR Inten    --      4.2802                34.5554                76.1292

                     46                     47                     48
                      A                      A                      A
 Frequencies --   3061.1595              3073.9085              3090.8985
 Red. masses --      1.0940                 1.1031                 1.1020
 Frc consts  --      6.0401                 6.1411                 6.2032
 IR Inten    --     31.4607                14.9552                40.8324

                     49                     50                     51
                      A                      A                      A
 Frequencies --   3124.5673              3184.5805              3194.8478
 Red. masses --      1.0871                 1.0894                 1.0962
 Frc consts  --      6.2531                 6.5096                 6.5923
 IR Inten    --     16.7646                12.0033                24.3195

 - Thermochemistry -
 -------------------
 Temperature   298.150 Kelvin.  Pressure   1.00000 Atm.
 Atom     1 has atomic number  6 and mass  12.00000

 Molecular mass:   126.06808 amu.
 Principal axes and moments of inertia in atomic units:
                           1         2         3
     Eigenvalues --   732.49592 844.203961097.30690
           X            0.99659   0.08206   0.00816
           Y           -0.08209   0.99662   0.00412
           Z           -0.00780  -0.00478   0.99996
 This molecule is an asymmetric top.
 Rotational symmetry number  1.
 Warning -- assumption of classical behavior for rotation
           may cause significant error
 Rotational temperatures (Kelvin)      0.11824     0.10260     0.07893
 Rotational constants (GHZ):           2.46382     2.13780     1.64470
 Zero-point vibrational energy     427827.4 (Joules/Mol)
                                  102.25320 (Kcal/Mol)
 Warning -- explicit consideration of   7 degrees of freedom as
           vibrations may cause significant error
 Vibrational temperatures:    218.77   354.94   392.32   540.64   567.74
          (Kelvin)            733.00   857.38   944.57  1026.65  1071.10
                             1096.01  1154.05  1169.72  1225.21  1292.20
                             1316.98  1335.19  1390.58  1486.14  1508.97
                             1542.41  1561.62  1563.80  1585.91  1622.28
                             1659.67  1722.59  1734.49  1788.25  1855.71
                             1864.27  1928.13  1955.48  1977.75  1990.49
                             1996.91  2025.96  2049.14  2117.36  2135.24
                             2146.72  4341.93  4357.52  4373.89  4383.59
                             4404.32  4422.66  4447.11  4495.55  4581.90
                             4596.67

 Zero-point correction=                           0.162951 (Hartree/Particle)
 Thermal correction to Energy=                    0.169589
 Thermal correction to Enthalpy=                  0.170533
 Thermal correction to Gibbs Free Energy=         0.132224
 Sum of electronic and zero-point Energies=           -423.021915
 Sum of electronic and thermal Energies=              -423.015277
 Sum of electronic and thermal Enthalpies=            -423.014333
 Sum of electronic and thermal Free Energies=         -423.052642

                     E (Thermal)             CV                S
                      KCal/Mol        Cal/Mol-Kelvin    Cal/Mol-Kelvin
 Total                  106.419             27.764             80.629
 Electronic               0.000              0.000              0.000
 Translational            0.889              2.981             40.409
 Rotational               0.889              2.981             28.008
 Vibrational            104.641             21.802             12.212
 Vibration     1          0.619              1.900              2.646
 Vibration     2          0.661              1.768              1.754
 Vibration     3          0.676              1.724              1.579
 Vibration     4          0.747              1.522              1.056
 Vibration     5          0.762              1.482              0.983
 Vibration     6          0.865              1.229              0.635
 Vibration     7          0.954              1.040              0.457

 Optimization completed.
    -- Stationary point found.
 Normal termination of Gaussian 09 at Mon Jan 27 12:08:10 2020.
