 Gaussian 09, Revision D.01,
 Gaussian 09:  ES64L-G09RevD.01 24-Apr-2013

 -----------------------------
 # b3lyp 6-31G(2df,p) opt Freq
 -----------------------------

 -----
 titel
 -----
 Symbolic Z-matrix:
 Charge =  0 Multiplicity = 1

 SCF Done:  E(RB3LYP) =  -423.177503604     A.U. after   13 cycles
 Optimization completed.
    -- Stationary point found.
 Normal termination of Gaussian 09 at Mon Jan 27 19:02:47 2020.

 ----------------------------------------------------------------------
 #N Geom=AllCheck Guess=TCheck SCRF=Check GenChk RB3LYP/6-31G(2df,p) Fr
 eq
 ----------------------------------------------------------------------

 Structure from the checkpoint file:  "/scratch/puck/g09_6d3c85e1-b550-4413-9ef2-a223580cf0cd/Gau-55313.chk"
 -----
 titel
 -----
 Charge =  0 Multiplicity = 1

                         Standard orientation:
 ---------------------------------------------------------------------
 Center     Atomic      Atomic             Coordinates (Angstroms)
 Number     Number       Type             X           Y           Z
 ---------------------------------------------------------------------
      1          8           0        1.897822    1.160738   -0.034848
      2          6           0        0.636545    0.573231   -0.109621
      3          6           0       -0.480583    1.563013   -0.416300
      4          6           0       -1.717327    0.906890    0.269354
      5          6           0       -1.264071   -0.545885    0.515846
      6          6           0       -0.889292   -1.196670   -0.852349
      7          6           0        0.601511   -0.836213   -0.809665
      8          8           0        1.001234   -1.431927    0.470280
      9          6           0        0.192095   -0.370504    1.046069
     10          1           0        2.511360    0.459538    0.221934
     11          1           0       -0.235421    2.539876    0.007514
     12          1           0       -0.620326    1.702540   -1.492642
     13          1           0       -1.934957    1.406596    1.220064
     14          1           0       -2.624348    0.961151   -0.339116
     15          1           0       -1.938291   -1.135568    1.136470
     16          1           0       -1.014189   -2.281565   -0.862870
     17          1           0       -1.436077   -0.766422   -1.696158
     18          1           0        1.255300   -1.095016   -1.643850
     19          1           0        0.371239   -0.184796    2.105205
 ---------------------------------------------------------------------

 SCF Done:  E(RB3LYP) =  -423.177503604     A.U. after    1 cycles

 The electronic state is 1-A.
 Alpha  occ. eigenvalues --  -19.14104 -19.13715 -10.23685 -10.23275 -10.22679
 Alpha  occ. eigenvalues --  -10.19037 -10.18620 -10.18424 -10.18193  -1.06056
 Alpha  occ. eigenvalues --   -1.01407  -0.84246  -0.73926  -0.71030  -0.68635
 Alpha  occ. eigenvalues --   -0.61520  -0.55693  -0.54530  -0.53019  -0.48693
 Alpha  occ. eigenvalues --   -0.46972  -0.45942  -0.41520  -0.40046  -0.38059
 Alpha  occ. eigenvalues --   -0.37802  -0.36790  -0.35348  -0.33762  -0.33489
 Alpha  occ. eigenvalues --   -0.32507  -0.30401  -0.25150  -0.24374
 Alpha virt. eigenvalues --    0.08366   0.09164   0.09321   0.11405   0.12770
 Alpha virt. eigenvalues --    0.13878   0.14742   0.15574   0.16839   0.17083
 Alpha virt. eigenvalues --    0.17906   0.19271   0.19925   0.20490   0.22461

 Mulliken charges:
               1
     1  O   -0.513582
     2  C    0.492995
     3  C   -0.292906
     4  C   -0.220621
     5  C   -0.053939
     6  C   -0.224958
     7  C   -0.011002
     8  O   -0.324377
     9  C    0.008352
    10  H    0.283679
    11  H    0.114962
    12  H    0.105544
    13  H    0.101047
    14  H    0.101174
    15  H    0.069549
    16  H    0.109820
    17  H    0.097859
    18  H    0.076696
    19  H    0.079708
 Sum of Mulliken charges =   0.00000

 Dipole moment (field-independent basis, Debye):
    X=             -1.3011    Y=              0.0477    Z=             -0.2815  Tot=              1.3321
 Quadrupole moment (field-independent basis, Debye-Ang):
   XX=            -52.3752   YY=            -57.4934   ZZ=            -50.6389
   XY=             -1.1482   XZ=             -0.1721   YZ=              1.9303

  Exact polarizability:  76.017  -0.694  72.596  -0.528   1.937  69.135
 Approx polarizability: 109.024  -1.866 106.576   0.537   0.761 107.600

                      1                      2                      3
                      A                      A                      A
 Frequencies --    212.4393               274.4510               325.8826
 Red. masses --      1.9387                 3.5549                 3.5983
 Frc consts  --      0.0516                 0.1578                 0.2251
 IR Inten    --      1.0757                 5.2515                10.8150

                      4                      5                      6
                      A                      A                      A
 Frequencies --    379.9505               418.5960               484.9533
 Red. masses --      2.3449                 1.9602                 1.3497
 Frc consts  --      0.1994                 0.2024                 0.1870
 IR Inten    --      1.0266                 3.5795                72.0228

                      7                      8                      9
                      A                      A                      A
 Frequencies --    504.9726               579.5821               627.4331
 Red. masses --      3.5939                 3.8521                 4.6550
 Frc consts  --      0.5399                 0.7624                 1.0797
 IR Inten    --      9.7778                 1.6340                 6.9673

                     10                     11                     12
                      A                      A                      A
 Frequencies --    678.4474               725.5350               806.1869
 Red. masses --      3.8477                 3.1777                 1.8603
 Frc consts  --      1.0435                 0.9856                 0.7123
 IR Inten    --      1.6754                 2.1875                 2.9463

                     13                     14                     15
                      A                      A                      A
 Frequencies --    836.3052               854.7675               896.8368
 Red. masses --      2.3738                 3.7204                 2.1833
 Frc consts  --      0.9782                 1.6015                 1.0346
 IR Inten    --      1.7253                28.2088                 8.0156

                     16                     17                     18
                      A                      A                      A
 Frequencies --    905.8762               932.2115               949.3420
 Red. masses --      2.1701                 2.4643                 2.8446
 Frc consts  --      1.0492                 1.2617                 1.5105
 IR Inten    --     10.5652                 8.9716                10.5468

                     19                     20                     21
                      A                      A                      A
 Frequencies --    960.0354               996.5619              1017.1157
 Red. masses --      2.4538                 2.0229                 2.2085
 Frc consts  --      1.3325                 1.1836                 1.3461
 IR Inten    --     14.8206                 1.2131                 1.5613

                     22                     23                     24
                      A                      A                      A
 Frequencies --   1026.4611              1066.3213              1095.4465
 Red. masses --      1.8618                 1.4158                 2.3803
 Frc consts  --      1.1558                 0.9485                 1.6829
 IR Inten    --      3.6277                 7.3060                33.2696

                     25                     26                     27
                      A                      A                      A
 Frequencies --   1120.8036              1138.4857              1176.9138
 Red. masses --      1.5243                 1.9328                 1.6727
 Frc consts  --      1.1282                 1.4760                 1.3651
 IR Inten    --     40.3221                12.9542                28.9943

                     28                     29                     30
                      A                      A                      A
 Frequencies --   1201.6986              1214.6434              1235.6735
 Red. masses --      1.5128                 1.5756                 1.3062
 Frc consts  --      1.2871                 1.3696                 1.1750
 IR Inten    --      8.0767                 3.2724                 0.2754

                     31                     32                     33
                      A                      A                      A
 Frequencies --   1259.3700              1277.3382              1291.9045
 Red. masses --      1.4234                 1.7583                 1.4312
 Frc consts  --      1.3301                 1.6903                 1.4074
 IR Inten    --     15.4316                24.1237                 2.3584

                     34                     35                     36
                      A                      A                      A
 Frequencies --   1307.4532              1315.8080              1347.8803
 Red. masses --      1.3894                 1.6555                 1.4753
 Frc consts  --      1.3993                 1.6888                 1.5792
 IR Inten    --      2.5861                 0.4174                 2.3701

                     37                     38                     39
                      A                      A                      A
 Frequencies --   1362.3291              1412.8528              1483.4856
 Red. masses --      2.1589                 1.9515                 1.1111
 Frc consts  --      2.3607                 2.2952                 1.4406
 IR Inten    --     58.6295                45.8853                 4.4632

                     40                     41                     42
                      A                      A                      A
 Frequencies --   1488.1098              1508.6181              3040.6012
 Red. masses --      1.0815                 1.1070                 1.0633
 Frc consts  --      1.4110                 1.4845                 5.7920
 IR Inten    --      1.4905                 5.0480                33.3563

                     43                     44                     45
                      A                      A                      A
 Frequencies --   3057.1463              3061.9527              3086.8061
 Red. masses --      1.0640                 1.0602                 1.0985
 Frc consts  --      5.8590                 5.8563                 6.1670
 IR Inten    --     23.2649                22.4771                16.6676

                     46                     47                     48
                      A                      A                      A
 Frequencies --   3106.5946              3109.5598              3113.1106
 Red. masses --      1.1018                 1.0957                 1.0898
 Frc consts  --      6.2651                 6.2420                 6.2226
 IR Inten    --     19.7547                26.3233                54.0859

                     49                     50                     51
                      A                      A                      A
 Frequencies --   3117.1620              3126.2749              3765.8292
 Red. masses --      1.1004                 1.0925                 1.0647
 Frc consts  --      6.2997                 6.2912                 8.8958
 IR Inten    --     25.1404                30.9664                21.9216

 - Thermochemistry -
 -------------------
 Temperature   298.150 Kelvin.  Pressure   1.00000 Atm.
 Atom     1 has atomic number  8 and mass  15.99491

 Molecular mass:   126.06808 amu.
 Principal axes and moments of inertia in atomic units:
                           1         2         3
     Eigenvalues --   730.98068 827.238811161.53584
           X            0.99818  -0.06033  -0.00117
           Y            0.06034   0.99787   0.02479
           Z           -0.00033  -0.02481   0.99969
 This molecule is an asymmetric top.
 Rotational symmetry number  1.
 Warning -- assumption of classical behavior for rotation
           may cause significant error
 Rotational temperatures (Kelvin)      0.11849     0.10470     0.07457
 Rotational constants (GHZ):           2.46893     2.18164     1.55375
 Zero-point vibrational energy     426373.7 (Joules/Mol)
                                  101.90576 (Kcal/Mol)
 Warning -- explicit consideration of   8 degrees of freedom as
           vibrations may cause significant error
 Vibrational temperatures:    305.65   394.87   468.87   546.66   602.27
          (Kelvin)            697.74   726.54   833.89   902.74   976.13
                             1043.88  1159.92  1203.26  1229.82  1290.35
                             1303.35  1341.24  1365.89  1381.28  1433.83
                             1463.40  1476.85  1534.20  1576.10  1612.58
                             1638.02  1693.31  1728.97  1747.60  1777.86
                             1811.95  1837.80  1858.76  1881.13  1893.15
                             1939.30  1960.09  2032.78  2134.40  2141.06
                             2170.56  4374.74  4398.55  4405.46  4441.22
                             4469.69  4473.96  4479.07  4484.90  4498.01
                             5418.18

 Zero-point correction=                           0.162397 (Hartree/Particle)
 Thermal correction to Energy=                    0.169051
 Thermal correction to Enthalpy=                  0.169995
 Thermal correction to Gibbs Free Energy=         0.131895
 Sum of electronic and zero-point Energies=           -423.015106
 Sum of electronic and thermal Energies=              -423.008453
 Sum of electronic and thermal Enthalpies=            -423.007509
 Sum of electronic and thermal Free Energies=         -423.045609

                     E (Thermal)             CV                S
                      KCal/Mol        Cal/Mol-Kelvin    Cal/Mol-Kelvin
 Total                  106.081             28.747             80.188
 Electronic               0.000              0.000              0.000
 Translational            0.889              2.981             40.409
 Rotational               0.889              2.981             28.043
 Vibrational            104.304             22.786             11.737
 Vibration     1          0.643              1.822              2.023
 Vibration     2          0.677              1.721              1.568
 Vibration     3          0.710              1.624              1.280
 Vibration     4          0.750              1.513              1.039
 Vibration     5          0.781              1.430              0.897
 Vibration     6          0.841              1.283              0.697
 Vibration     7          0.860              1.239              0.646
 Vibration     8          0.936              1.075              0.486

 Optimization completed.
    -- Stationary point found.
 Normal termination of Gaussian 09 at Mon Jan 27 19:47:08 2020.
