 Gaussian 09, Revision D.01,
 Gaussian 09:  ES64L-G09RevD.01 24-Apr-2013

 -----------------------------
 # b3lyp 6-31G(2df,p) opt Freq
 -----------------------------

 -----
 titel
 -----
 Symbolic Z-matrix:
 Charge =  0 Multiplicity = 1

 SCF Done:  E(RB3LYP) =  -423.171307959     A.U. after   14 cycles
 SCF Done:  E(RB3LYP) =  -423.171307908     A.U. after    7 cycles
 SCF Done:  E(RB3LYP) =  -423.171307939     A.U. after    7 cycles
 Optimization completed.
    -- Stationary point found.
 Normal termination of Gaussian 09 at Mon Jan 27 14:25:00 2020.

 ----------------------------------------------------------------------
 #N Geom=AllCheck Guess=TCheck SCRF=Check GenChk RB3LYP/6-31G(2df,p) Fr
 eq
 ----------------------------------------------------------------------

 Structure from the checkpoint file:  "/scratch/puck/g09_554eeb95-33a2-41c9-92d9-3a058b6c3214/Gau-4144.chk"
 -----
 titel
 -----
 Charge =  0 Multiplicity = 1

                         Standard orientation:
 ---------------------------------------------------------------------
 Center     Atomic      Atomic             Coordinates (Angstroms)
 Number     Number       Type             X           Y           Z
 ---------------------------------------------------------------------
      1          6           0        3.425645   -0.548770   -0.072179
      2          6           0        2.046875   -0.082159   -0.040289
      3          6           0        0.906320    0.302283   -0.000269
      4          6           0       -0.490499    0.772127    0.053993
      5          6           0       -0.560151    2.259875   -0.315888
      6          8           0       -1.021400    0.671943    1.370386
      7          6           0       -1.354308   -0.060809   -0.926046
      8          6           0       -1.521355   -1.513074   -0.547190
      9          8           0       -1.243128   -1.990710    0.527503
     10          1           0        3.642079   -1.195113    0.785421
     11          1           0        3.630507   -1.125452   -0.980910
     12          1           0        4.131239    0.288736   -0.043624
     13          1           0        0.049765    2.836491    0.382517
     14          1           0       -0.190559    2.429526   -1.330403
     15          1           0       -1.595152    2.606587   -0.244536
     16          1           0       -0.985389   -0.268037    1.599287
     17          1           0       -2.367240    0.367183   -0.971762
     18          1           0       -0.955633   -0.013364   -1.946853
     19          1           0       -1.958548   -2.153256   -1.345039
 ---------------------------------------------------------------------

 SCF Done:  E(RB3LYP) =  -423.171307939     A.U. after    1 cycles

 The electronic state is 1-A.
 Alpha  occ. eigenvalues --  -19.15615 -19.12496 -10.28629 -10.26256 -10.20404
 Alpha  occ. eigenvalues --  -10.20346 -10.17755 -10.17574 -10.16464  -1.06277
 Alpha  occ. eigenvalues --   -1.01335  -0.80483  -0.77017  -0.73101  -0.69393
 Alpha  occ. eigenvalues --   -0.62023  -0.57867  -0.53012  -0.49318  -0.46768
 Alpha  occ. eigenvalues --   -0.45632  -0.44412  -0.43415  -0.42643  -0.42474
 Alpha  occ. eigenvalues --   -0.39779  -0.38558  -0.37550  -0.37179  -0.34220
 Alpha  occ. eigenvalues --   -0.27887  -0.26758  -0.25208  -0.24514
 Alpha virt. eigenvalues --   -0.03291   0.05018   0.05848   0.08954   0.11078
 Alpha virt. eigenvalues --    0.11581   0.13205   0.15122   0.16556   0.17374
 Alpha virt. eigenvalues --    0.17805   0.18251   0.19314   0.20013   0.21641

 Mulliken charges:
               1
     1  C   -0.498173
     2  C   -0.014414
     3  C    0.133665
     4  C    0.160645
     5  C   -0.398140
     6  O   -0.450522
     7  C   -0.316802
     8  C    0.163387
     9  O   -0.251540
    10  H    0.153872
    11  H    0.146885
    12  H    0.149250
    13  H    0.136028
    14  H    0.116920
    15  H    0.118789
    16  H    0.294165
    17  H    0.135766
    18  H    0.127088
    19  H    0.093130
 Sum of Mulliken charges =   0.00000

 Dipole moment (field-independent basis, Debye):
    X=              0.4532    Y=             -0.0695    Z=             -2.8167  Tot=              2.8538
 Quadrupole moment (field-independent basis, Debye-Ang):
   XX=            -45.3990   YY=            -55.4665   ZZ=            -53.4507
   XY=             -1.1167   XZ=              3.9094   YZ=              0.6589

  Exact polarizability:  97.886  -7.300  76.520   2.624  -0.733  66.660
 Approx polarizability: 139.121 -16.664 104.520   1.136  -4.712 106.325

 ******    1 imaginary frequencies (negative Signs) ******

                      1                      2                      3
                      A                      A                      A
 Frequencies --     -4.8115                69.0906               101.0268
 Red. masses --      1.0172                 5.0797                 3.1944
 Frc consts  --      0.0000                 0.0143                 0.0192
 IR Inten    --      0.0240                 0.8897                 7.4116

                      4                      5                      6
                      A                      A                      A
 Frequencies --    134.4163               160.1743               211.0589
 Red. masses --      3.8802                 2.0812                 4.8370
 Frc consts  --      0.0413                 0.0315                 0.1269
 IR Inten    --      1.0605                 0.3182                 2.8876

                      7                      8                      9
                      A                      A                      A
 Frequencies --    237.4310               288.6769               303.7671
 Red. masses --      1.0660                 3.3154                 3.5020
 Frc consts  --      0.0354                 0.1628                 0.1904
 IR Inten    --      0.3336                 1.5494                10.2733

                     10                     11                     12
                      A                      A                      A
 Frequencies --    344.6946               366.5016               401.6781
 Red. masses --      3.7625                 3.2038                 3.6810
 Frc consts  --      0.2634                 0.2536                 0.3499
 IR Inten    --      2.5789                 3.3380                 8.4866

                     13                     14                     15
                      A                      A                      A
 Frequencies --    532.2744               552.7718               582.9477
 Red. masses --      3.9748                 2.7420                 1.5531
 Frc consts  --      0.6635                 0.4936                 0.3110
 IR Inten    --      4.9141                34.2558               124.7612

                     16                     17                     18
                      A                      A                      A
 Frequencies --    615.1520               699.6016               814.8393
 Red. masses --      2.8245                 2.1186                 2.4877
 Frc consts  --      0.6297                 0.6109                 0.9732
 IR Inten    --      2.5681                 0.7788                10.9434

                     19                     20                     21
                      A                      A                      A
 Frequencies --    849.3367               929.7027               970.1560
 Red. masses --      2.9357                 2.5852                 1.6884
 Frc consts  --      1.2477                 1.3165                 0.9363
 IR Inten    --      2.7783                25.8542                12.2004

                     22                     23                     24
                      A                      A                      A
 Frequencies --   1019.4615              1046.8214              1052.3380
 Red. masses --      1.4682                 2.7079                 1.4147
 Frc consts  --      0.8990                 1.7484                 0.9230
 IR Inten    --      7.1503                12.8598                 0.4853

                     25                     26                     27
                      A                      A                      A
 Frequencies --   1054.6317              1095.5314              1169.5217
 Red. masses --      1.4535                 2.7676                 2.3368
 Frc consts  --      0.9525                 1.9570                 1.8832
 IR Inten    --      1.4979                34.9494                22.5618

                     28                     29                     30
                      A                      A                      A
 Frequencies --   1206.3700              1284.2192              1336.5054
 Red. masses --      2.2299                 1.8879                 1.6876
 Frc consts  --      1.9121                 1.8345                 1.7760
 IR Inten    --     28.7435                45.5491                36.3118

                     31                     32                     33
                      A                      A                      A
 Frequencies --   1399.5676              1413.3553              1414.9314
 Red. masses --      1.2341                 1.2280                 1.1849
 Frc consts  --      1.4242                 1.4453                 1.3977
 IR Inten    --     14.0653                18.3116                 8.6674

                     34                     35                     36
                      A                      A                      A
 Frequencies --   1430.4313              1432.7250              1477.2347
 Red. masses --      1.3849                 1.1676                 1.0397
 Frc consts  --      1.6696                 1.4121                 1.3368
 IR Inten    --     95.3670                10.9960                 6.0793

                     37                     38                     39
                      A                      A                      A
 Frequencies --   1478.2811              1479.8989              1494.4315
 Red. masses --      1.0402                 1.0529                 1.0520
 Frc consts  --      1.3393                 1.3586                 1.3843
 IR Inten    --      6.7052                 0.4761                 0.4164

                     40                     41                     42
                      A                      A                      A
 Frequencies --   1812.8959              2365.7369              2889.0613
 Red. masses --      9.7559                11.8927                 1.0836
 Frc consts  --     18.8913                39.2161                 5.3289
 IR Inten    --    118.8680                11.8037               133.7833

                     43                     44                     45
                      A                      A                      A
 Frequencies --   3011.8475              3028.1433              3048.0169
 Red. masses --      1.0651                 1.0347                 1.0347
 Frc consts  --      5.6924                 5.5902                 5.6638
 IR Inten    --     14.5297                30.3910                15.4387

                     46                     47                     48
                      A                      A                      A
 Frequencies --   3064.1834              3088.7716              3090.6918
 Red. masses --      1.0940                 1.1002                 1.1002
 Frc consts  --      6.0520                 6.1843                 6.1920
 IR Inten    --      8.2468                10.2235                 8.6277

                     49                     50                     51
                      A                      A                      A
 Frequencies --   3125.3152              3138.1573              3732.8347
 Red. masses --      1.1022                 1.1023                 1.0653
 Frc consts  --      6.3432                 6.3961                 8.7460
 IR Inten    --     22.1487                13.8819                94.9796

 - Thermochemistry -
 -------------------
 Temperature   298.150 Kelvin.  Pressure   1.00000 Atm.
 Atom     1 has atomic number  6 and mass  12.00000

 Molecular mass:   126.06808 amu.
 Principal axes and moments of inertia in atomic units:
                           1         2         3
     Eigenvalues --   934.427311497.286181987.25828
           X            0.99860  -0.05020   0.01660
           Y            0.05029   0.99872  -0.00540
           Z           -0.01631   0.00623   0.99985
 This molecule is an asymmetric top.
 Rotational symmetry number  1.
 Warning -- assumption of classical behavior for rotation
           may cause significant error
 Rotational temperatures (Kelvin)      0.09269     0.05785     0.04358
 Rotational constants (GHZ):           1.93139     1.20534     0.90816
    1 imaginary frequencies ignored.
 Zero-point vibrational energy     405816.4 (Joules/Mol)
                                   96.99246 (Kcal/Mol)
 Warning -- explicit consideration of  15 degrees of freedom as
           vibrations may cause significant error
 Vibrational temperatures:     99.41   145.35   193.39   230.45   303.67
          (Kelvin)            341.61   415.34   437.05   495.94   527.31
                              577.92   765.82   795.31   838.73   885.07
                             1006.57  1172.37  1222.00  1337.63  1395.84
                             1466.78  1506.14  1514.08  1517.38  1576.22
                             1682.68  1735.70  1847.70  1922.93  2013.66
                             2033.50  2035.77  2058.07  2061.37  2125.41
                             2126.91  2129.24  2150.15  2608.35  3403.76
                             4156.71  4333.37  4356.82  4385.41  4408.67
                             4444.05  4446.81  4496.63  4515.10  5370.71

 Zero-point correction=                           0.154567 (Hartree/Particle)
 Thermal correction to Energy=                    0.164458
 Thermal correction to Enthalpy=                  0.165402
 Thermal correction to Gibbs Free Energy=         0.119590
 Sum of electronic and zero-point Energies=           -423.016741
 Sum of electronic and thermal Energies=              -423.006850
 Sum of electronic and thermal Enthalpies=            -423.005906
 Sum of electronic and thermal Free Energies=         -423.051718

                     E (Thermal)             CV                S
                      KCal/Mol        Cal/Mol-Kelvin    Cal/Mol-Kelvin
 Total                  103.199             35.705             96.419
 Electronic               0.000              0.000              0.000
 Translational            0.889              2.981             40.409
 Rotational               0.889              2.981             29.410
 Vibrational            101.421             29.743             26.601
 Vibration     1          0.598              1.969              4.179
 Vibration     2          0.604              1.948              3.434
 Vibration     3          0.613              1.919              2.882
 Vibration     4          0.622              1.891              2.548
 Vibration     5          0.643              1.824              2.034
 Vibration     6          0.656              1.783              1.822
 Vibration     7          0.685              1.695              1.482
 Vibration     8          0.695              1.667              1.396
 Vibration     9          0.723              1.586              1.190
 Vibration    10          0.739              1.541              1.094
 Vibration    11          0.767              1.467              0.957
 Vibration    12          0.887              1.179              0.582
 Vibration    13          0.908              1.134              0.538
 Vibration    14          0.940              1.068              0.480
 Vibration    15          0.975              1.000              0.424

 Normal termination of Gaussian 09 at Mon Jan 27 16:02:20 2020.
