 Gaussian 09, Revision D.01,
 Gaussian 09:  ES64L-G09RevD.01 24-Apr-2013

 -----------------------------
 # b3lyp 6-31G(2df,p) opt Freq
 -----------------------------

 -----
 titel
 -----
 Symbolic Z-matrix:
 Charge =  0 Multiplicity = 1

 SCF Done:  E(RB3LYP) =  -423.166156794     A.U. after   14 cycles
 Optimization completed.
    -- Stationary point found.
 Normal termination of Gaussian 09 at Mon Jan 27 14:10:06 2020.

 ----------------------------------------------------------------------
 #N Geom=AllCheck Guess=TCheck SCRF=Check GenChk RB3LYP/6-31G(2df,p) Fr
 eq
 ----------------------------------------------------------------------

 Structure from the checkpoint file:  "/scratch/puck/g09_b11f6fda-b73b-456a-ac54-cb07e4023132/Gau-31500.chk"
 -----
 titel
 -----
 Charge =  0 Multiplicity = 1

                         Standard orientation:
 ---------------------------------------------------------------------
 Center     Atomic      Atomic             Coordinates (Angstroms)
 Number     Number       Type             X           Y           Z
 ---------------------------------------------------------------------
      1          6           0       -2.462009    0.329837    0.594913
      2          6           0       -1.434216   -0.460195   -0.178780
      3          8           0       -1.510251   -1.653673   -0.372734
      4          6           0       -0.225923    0.292862   -0.721971
      5          8           0       -0.169052    1.693915   -0.381637
      6          6           0        1.109234    1.543280    0.283250
      7          6           0        1.101604    0.043746    0.007646
      8          6           0        2.224551   -0.862618   -0.381357
      9          6           0        1.473088   -1.091093    0.911159
     10          1           0       -1.998752    0.776323    1.481333
     11          1           0       -2.827351    1.167926   -0.007618
     12          1           0       -3.285347   -0.322447    0.887848
     13          1           0       -0.184063    0.132721   -1.808516
     14          1           0        1.897188    2.116147   -0.221975
     15          1           0        1.059612    1.847710    1.336549
     16          1           0        2.052354   -1.557313   -1.196906
     17          1           0        3.235403   -0.470081   -0.328921
     18          1           0        0.794845   -1.935945    0.959191
     19          1           0        1.972553   -0.851895    1.844826
 ---------------------------------------------------------------------

 SCF Done:  E(RB3LYP) =  -423.166156794     A.U. after    1 cycles

 The electronic state is 1-A.
 Alpha  occ. eigenvalues --  -19.14440 -19.13074 -10.26978 -10.24196 -10.23885
 Alpha  occ. eigenvalues --  -10.21102 -10.19412 -10.19262 -10.18587  -1.05255
 Alpha  occ. eigenvalues --   -1.03721  -0.86440  -0.75550  -0.70455  -0.69272
 Alpha  occ. eigenvalues --   -0.61147  -0.57490  -0.52214  -0.50345  -0.49948
 Alpha  occ. eigenvalues --   -0.47973  -0.44814  -0.43819  -0.42966  -0.41098
 Alpha  occ. eigenvalues --   -0.39130  -0.37320  -0.36999  -0.35741  -0.32991
 Alpha  occ. eigenvalues --   -0.30390  -0.28809  -0.27581  -0.23352
 Alpha virt. eigenvalues --   -0.01716   0.06631   0.09596   0.10140   0.10399
 Alpha virt. eigenvalues --    0.13011   0.13433   0.14767   0.15542   0.16451
 Alpha virt. eigenvalues --    0.17649   0.18270   0.18941   0.21749   0.22644

 Mulliken charges:
               1
     1  C   -0.474923
     2  C    0.353515
     3  O   -0.312102
     4  C   -0.028784
     5  O   -0.295085
     6  C   -0.140112
     7  C    0.291391
     8  C   -0.321872
     9  C   -0.326183
    10  H    0.146807
    11  H    0.151566
    12  H    0.135964
    13  H    0.105277
    14  H    0.107656
    15  H    0.106047
    16  H    0.127764
    17  H    0.115235
    18  H    0.143500
    19  H    0.114339
 Sum of Mulliken charges =   0.00000

 Dipole moment (field-independent basis, Debye):
    X=              1.4022    Y=              1.2187    Z=              0.8687  Tot=              2.0508
 Quadrupole moment (field-independent basis, Debye-Ang):
   XX=            -49.9422   YY=            -60.0380   ZZ=            -50.9820
   XY=             -1.7681   XZ=             -0.5960   YZ=              0.6358

  Exact polarizability:  83.853   0.505  76.477  -1.550   2.660  66.120
 Approx polarizability: 107.521   1.671 119.205  -0.167   4.586 100.051

                      1                      2                      3
                      A                      A                      A
 Frequencies --     35.2768                73.5963               118.9552
 Red. masses --      3.7044                 2.9703                 1.0680
 Frc consts  --      0.0027                 0.0095                 0.0089
 IR Inten    --      4.7966                 0.7406                 0.3586

                      4                      5                      6
                      A                      A                      A
 Frequencies --    147.0218               226.2944               262.4410
 Red. masses --      4.2928                 2.9887                 2.5545
 Frc consts  --      0.0547                 0.0902                 0.1037
 IR Inten    --      2.7465                 6.4253                 4.4021

                      7                      8                      9
                      A                      A                      A
 Frequencies --    312.4204               383.9562               450.2915
 Red. masses --      2.3934                 3.0068                 5.7053
 Frc consts  --      0.1376                 0.2612                 0.6816
 IR Inten    --      2.6187                 1.0937                 0.3735

                     10                     11                     12
                      A                      A                      A
 Frequencies --    483.3523               573.3848               610.8410
 Red. masses --      2.9234                 3.5147                 3.4243
 Frc consts  --      0.4024                 0.6808                 0.7528
 IR Inten    --     13.2893                 3.5629                12.0641

                     13                     14                     15
                      A                      A                      A
 Frequencies --    764.4963               777.3654               863.7324
 Red. masses --      2.4242                 1.1262                 2.3588
 Frc consts  --      0.8348                 0.4010                 1.0368
 IR Inten    --      1.5868                 0.3525                 5.1576

                     16                     17                     18
                      A                      A                      A
 Frequencies --    879.4030               906.7772               932.6952
 Red. masses --      2.3682                 1.7715                 1.6670
 Frc consts  --      1.0791                 0.8582                 0.8544
 IR Inten    --     10.6103                 2.8418                 1.7879

                     19                     20                     21
                      A                      A                      A
 Frequencies --    970.3881               992.4611              1024.2779
 Red. masses --      3.1499                 1.9380                 3.6818
 Frc consts  --      1.7476                 1.1247                 2.2758
 IR Inten    --     31.5483                 4.4535                58.6458

                     22                     23                     24
                      A                      A                      A
 Frequencies --   1036.4129              1049.5673              1065.2728
 Red. masses --      1.8043                 2.7159                 1.7607
 Frc consts  --      1.1419                 1.7628                 1.1772
 IR Inten    --     11.0684                43.7909                 7.3374

                     25                     26                     27
                      A                      A                      A
 Frequencies --   1086.1035              1106.0756              1152.9624
 Red. masses --      1.4510                 2.1503                 1.1211
 Frc consts  --      1.0085                 1.5500                 0.8781
 IR Inten    --      0.6216                 0.0566                 0.5343

                     28                     29                     30
                      A                      A                      A
 Frequencies --   1192.5999              1215.1889              1245.7275
 Red. masses --      1.2776                 1.4757                 2.6327
 Frc consts  --      1.0706                 1.2839                 2.4071
 IR Inten    --      0.1976                11.3549                23.5420

                     31                     32                     33
                      A                      A                      A
 Frequencies --   1254.6970              1314.8798              1335.8216
 Red. masses --      2.4848                 1.4124                 1.5078
 Frc consts  --      2.3047                 1.4387                 1.5852
 IR Inten    --     40.2954                 1.5214                 8.8692

                     34                     35                     36
                      A                      A                      A
 Frequencies --   1381.5997              1403.7810              1449.2684
 Red. masses --      1.3406                 2.1057                 1.0554
 Frc consts  --      1.5077                 2.4448                 1.3061
 IR Inten    --     38.6018                 2.3557                15.9761

                     37                     38                     39
                      A                      A                      A
 Frequencies --   1457.9942              1464.3652              1503.3574
 Red. masses --      1.0875                 1.0527                 1.7139
 Frc consts  --      1.3620                 1.3300                 2.2822
 IR Inten    --      1.7801                 9.7155                 1.9427

                     40                     41                     42
                      A                      A                      A
 Frequencies --   1524.3523              1800.6100              3005.0669
 Red. masses --      1.1009                11.0359                 1.0644
 Frc consts  --      1.5072                21.0813                 5.6632
 IR Inten    --      0.7633               121.6181                88.0758

                     43                     44                     45
                      A                      A                      A
 Frequencies --   3012.1820              3044.1169              3051.2226
 Red. masses --      1.0736                 1.0355                 1.1112
 Frc consts  --      5.7395                 5.6536                 6.0952
 IR Inten    --     14.1721                 0.7899                38.5482

                     46                     47                     48
                      A                      A                      A
 Frequencies --   3104.6333              3125.0608              3130.0650
 Red. masses --      1.0968                 1.0521                 1.0566
 Frc consts  --      6.2287                 6.0537                 6.0989
 IR Inten    --      4.3429                14.3131                 8.0885

                     49                     50                     51
                      A                      A                      A
 Frequencies --   3156.4588              3207.6869              3223.3805
 Red. masses --      1.1042                 1.1176                 1.1155
 Frc consts  --      6.4820                 6.7751                 6.8290
 IR Inten    --     10.8142                 1.5554                 7.3855

 - Thermochemistry -
 -------------------
 Temperature   298.150 Kelvin.  Pressure   1.00000 Atm.
 Atom     1 has atomic number  6 and mass  12.00000

 Molecular mass:   126.06808 amu.
 Principal axes and moments of inertia in atomic units:
                           1         2         3
     Eigenvalues --   733.385811210.967681644.09863
           X            0.99900  -0.04243  -0.01419
           Y            0.04258   0.99904   0.01067
           Z            0.01372  -0.01126   0.99984
 This molecule is an asymmetric top.
 Rotational symmetry number  1.
 Warning -- assumption of classical behavior for rotation
           may cause significant error
 Rotational temperatures (Kelvin)      0.11810     0.07152     0.05268
 Rotational constants (GHZ):           2.46083     1.49033     1.09771
 Zero-point vibrational energy     412053.3 (Joules/Mol)
                                   98.48311 (Kcal/Mol)
 Warning -- explicit consideration of  12 degrees of freedom as
           vibrations may cause significant error
 Vibrational temperatures:     50.76   105.89   171.15   211.53   325.59
          (Kelvin)            377.59   449.50   552.43   647.87   695.44
                              824.97   878.86  1099.94  1118.45  1242.72
                             1265.26  1304.65  1341.94  1396.17  1427.93
                             1473.71  1491.17  1510.09  1532.69  1562.66
                             1591.39  1658.85  1715.88  1748.38  1792.32
                             1805.23  1891.82  1921.95  1987.81  2019.73
                             2085.17  2097.73  2106.89  2162.99  2193.20
                             2590.67  4323.62  4333.85  4379.80  4390.02
                             4466.87  4496.26  4503.46  4541.43  4615.14
                             4637.72

 Zero-point correction=                           0.156943 (Hartree/Particle)
 Thermal correction to Energy=                    0.166119
 Thermal correction to Enthalpy=                  0.167063
 Thermal correction to Gibbs Free Energy=         0.121948
 Sum of electronic and zero-point Energies=           -423.009214
 Sum of electronic and thermal Energies=              -423.000038
 Sum of electronic and thermal Enthalpies=            -422.999094
 Sum of electronic and thermal Free Energies=         -423.044208

                     E (Thermal)             CV                S
                      KCal/Mol        Cal/Mol-Kelvin    Cal/Mol-Kelvin
 Total                  104.241             33.221             94.952
 Electronic               0.000              0.000              0.000
 Translational            0.889              2.981             40.409
 Rotational               0.889              2.981             28.770
 Vibrational            102.464             27.260             25.774
 Vibration     1          0.594              1.982              5.508
 Vibration     2          0.599              1.966              4.055
 Vibration     3          0.609              1.934              3.117
 Vibration     4          0.617              1.906              2.710
 Vibration     5          0.650              1.801              1.908
 Vibration     6          0.670              1.742              1.645
 Vibration     7          0.701              1.650              1.349
 Vibration     8          0.753              1.504              1.024
 Vibration     9          0.809              1.360              0.795
 Vibration    10          0.840              1.287              0.701
 Vibration    11          0.930              1.089              0.498
 Vibration    12          0.970              1.009              0.431

 Normal termination of Gaussian 09 at Mon Jan 27 15:07:00 2020.
