 Gaussian 09, Revision D.01,
 Gaussian 09:  ES64L-G09RevD.01 24-Apr-2013

 -----------------------------
 # b3lyp 6-31G(2df,p) opt Freq
 -----------------------------

 -----
 titel
 -----
 Symbolic Z-matrix:
 Charge =  0 Multiplicity = 1

 SCF Done:  E(RB3LYP) =  -423.165158416     A.U. after   13 cycles
 Optimization completed.
    -- Stationary point found.
 Normal termination of Gaussian 09 at Mon Jan 27 23:10:22 2020.

 ----------------------------------------------------------------------
 #N Geom=AllCheck Guess=TCheck SCRF=Check GenChk RB3LYP/6-31G(2df,p) Fr
 eq
 ----------------------------------------------------------------------

 Structure from the checkpoint file:  "/scratch/puck/g09_7f7bea5a-29bb-44e8-bd4d-2aa921bf2ab7/Gau-79818.chk"
 -----
 titel
 -----
 Charge =  0 Multiplicity = 1

                         Standard orientation:
 ---------------------------------------------------------------------
 Center     Atomic      Atomic             Coordinates (Angstroms)
 Number     Number       Type             X           Y           Z
 ---------------------------------------------------------------------
      1          8           0       -1.703251   -1.476673   -0.533526
      2          6           0       -0.717995   -1.019725    0.382059
      3          6           0        0.683519   -1.205797   -0.177419
      4          6           0        1.884919   -0.832537    0.652368
      5          6           0        1.555261   -0.039315   -0.587358
      6          6           0        1.074257    1.395170   -0.449537
      7          6           0       -0.204276    1.560080    0.346434
      8          8           0       -1.420263    1.233364   -0.337703
      9          6           0       -1.036155    0.418929    0.778570
     10          1           0       -1.832201   -0.751830   -1.159525
     11          1           0       -0.826497   -1.656419    1.268065
     12          1           0        0.762160   -2.109042   -0.774051
     13          1           0        1.702239   -0.354014    1.611401
     14          1           0        2.747539   -1.489316    0.643579
     15          1           0        2.200030   -0.208069   -1.444288
     16          1           0        1.858495    2.003118    0.018120
     17          1           0        0.897574    1.829992   -1.440663
     18          1           0       -0.279220    2.480144    0.926946
     19          1           0       -1.679186    0.541087    1.649548
 ---------------------------------------------------------------------

 SCF Done:  E(RB3LYP) =  -423.165158416     A.U. after    1 cycles

 The electronic state is 1-A.
 Alpha  occ. eigenvalues --  -19.15735 -19.12639 -10.24513 -10.23940 -10.23518
 Alpha  occ. eigenvalues --  -10.19623 -10.19449 -10.18868 -10.18524  -1.07933
 Alpha  occ. eigenvalues --   -1.00932  -0.86801  -0.75348  -0.72561  -0.63858
 Alpha  occ. eigenvalues --   -0.62377  -0.58788  -0.54286  -0.52141  -0.49534
 Alpha  occ. eigenvalues --   -0.47585  -0.46204  -0.44873  -0.42129  -0.41158
 Alpha  occ. eigenvalues --   -0.37405  -0.36814  -0.35363  -0.33912  -0.30711
 Alpha  occ. eigenvalues --   -0.29608  -0.28422  -0.27087  -0.25654
 Alpha virt. eigenvalues --    0.07591   0.08386   0.09703   0.10214   0.10662
 Alpha virt. eigenvalues --    0.13815   0.14889   0.15449   0.16394   0.16725
 Alpha virt. eigenvalues --    0.18041   0.18217   0.19320   0.22238   0.23533

 Mulliken charges:
               1
     1  O   -0.433909
     2  C    0.098524
     3  C   -0.053824
     4  C   -0.302703
     5  C   -0.022155
     6  C   -0.266108
     7  C    0.061981
     8  O   -0.265336
     9  C   -0.012633
    10  H    0.289319
    11  H    0.087005
    12  H    0.094732
    13  H    0.107310
    14  H    0.113312
    15  H    0.086885
    16  H    0.106293
    17  H    0.119287
    18  H    0.094452
    19  H    0.097570
 Sum of Mulliken charges =   0.00000

 Dipole moment (field-independent basis, Debye):
    X=              2.0699    Y=              1.0938    Z=              0.8736  Tot=              2.4988
 Quadrupole moment (field-independent basis, Debye-Ang):
   XX=            -56.0395   YY=            -54.6560   ZZ=            -50.2285
   XY=             -1.4274   XZ=             -2.1329   YZ=              0.4907

  Exact polarizability:  76.633   2.203  77.236  -1.389  -1.257  66.523
 Approx polarizability: 108.105   6.552 110.299   3.061  -4.162 105.504

                      1                      2                      3
                      A                      A                      A
 Frequencies --     58.1892               221.1363               261.1948
 Red. masses --      3.3718                 3.0461                 4.3359
 Frc consts  --      0.0067                 0.0878                 0.1743
 IR Inten    --      0.3362                 2.6052                 5.5873

                      4                      5                      6
                      A                      A                      A
 Frequencies --    301.1699               388.2029               406.4004
 Red. masses --      3.8834                 2.1339                 2.9805
 Frc consts  --      0.2075                 0.1895                 0.2900
 IR Inten    --      0.5761                 0.5984                 2.9445

                      7                      8                      9
                      A                      A                      A
 Frequencies --    457.6503               478.6916               505.9798
 Red. masses --      1.3307                 4.5377                 4.0130
 Frc consts  --      0.1642                 0.6126                 0.6053
 IR Inten    --     89.4343                 5.7344                 1.1106

                     10                     11                     12
                      A                      A                      A
 Frequencies --    662.7758               738.2566               757.7195
 Red. masses --      3.8488                 2.3313                 3.1736
 Frc consts  --      0.9961                 0.7486                 1.0735
 IR Inten    --     14.1870                 2.1128                 1.5154

                     13                     14                     15
                      A                      A                      A
 Frequencies --    782.8176               825.7146               837.4660
 Red. masses --      3.7275                 1.6443                 2.6383
 Frc consts  --      1.3458                 0.6605                 1.0902
 IR Inten    --     11.9031                 5.3299                20.3642

                     16                     17                     18
                      A                      A                      A
 Frequencies --    872.2554               927.8705               950.4902
 Red. masses --      1.7887                 2.8986                 3.1420
 Frc consts  --      0.8018                 1.4703                 1.6724
 IR Inten    --      4.7312                23.3648                 4.6211

                     19                     20                     21
                      A                      A                      A
 Frequencies --    970.7917              1036.3244              1058.8813
 Red. masses --      2.4284                 2.4032                 1.3414
 Frc consts  --      1.3484                 1.5207                 0.8862
 IR Inten    --      7.8741                16.4550                 3.7901

                     22                     23                     24
                      A                      A                      A
 Frequencies --   1065.8292              1078.9056              1092.1769
 Red. masses --      2.6199                 3.2909                 1.4210
 Frc consts  --      1.7535                 2.2570                 0.9987
 IR Inten    --      6.9531                97.3706                 1.8832

                     25                     26                     27
                      A                      A                      A
 Frequencies --   1125.8859              1142.3884              1142.9172
 Red. masses --      1.3332                 1.3201                 1.3099
 Frc consts  --      0.9957                 1.0151                 1.0081
 IR Inten    --      0.5912                 1.9845                 1.6994

                     28                     29                     30
                      A                      A                      A
 Frequencies --   1168.9552              1220.5036              1266.0715
 Red. masses --      1.3484                 1.3702                 1.1853
 Frc consts  --      1.0856                 1.2026                 1.1194
 IR Inten    --      3.1714                 0.5505                 1.4898

                     31                     32                     33
                      A                      A                      A
 Frequencies --   1280.4265              1293.5686              1341.7790
 Red. masses --      1.3410                 1.2896                 2.4426
 Frc consts  --      1.2954                 1.2714                 2.5909
 IR Inten    --     27.8539                 3.3914                 0.0119

                     34                     35                     36
                      A                      A                      A
 Frequencies --   1353.9450              1368.1097              1392.0855
 Red. masses --      1.3815                 1.8374                 1.3791
 Frc consts  --      1.4921                 2.0263                 1.5747
 IR Inten    --      1.2324                 9.4590                 7.0522

                     37                     38                     39
                      A                      A                      A
 Frequencies --   1412.9111              1443.3164              1465.3020
 Red. masses --      1.4916                 1.2802                 2.3038
 Frc consts  --      1.7544                 1.5712                 2.9144
 IR Inten    --      3.6049                70.3257                13.1065

                     40                     41                     42
                      A                      A                      A
 Frequencies --   1478.9685              1499.1404              3025.7693
 Red. masses --      1.1463                 1.4260                 1.0600
 Frc consts  --      1.4773                 1.8882                 5.7176
 IR Inten    --      3.7947                 0.8509                32.1846

                     43                     44                     45
                      A                      A                      A
 Frequencies --   3037.9616              3060.0857              3101.2998
 Red. masses --      1.0845                 1.1016                 1.0864
 Frc consts  --      5.8971                 6.0780                 6.1567
 IR Inten    --     27.8785                13.6717                28.8623

                     46                     47                     48
                      A                      A                      A
 Frequencies --   3117.8306              3119.2903              3149.0586
 Red. masses --      1.0865                 1.0599                 1.0879
 Frc consts  --      6.2227                 6.0763                 6.3562
 IR Inten    --     35.9002                26.8432                14.2906

                     49                     50                     51
                      A                      A                      A
 Frequencies --   3161.9775              3207.1530              3764.8744
 Red. masses --      1.0904                 1.1140                 1.0651
 Frc consts  --      6.4232                 6.7511                 8.8952
 IR Inten    --     10.9321                14.5331                28.5857

 - Thermochemistry -
 -------------------
 Temperature   298.150 Kelvin.  Pressure   1.00000 Atm.
 Atom     1 has atomic number  8 and mass  15.99491

 Molecular mass:   126.06808 amu.
 Principal axes and moments of inertia in atomic units:
                           1         2         3
     Eigenvalues --   783.98490 927.358981402.35644
           X            0.99989  -0.00585  -0.01378
           Y            0.00583   0.99998  -0.00168
           Z            0.01379   0.00160   0.99990
 This molecule is an asymmetric top.
 Rotational symmetry number  1.
 Warning -- assumption of classical behavior for rotation
           may cause significant error
 Rotational temperatures (Kelvin)      0.11048     0.09340     0.06176
 Rotational constants (GHZ):           2.30201     1.94611     1.28693
 Zero-point vibrational energy     423947.4 (Joules/Mol)
                                  101.32585 (Kcal/Mol)
 Warning -- explicit consideration of   9 degrees of freedom as
           vibrations may cause significant error
 Vibrational temperatures:     83.72   318.17   375.80   433.32   558.54
          (Kelvin)            584.72   658.46   688.73   727.99   953.59
                             1062.19  1090.19  1126.30  1188.02  1204.93
                             1254.98  1335.00  1367.54  1396.75  1491.04
                             1523.49  1533.49  1552.30  1571.40  1619.90
                             1643.64  1644.40  1681.86  1756.03  1821.59
                             1842.25  1861.15  1930.52  1948.02  1968.40
                             2002.90  2032.86  2076.61  2108.24  2127.90
                             2156.93  4353.40  4370.94  4402.78  4462.07
                             4485.86  4487.96  4530.79  4549.37  4614.37
                             5416.81

 Zero-point correction=                           0.161473 (Hartree/Particle)
 Thermal correction to Energy=                    0.168961
 Thermal correction to Enthalpy=                  0.169905
 Thermal correction to Gibbs Free Energy=         0.129411
 Sum of electronic and zero-point Energies=           -423.003685
 Sum of electronic and thermal Energies=              -422.996198
 Sum of electronic and thermal Enthalpies=            -422.995254
 Sum of electronic and thermal Free Energies=         -423.035748

                     E (Thermal)             CV                S
                      KCal/Mol        Cal/Mol-Kelvin    Cal/Mol-Kelvin
 Total                  106.024             30.206             85.227
 Electronic               0.000              0.000              0.000
 Translational            0.889              2.981             40.409
 Rotational               0.889              2.981             28.413
 Vibrational            104.247             24.245             16.406
 Vibration     1          0.596              1.974              4.518
 Vibration     2          0.648              1.809              1.950
 Vibration     3          0.669              1.744              1.654
 Vibration     4          0.693              1.671              1.410
 Vibration     5          0.756              1.495              1.007
 Vibration     6          0.771              1.456              0.939
 Vibration     7          0.816              1.344              0.773
 Vibration     8          0.835              1.297              0.714
 Vibration     9          0.861              1.237              0.643

 Optimization completed.
    -- Stationary point found.
 Normal termination of Gaussian 09 at Mon Jan 27 23:56:53 2020.
