 Gaussian 09, Revision D.01,
 Gaussian 09:  ES64L-G09RevD.01 24-Apr-2013

 -----------------------------
 # b3lyp 6-31G(2df,p) opt Freq
 -----------------------------

 -----
 titel
 -----
 Symbolic Z-matrix:
 Charge =  0 Multiplicity = 1

 SCF Done:  E(RB3LYP) =  -423.158368461     A.U. after   14 cycles
 Optimization completed.
    -- Stationary point found.
 Normal termination of Gaussian 09 at Mon Jan 27 13:44:21 2020.

 ----------------------------------------------------------------------
 #N Geom=AllCheck Guess=TCheck SCRF=Check GenChk RB3LYP/6-31G(2df,p) Fr
 eq
 ----------------------------------------------------------------------

 Structure from the checkpoint file:  "/scratch/puck/g09_e278fdb2-56b2-41e2-b97b-235cd1070369/Gau-75932.chk"
 -----
 titel
 -----
 Charge =  0 Multiplicity = 1

                         Standard orientation:
 ---------------------------------------------------------------------
 Center     Atomic      Atomic             Coordinates (Angstroms)
 Number     Number       Type             X           Y           Z
 ---------------------------------------------------------------------
      1          8           0        3.763681   -0.353106   -0.108499
      2          6           0        2.591938   -0.548298    0.092397
      3          6           0        1.598620    0.528257    0.480810
      4          6           0        0.389712    0.553316   -0.451218
      5          6           0       -0.846267    1.364121    0.001727
      6          6           0       -1.551069    0.012496   -0.027853
      7          6           0       -2.556103   -0.585137    0.896844
      8          6           0       -2.886341   -0.363971   -0.575756
      9          8           0       -0.360199   -0.688612   -0.402302
     10          1           0        2.150558   -1.564045    0.000705
     11          1           0        1.244548    0.312081    1.498151
     12          1           0        2.108128    1.496999    0.481321
     13          1           0        0.707656    0.766012   -1.479678
     14          1           0       -0.753830    1.819792    0.990531
     15          1           0       -1.209791    2.107012   -0.710267
     16          1           0       -2.383269   -1.606619    1.218693
     17          1           0       -3.025123    0.052925    1.639231
     18          1           0       -2.928147   -1.241184   -1.212382
     19          1           0       -3.581532    0.426060   -0.841591
 ---------------------------------------------------------------------

 SCF Done:  E(RB3LYP) =  -423.158368461     A.U. after    1 cycles

 The electronic state is 1-A.
 Alpha  occ. eigenvalues --  -19.14396 -19.13762 -10.26924 -10.25171 -10.24870
 Alpha  occ. eigenvalues --  -10.19974 -10.19698 -10.18974 -10.18920  -1.05249
 Alpha  occ. eigenvalues --   -1.04350  -0.85378  -0.78610  -0.73625  -0.62664
 Alpha  occ. eigenvalues --   -0.61159  -0.57704  -0.53757  -0.50876  -0.49696
 Alpha  occ. eigenvalues --   -0.49446  -0.44963  -0.44261  -0.43373  -0.39707
 Alpha  occ. eigenvalues --   -0.39233  -0.37769  -0.37465  -0.36147  -0.34119
 Alpha  occ. eigenvalues --   -0.32151  -0.29349  -0.24845  -0.23647
 Alpha virt. eigenvalues --   -0.02275   0.07466   0.09623   0.09899   0.10385
 Alpha virt. eigenvalues --    0.13002   0.13014   0.14072   0.14481   0.15467
 Alpha virt. eigenvalues --    0.16559   0.17674   0.19138   0.21489   0.22501

 Mulliken charges:
               1
     1  O   -0.239802
     2  C    0.154276
     3  C   -0.293288
     4  C    0.131379
     5  C   -0.388614
     6  C    0.468520
     7  C   -0.331639
     8  C   -0.331920
     9  O   -0.320697
    10  H    0.098171
    11  H    0.121939
    12  H    0.120886
    13  H    0.092491
    14  H    0.113722
    15  H    0.117651
    16  H    0.126796
    17  H    0.116248
    18  H    0.127855
    19  H    0.116026
 Sum of Mulliken charges =   0.00000

 Dipole moment (field-independent basis, Debye):
    X=             -3.0648    Y=              1.5222    Z=              0.7222  Tot=              3.4974
 Quadrupole moment (field-independent basis, Debye-Ang):
   XX=            -65.9574   YY=            -51.5046   ZZ=            -51.5102
   XY=              0.0591   XZ=              1.1914   YZ=             -0.8088

  Exact polarizability:  97.344   2.460  69.912  -1.695  -0.354  64.690
 Approx polarizability: 125.195   3.449 102.422  -4.391  -0.354  98.086

                      1                      2                      3
                      A                      A                      A
 Frequencies --     36.8109                66.8540                78.0298
 Red. masses --      5.0659                 4.1303                 3.7604
 Frc consts  --      0.0040                 0.0109                 0.0135
 IR Inten    --      0.4543                 4.8440                 4.5426

                      4                      5                      6
                      A                      A                      A
 Frequencies --    172.3476               275.5766               291.2924
 Red. masses --      2.1909                 2.6407                 2.4746
 Frc consts  --      0.0383                 0.1182                 0.1237
 IR Inten    --      1.1813                 2.0938                 1.0240

                      7                      8                      9
                      A                      A                      A
 Frequencies --    326.8039               419.8794               453.6952
 Red. masses --      3.2100                 2.5610                 3.5919
 Frc consts  --      0.2020                 0.2660                 0.4356
 IR Inten    --      0.9105                 2.6836                 8.8899

                     10                     11                     12
                      A                      A                      A
 Frequencies --    507.3715               563.5274               754.7807
 Red. masses --      1.9026                 3.9245                 1.0425
 Frc consts  --      0.2886                 0.7343                 0.3499
 IR Inten    --      9.8246                 4.7857                 1.5259

                     13                     14                     15
                      A                      A                      A
 Frequencies --    777.0393               831.2240               837.2390
 Red. masses --      1.8609                 2.1553                 1.6457
 Frc consts  --      0.6620                 0.8774                 0.6797
 IR Inten    --      8.1217                 3.5411                 4.1500

                     16                     17                     18
                      A                      A                      A
 Frequencies --    884.6159               912.1232               917.3847
 Red. masses --      2.6748                 2.2599                 1.9649
 Frc consts  --      1.2333                 1.1077                 0.9743
 IR Inten    --     10.6110                 4.0729                 9.9092

                     19                     20                     21
                      A                      A                      A
 Frequencies --    951.0427               982.4828               994.6179
 Red. masses --      2.1535                 1.9530                 2.8225
 Frc consts  --      1.1476                 1.1107                 1.6451
 IR Inten    --     26.1146                 8.7835                55.0771

                     22                     23                     24
                      A                      A                      A
 Frequencies --   1049.2043              1068.9838              1073.5421
 Red. masses --      1.6189                 1.4953                 2.6432
 Frc consts  --      1.0500                 1.0067                 1.7948
 IR Inten    --     19.4662                 0.7177                70.1183

                     25                     26                     27
                      A                      A                      A
 Frequencies --   1088.3581              1123.5147              1164.6779
 Red. masses --      3.0440                 2.2714                 1.4339
 Frc consts  --      2.1244                 1.6893                 1.1460
 IR Inten    --     33.9624                22.4588                 5.0540

                     28                     29                     30
                      A                      A                      A
 Frequencies --   1186.9417              1218.3116              1233.6647
 Red. masses --      1.2699                 1.7031                 1.6153
 Frc consts  --      1.0541                 1.4894                 1.4484
 IR Inten    --      0.2741                14.7771                21.9289

                     31                     32                     33
                      A                      A                      A
 Frequencies --   1247.6496              1277.3185              1334.3854
 Red. masses --      1.4300                 1.3620                 1.6178
 Frc consts  --      1.3115                 1.3093                 1.6973
 IR Inten    --      0.3654                 0.6234                14.6139

                     34                     35                     36
                      A                      A                      A
 Frequencies --   1364.6550              1402.2864              1422.9985
 Red. masses --      1.7125                 1.5539                 1.2118
 Frc consts  --      1.8790                 1.8003                 1.4457
 IR Inten    --     63.2578                 4.9448                 7.7551

                     37                     38                     39
                      A                      A                      A
 Frequencies --   1447.8640              1449.1131              1488.3757
 Red. masses --      1.0904                 1.0980                 1.1517
 Frc consts  --      1.3468                 1.3585                 1.5032
 IR Inten    --      1.4444                 5.7347                10.7900

                     40                     41                     42
                      A                      A                      A
 Frequencies --   1505.7822              1830.6924              2907.2798
 Red. masses --      1.7769                 9.8072                 1.0835
 Frc consts  --      2.3737                19.3653                 5.3959
 IR Inten    --     14.2423               189.1082                71.1789

                     43                     44                     45
                      A                      A                      A
 Frequencies --   3017.3533              3028.6714              3068.9080
 Red. masses --      1.0725                 1.0748                 1.0595
 Frc consts  --      5.7530                 5.8087                 5.8793
 IR Inten    --      8.9837                34.6875                21.9892

                     46                     47                     48
                      A                      A                      A
 Frequencies --   3097.8748              3124.9418              3126.5242
 Red. masses --      1.0997                 1.1078                 1.0510
 Frc consts  --      6.2180                 6.3735                 6.0529
 IR Inten    --     15.3443                19.1332                11.6018

                     49                     50                     51
                      A                      A                      A
 Frequencies --   3129.1725              3210.1528              3224.3064
 Red. masses --      1.0581                 1.1180                 1.1152
 Frc consts  --      6.1043                 6.7880                 6.8306
 IR Inten    --      4.0694                 0.2371                 9.3098

 - Thermochemistry -
 -------------------
 Temperature   298.150 Kelvin.  Pressure   1.00000 Atm.
 Atom     1 has atomic number  8 and mass  15.99491

 Molecular mass:   126.06808 amu.
 Principal axes and moments of inertia in atomic units:
                           1         2         3
     Eigenvalues --   357.312242289.874302402.12571
           X            0.99999   0.00445   0.00091
           Y           -0.00444   0.99994  -0.01040
           Z           -0.00096   0.01040   0.99995
 This molecule is an asymmetric top.
 Rotational symmetry number  1.
 Rotational temperatures (Kelvin)      0.24240     0.03782     0.03606
 Rotational constants (GHZ):           5.05088     0.78814     0.75131
 Zero-point vibrational energy     412402.1 (Joules/Mol)
                                   98.56646 (Kcal/Mol)
 Warning -- explicit consideration of  11 degrees of freedom as
           vibrations may cause significant error
 Vibrational temperatures:     52.96    96.19   112.27   247.97   396.49
          (Kelvin)            419.10   470.20   604.11   652.77   729.99
                              810.79  1085.96  1117.98  1195.94  1204.60
                             1272.76  1312.34  1319.91  1368.34  1413.57
                             1431.03  1509.57  1538.03  1544.59  1565.90
                             1616.49  1675.71  1707.74  1752.88  1774.97
                             1795.09  1837.77  1919.88  1963.43  2017.57
                             2047.37  2083.15  2084.95  2141.44  2166.48
                             2633.95  4182.92  4341.29  4357.58  4415.47
                             4457.15  4496.09  4498.37  4502.18  4618.69
                             4639.05

 Zero-point correction=                           0.157076 (Hartree/Particle)
 Thermal correction to Energy=                    0.166057
 Thermal correction to Enthalpy=                  0.167001
 Thermal correction to Gibbs Free Energy=         0.121916
 Sum of electronic and zero-point Energies=           -423.001293
 Sum of electronic and thermal Energies=              -422.992312
 Sum of electronic and thermal Enthalpies=            -422.991368
 Sum of electronic and thermal Free Energies=         -423.036453

                     E (Thermal)             CV                S
                      KCal/Mol        Cal/Mol-Kelvin    Cal/Mol-Kelvin
 Total                  104.202             32.665             94.889
 Electronic               0.000              0.000              0.000
 Translational            0.889              2.981             40.409
 Rotational               0.889              2.981             29.065
 Vibrational            102.425             26.703             25.416
 Vibration     1          0.594              1.982              5.424
 Vibration     2          0.598              1.970              4.244
 Vibration     3          0.599              1.964              3.940
 Vibration     4          0.626              1.877              2.410
 Vibration     5          0.677              1.719              1.561
 Vibration     6          0.687              1.690              1.466
 Vibration     7          0.710              1.622              1.276
 Vibration     8          0.783              1.427              0.892
 Vibration     9          0.812              1.353              0.785
 Vibration    10          0.863              1.234              0.640
 Vibration    11          0.919              1.110              0.517

 Normal termination of Gaussian 09 at Mon Jan 27 14:21:31 2020.
