 Gaussian 09, Revision D.01,
 Gaussian 09:  ES64L-G09RevD.01 24-Apr-2013

 -----------------------------
 # b3lyp 6-31G(2df,p) opt Freq
 -----------------------------

 -----
 titel
 -----
 Symbolic Z-matrix:
 Charge =  0 Multiplicity = 1

 SCF Done:  E(RB3LYP) =  -423.172211900     A.U. after   14 cycles
 Optimization completed.
    -- Stationary point found.
 Normal termination of Gaussian 09 at Mon Jan 27 13:43:02 2020.

 ----------------------------------------------------------------------
 #N Geom=AllCheck Guess=TCheck SCRF=Check GenChk RB3LYP/6-31G(2df,p) Fr
 eq
 ----------------------------------------------------------------------

 Structure from the checkpoint file:  "/scratch/puck/g09_653b83db-304c-4d9d-ba8a-8a2e74cc5be4/Gau-28758.chk"
 -----
 titel
 -----
 Charge =  0 Multiplicity = 1

                         Standard orientation:
 ---------------------------------------------------------------------
 Center     Atomic      Atomic             Coordinates (Angstroms)
 Number     Number       Type             X           Y           Z
 ---------------------------------------------------------------------
      1          8           0        3.132615    0.637648   -0.275726
      2          6           0        2.470191   -0.340052   -0.042633
      3          6           0        1.219450   -0.352481    0.809324
      4          6           0        0.007310   -0.798945   -0.009257
      5          6           0       -1.443236   -0.762116    0.539447
      6          6           0       -1.659399    0.695884    0.996527
      7          6           0       -1.070027    1.391743   -0.272351
      8          6           0       -0.706736    0.109053   -1.048039
      9          8           0       -1.901101   -0.710943   -0.847141
     10          1           0        2.741613   -1.332060   -0.474656
     11          1           0        1.373873   -1.074449    1.624100
     12          1           0        1.092778    0.638973    1.248918
     13          1           0        0.180256   -1.777913   -0.464391
     14          1           0       -1.877022   -1.572942    1.125135
     15          1           0       -2.721671    0.904228    1.135926
     16          1           0       -1.134086    0.944218    1.922659
     17          1           0       -1.814802    1.975607   -0.815871
     18          1           0       -0.208009    2.032222   -0.069227
     19          1           0       -0.390359    0.189965   -2.087762
 ---------------------------------------------------------------------

 SCF Done:  E(RB3LYP) =  -423.172211900     A.U. after    1 cycles

 The electronic state is 1-A.
 Alpha  occ. eigenvalues --  -19.14482 -19.13702 -10.27740 -10.24302 -10.24143
 Alpha  occ. eigenvalues --  -10.20760 -10.20208 -10.18893 -10.18747  -1.05334
 Alpha  occ. eigenvalues --   -1.05129  -0.81481  -0.77005  -0.71167  -0.69092
 Alpha  occ. eigenvalues --   -0.58510  -0.57738  -0.54749  -0.52923  -0.48547
 Alpha  occ. eigenvalues --   -0.47114  -0.46304  -0.44010  -0.42128  -0.40813
 Alpha  occ. eigenvalues --   -0.37903  -0.36596  -0.35965  -0.35473  -0.34978
 Alpha  occ. eigenvalues --   -0.32414  -0.31576  -0.25897  -0.24946
 Alpha virt. eigenvalues --   -0.02691   0.08775   0.08818   0.09987   0.11265
 Alpha virt. eigenvalues --    0.13150   0.13962   0.14567   0.15347   0.16355
 Alpha virt. eigenvalues --    0.17096   0.17343   0.18251   0.18835   0.21705

 Mulliken charges:
               1
     1  O   -0.236671
     2  C    0.163291
     3  C   -0.328554
     4  C    0.014735
     5  C    0.047442
     6  C   -0.220216
     7  C   -0.223256
     8  C    0.064432
     9  O   -0.296938
    10  H    0.075331
    11  H    0.120627
    12  H    0.124867
    13  H    0.092487
    14  H    0.079949
    15  H    0.112110
    16  H    0.101114
    17  H    0.112442
    18  H    0.111965
    19  H    0.084845
 Sum of Mulliken charges =   0.00000

 Dipole moment (field-independent basis, Debye):
    X=             -0.6458    Y=             -1.0160    Z=              1.5678  Tot=              1.9767
 Quadrupole moment (field-independent basis, Debye-Ang):
   XX=            -64.1147   YY=            -52.7102   ZZ=            -51.7487
   XY=             -6.8747   XZ=             -1.0516   YZ=             -1.6129

  Exact polarizability:  83.007   0.058  73.559  -4.292  -1.205  68.297
 Approx polarizability: 113.990   9.161 114.774  -3.929  -2.338 104.812

                      1                      2                      3
                      A                      A                      A
 Frequencies --     32.4518                65.7564               172.0027
 Red. masses --      5.5346                 3.6995                 2.6545
 Frc consts  --      0.0034                 0.0094                 0.0463
 IR Inten    --      4.0386                 5.6236                 1.5227

                      4                      5                      6
                      A                      A                      A
 Frequencies --    256.4281               295.8822               370.2157
 Red. masses --      2.8113                 2.1924                 2.3922
 Frc consts  --      0.1089                 0.1131                 0.1932
 IR Inten    --      0.6766                 0.7523                 0.9919

                      7                      8                      9
                      A                      A                      A
 Frequencies --    464.6528               519.0940               595.0994
 Red. masses --      2.5818                 3.2671                 3.5422
 Frc consts  --      0.3284                 0.5187                 0.7391
 IR Inten    --      6.2492                 2.7777                18.5761

                     10                     11                     12
                      A                      A                      A
 Frequencies --    716.2811               749.6455               831.1854
 Red. masses --      3.4217                 3.1881                 2.7721
 Frc consts  --      1.0343                 1.0556                 1.1284
 IR Inten    --      2.3047                 5.7244                 6.9484

                     13                     14                     15
                      A                      A                      A
 Frequencies --    840.0175               853.8885               862.0910
 Red. masses --      1.4125                 2.0192                 2.6939
 Frc consts  --      0.5872                 0.8674                 1.1796
 IR Inten    --      3.8589                 9.6110                 4.2875

                     16                     17                     18
                      A                      A                      A
 Frequencies --    874.2454               923.4947               957.4792
 Red. masses --      2.9566                 2.8606                 2.3651
 Frc consts  --      1.3314                 1.4374                 1.2775
 IR Inten    --     28.9122                 5.0192                13.8411

                     19                     20                     21
                      A                      A                      A
 Frequencies --    975.2325              1005.7821              1021.8839
 Red. masses --      2.9845                 1.3970                 2.7627
 Frc consts  --      1.6724                 0.8327                 1.6998
 IR Inten    --     37.3429                 1.9097                 6.4246

                     22                     23                     24
                      A                      A                      A
 Frequencies --   1056.7346              1067.9545              1128.0616
 Red. masses --      1.5212                 2.0171                 1.4179
 Frc consts  --      1.0009                 1.3555                 1.0631
 IR Inten    --      2.1692                 9.4583                 9.9325

                     25                     26                     27
                      A                      A                      A
 Frequencies --   1144.4233              1162.3659              1197.0534
 Red. masses --      2.6093                 1.7929                 1.3083
 Frc consts  --      2.0135                 1.4272                 1.1045
 IR Inten    --     12.3666                12.5583                 1.5399

                     28                     29                     30
                      A                      A                      A
 Frequencies --   1207.2511              1239.7152              1247.4051
 Red. masses --      1.3859                 1.4732                 1.2170
 Frc consts  --      1.1901                 1.3340                 1.1157
 IR Inten    --      5.7109                11.2214                 1.0349

                     31                     32                     33
                      A                      A                      A
 Frequencies --   1275.3896              1283.0099              1310.1446
 Red. masses --      1.3499                 1.4162                 1.5292
 Frc consts  --      1.2937                 1.3735                 1.5465
 IR Inten    --      0.4919                 1.3608                 5.5970

                     34                     35                     36
                      A                      A                      A
 Frequencies --   1315.1918              1342.5202              1400.0561
 Red. masses --      1.5543                 1.5359                 1.5600
 Frc consts  --      1.5840                 1.6309                 1.8017
 IR Inten    --      3.1595                 6.6624                 7.9074

                     37                     38                     39
                      A                      A                      A
 Frequencies --   1428.7538              1462.3562              1484.8745
 Red. masses --      1.1892                 1.0939                 1.0850
 Frc consts  --      1.4302                 1.3783                 1.4094
 IR Inten    --      6.0766                 5.6526                 0.7071

                     40                     41                     42
                      A                      A                      A
 Frequencies --   1505.1264              1834.3385              2856.3218
 Red. masses --      1.1071                10.0346                 1.0820
 Frc consts  --      1.4777                19.8934                 5.2010
 IR Inten    --      7.6410               170.3769               111.1707

                     43                     44                     45
                      A                      A                      A
 Frequencies --   3017.3473              3067.0156              3075.5752
 Red. masses --      1.0670                 1.0603                 1.0611
 Frc consts  --      5.7237                 5.8763                 5.9136
 IR Inten    --     10.2985                21.1457                24.5944

                     46                     47                     48
                      A                      A                      A
 Frequencies --   3078.1158              3113.1812              3117.3911
 Red. masses --      1.0844                 1.1050                 1.0937
 Frc consts  --      6.0537                 6.3097                 6.2621
 IR Inten    --     10.4288                 2.0942                19.0905

                     49                     50                     51
                      A                      A                      A
 Frequencies --   3121.1371              3127.1107              3130.9688
 Red. masses --      1.0900                 1.0961                 1.1019
 Frc consts  --      6.2559                 6.3152                 6.3645
 IR Inten    --     63.7923                18.2543                33.3255

 - Thermochemistry -
 -------------------
 Temperature   298.150 Kelvin.  Pressure   1.00000 Atm.
 Atom     1 has atomic number  8 and mass  15.99491

 Molecular mass:   126.06808 amu.
 Principal axes and moments of inertia in atomic units:
                           1         2         3
     Eigenvalues --   521.089711701.143501750.95376
           X            0.99956  -0.02855  -0.00755
           Y            0.02829   0.99906  -0.03277
           Z            0.00847   0.03255   0.99943
 This molecule is an asymmetric top.
 Rotational symmetry number  1.
 Warning -- assumption of classical behavior for rotation
           may cause significant error
 Rotational temperatures (Kelvin)      0.16622     0.05092     0.04947
 Rotational constants (GHZ):           3.46340     1.06090     1.03072
 Zero-point vibrational energy     419767.8 (Joules/Mol)
                                  100.32692 (Kcal/Mol)
 Warning -- explicit consideration of   9 degrees of freedom as
           vibrations may cause significant error
 Vibrational temperatures:     46.69    94.61   247.47   368.94   425.71
          (Kelvin)            532.66   668.53   746.86   856.21  1030.57
                             1078.57  1195.89  1208.60  1228.55  1240.36
                             1257.84  1328.70  1377.60  1403.14  1447.09
                             1470.26  1520.40  1536.55  1623.03  1646.57
                             1672.38  1722.29  1736.96  1783.67  1794.74
                             1835.00  1845.96  1885.00  1892.27  1931.58
                             2014.37  2055.66  2104.00  2136.40  2165.54
                             2639.20  4109.60  4341.28  4412.75  4425.06
                             4428.72  4479.17  4485.22  4490.61  4499.21
                             4504.76

 Zero-point correction=                           0.159881 (Hartree/Particle)
 Thermal correction to Energy=                    0.167856
 Thermal correction to Enthalpy=                  0.168800
 Thermal correction to Gibbs Free Energy=         0.125946
 Sum of electronic and zero-point Energies=           -423.012331
 Sum of electronic and thermal Energies=              -423.004356
 Sum of electronic and thermal Enthalpies=            -423.003411
 Sum of electronic and thermal Free Energies=         -423.046266

                     E (Thermal)             CV                S
                      KCal/Mol        Cal/Mol-Kelvin    Cal/Mol-Kelvin
 Total                  105.331             30.057             90.195
 Electronic               0.000              0.000              0.000
 Translational            0.889              2.981             40.409
 Rotational               0.889              2.981             28.830
 Vibrational            103.554             24.096             20.956
 Vibration     1          0.594              1.983              5.674
 Vibration     2          0.597              1.971              4.277
 Vibration     3          0.626              1.877              2.413
 Vibration     4          0.666              1.752              1.686
 Vibration     5          0.690              1.681              1.440
 Vibration     6          0.742              1.533              1.079
 Vibration     7          0.822              1.328              0.753
 Vibration     8          0.874              1.208              0.612
 Vibration     9          0.953              1.042              0.458

 Optimization completed.
    -- Stationary point found.
 Normal termination of Gaussian 09 at Mon Jan 27 14:24:45 2020.
