 Gaussian 09, Revision D.01,
 Gaussian 09:  ES64L-G09RevD.01 24-Apr-2013

 -----------------------------
 # b3lyp 6-31G(2df,p) opt Freq
 -----------------------------

 -----
 titel
 -----
 Symbolic Z-matrix:
 Charge =  0 Multiplicity = 1

 SCF Done:  E(RB3LYP) =  -423.149540809     A.U. after   14 cycles
 Optimization completed.
    -- Stationary point found.
 Normal termination of Gaussian 09 at Mon Jan 27 13:49:30 2020.

 ----------------------------------------------------------------------
 #N Geom=AllCheck Guess=TCheck SCRF=Check GenChk RB3LYP/6-31G(2df,p) Fr
 eq
 ----------------------------------------------------------------------

 Structure from the checkpoint file:  "/scratch/puck/g09_59d77b95-322f-4b90-bc17-b54a5f005ade/Gau-76098.chk"
 -----
 titel
 -----
 Charge =  0 Multiplicity = 1

                         Standard orientation:
 ---------------------------------------------------------------------
 Center     Atomic      Atomic             Coordinates (Angstroms)
 Number     Number       Type             X           Y           Z
 ---------------------------------------------------------------------
      1          8           0        3.907069    0.256581   -0.106649
      2          6           0        2.916692   -0.368305    0.172482
      3          6           0        1.548123   -0.140996   -0.422925
      4          6           0        0.485903    0.123719    0.665482
      5          6           0       -0.891385    0.163170    0.083438
      6          6           0       -1.594485    1.339970   -0.522049
      7          6           0       -2.262806    0.552492    0.592332
      8          6           0       -2.707544   -0.793859    0.038147
      9          8           0       -1.383029   -1.052760   -0.505788
     10          1           0        2.953307   -1.189086    0.928531
     11          1           0        1.602528    0.682773   -1.139340
     12          1           0        1.260550   -1.052943   -0.964308
     13          1           0        0.534818   -0.666734    1.425052
     14          1           0        0.691820    1.074367    1.169691
     15          1           0       -1.223970    2.315486   -0.222074
     16          1           0       -1.969117    1.280502   -1.540591
     17          1           0       -2.572084    0.994868    1.529618
     18          1           0       -2.955396   -1.531319    0.809751
     19          1           0       -3.481761   -0.795636   -0.738282
 ---------------------------------------------------------------------

 SCF Done:  E(RB3LYP) =  -423.149540809     A.U. after    1 cycles

 The electronic state is 1-A.
 Alpha  occ. eigenvalues --  -19.14176 -19.13819 -10.27047 -10.25017 -10.24021
 Alpha  occ. eigenvalues --  -10.20561 -10.20183 -10.19585 -10.19467  -1.05554
 Alpha  occ. eigenvalues --   -1.04495  -0.84072  -0.79951  -0.71092  -0.66985
 Alpha  occ. eigenvalues --   -0.60101  -0.57462  -0.53595  -0.51020  -0.49702
 Alpha  occ. eigenvalues --   -0.46864  -0.46468  -0.44503  -0.42900  -0.41081
 Alpha  occ. eigenvalues --   -0.39750  -0.38375  -0.37578  -0.35572  -0.34143
 Alpha  occ. eigenvalues --   -0.32273  -0.28028  -0.24917  -0.23955
 Alpha virt. eigenvalues --   -0.02006   0.07378   0.09754   0.10307   0.11437
 Alpha virt. eigenvalues --    0.12141   0.12841   0.14368   0.14902   0.15213
 Alpha virt. eigenvalues --    0.16125   0.17263   0.18562   0.19730   0.21760

 Mulliken charges:
               1
     1  O   -0.236888
     2  C    0.154531
     3  C   -0.269126
     4  C   -0.328715
     5  C    0.506096
     6  C   -0.328751
     7  C   -0.205611
     8  C   -0.084266
     9  O   -0.328334
    10  H    0.070047
    11  H    0.124310
    12  H    0.143133
    13  H    0.112493
    14  H    0.117474
    15  H    0.116914
    16  H    0.115887
    17  H    0.103282
    18  H    0.110458
    19  H    0.107065
 Sum of Mulliken charges =   0.00000

 Dipole moment (field-independent basis, Debye):
    X=             -3.0280    Y=              0.1635    Z=              1.3195  Tot=              3.3071
 Quadrupole moment (field-independent basis, Debye-Ang):
   XX=            -64.2899   YY=            -52.7395   ZZ=            -51.9957
   XY=             -3.5564   XZ=              0.0377   YZ=             -0.7044

  Exact polarizability:  96.834   3.504  70.964  -0.185  -4.661  64.861
 Approx polarizability: 125.058   8.034 109.157  -4.074  -5.714  98.905

                      1                      2                      3
                      A                      A                      A
 Frequencies --     49.2520                66.8190                95.9615
 Red. masses --      5.0347                 3.3436                 2.6956
 Frc consts  --      0.0072                 0.0088                 0.0146
 IR Inten    --      3.5352                 4.1970                 1.8418

                      4                      5                      6
                      A                      A                      A
 Frequencies --    128.8844               253.2922               289.3220
 Red. masses --      3.4960                 2.4718                 3.2638
 Frc consts  --      0.0342                 0.0934                 0.1610
 IR Inten    --      2.4067                 4.7434                 1.0561

                      7                      8                      9
                      A                      A                      A
 Frequencies --    349.6035               403.8423               448.5006
 Red. masses --      2.7888                 2.2016                 2.5011
 Frc consts  --      0.2008                 0.2115                 0.2964
 IR Inten    --      2.2755                 0.7291                 0.2422

                     10                     11                     12
                      A                      A                      A
 Frequencies --    521.5898               708.5423               742.9017
 Red. masses --      2.5512                 3.2569                 2.4606
 Frc consts  --      0.4089                 0.9634                 0.8001
 IR Inten    --     19.7955                 6.3615                 3.7294

                     13                     14                     15
                      A                      A                      A
 Frequencies --    768.9356               838.5450               854.9382
 Red. masses --      1.5391                 1.6142                 1.8263
 Frc consts  --      0.5362                 0.6688                 0.7865
 IR Inten    --      0.4277                 7.9010                 1.4581

                     16                     17                     18
                      A                      A                      A
 Frequencies --    901.3780               953.2958               967.6693
 Red. masses --      2.1584                 1.7194                 2.6802
 Frc consts  --      1.0332                 0.9206                 1.4787
 IR Inten    --     15.7981                 2.8136                53.2684

                     19                     20                     21
                      A                      A                      A
 Frequencies --    979.4061               986.2498              1007.1839
 Red. masses --      4.0857                 1.9492                 1.7992
 Frc consts  --      2.3091                 1.1171                 1.0753
 IR Inten    --     39.7084                 3.5665                10.8137

                     22                     23                     24
                      A                      A                      A
 Frequencies --   1018.2193              1058.8126              1072.3666
 Red. masses --      1.8637                 1.8534                 1.5471
 Frc consts  --      1.1384                 1.2242                 1.0482
 IR Inten    --     18.2057                 5.4098                 3.4931

                     25                     26                     27
                      A                      A                      A
 Frequencies --   1096.6704              1134.3018              1157.7305
 Red. masses --      2.7054                 1.8246                 1.6704
 Frc consts  --      1.9170                 1.3832                 1.3191
 IR Inten    --     20.5063                 4.5101                18.5495

                     28                     29                     30
                      A                      A                      A
 Frequencies --   1175.0024              1229.9566              1257.3981
 Red. masses --      1.3779                 1.4911                 1.5019
 Frc consts  --      1.1208                 1.3290                 1.3990
 IR Inten    --      7.6273                15.7492                 0.5377

                     31                     32                     33
                      A                      A                      A
 Frequencies --   1281.2444              1305.5148              1342.2178
 Red. masses --      1.7557                 1.1857                 1.5711
 Frc consts  --      1.6981                 1.1907                 1.6676
 IR Inten    --      3.2497                15.9196                14.1824

                     34                     35                     36
                      A                      A                      A
 Frequencies --   1366.1812              1411.8603              1430.7180
 Red. masses --      1.4184                 1.7714                 1.1938
 Frc consts  --      1.5598                 2.0804                 1.4398
 IR Inten    --     12.3061                 0.8582                 6.1726

                     37                     38                     39
                      A                      A                      A
 Frequencies --   1462.2612              1480.2273              1489.7900
 Red. masses --      1.0895                 1.1211                 1.6780
 Frc consts  --      1.3725                 1.4473                 2.1943
 IR Inten    --      1.0887                 4.0517                13.2057

                     40                     41                     42
                      A                      A                      A
 Frequencies --   1521.2048              1836.8511              2845.9588
 Red. masses --      1.1493                10.0956                 1.0813
 Frc consts  --      1.5670                20.0693                 5.1600
 IR Inten    --      0.8553               205.4733               113.2408

                     43                     44                     45
                      A                      A                      A
 Frequencies --   3024.0030              3024.9005              3030.0508
 Red. masses --      1.0573                 1.0583                 1.0641
 Frc consts  --      5.6967                 5.7055                 5.7561
 IR Inten    --     54.6105                33.3620                18.5697

                     46                     47                     48
                      A                      A                      A
 Frequencies --   3073.1727              3075.5281              3110.2972
 Red. masses --      1.1112                 1.0991                 1.0974
 Frc consts  --      6.1831                 6.1253                 6.2547
 IR Inten    --     33.9240                13.0149                10.9490

                     49                     50                     51
                      A                      A                      A
 Frequencies --   3112.9633              3200.5629              3208.8766
 Red. masses --      1.0560                 1.1027                 1.1073
 Frc consts  --      6.0292                 6.6555                 6.7174
 IR Inten    --     15.4427                 5.2559                12.2424

 - Thermochemistry -
 -------------------
 Temperature   298.150 Kelvin.  Pressure   1.00000 Atm.
 Atom     1 has atomic number  8 and mass  15.99491

 Molecular mass:   126.06808 amu.
 Principal axes and moments of inertia in atomic units:
                           1         2         3
     Eigenvalues --   363.435992416.390812550.66309
           X            0.99998  -0.00683   0.00162
           Y            0.00691   0.99833  -0.05734
           Z           -0.00123   0.05735   0.99835
 This molecule is an asymmetric top.
 Rotational symmetry number  1.
 Rotational temperatures (Kelvin)      0.23832     0.03584     0.03396
 Rotational constants (GHZ):           4.96577     0.74687     0.70756
 Zero-point vibrational energy     413614.6 (Joules/Mol)
                                   98.85625 (Kcal/Mol)
 Warning -- explicit consideration of  10 degrees of freedom as
           vibrations may cause significant error
 Vibrational temperatures:     70.86    96.14   138.07   185.44   364.43
          (Kelvin)            416.27   503.00   581.04   645.29   750.45
                             1019.43  1068.87  1106.33  1206.48  1230.06
                             1296.88  1371.58  1392.26  1409.15  1418.99
                             1449.11  1464.99  1523.39  1542.89  1577.86
                             1632.01  1665.71  1690.56  1769.63  1809.11
                             1843.42  1878.34  1931.15  1965.63  2031.35
                             2058.48  2103.87  2129.71  2143.47  2188.67
                             2642.82  4094.69  4350.86  4352.15  4359.56
                             4421.60  4424.99  4475.02  4478.85  4604.89
                             4616.85

 Zero-point correction=                           0.157537 (Hartree/Particle)
 Thermal correction to Energy=                    0.166448
 Thermal correction to Enthalpy=                  0.167392
 Thermal correction to Gibbs Free Energy=         0.122547
 Sum of electronic and zero-point Energies=           -422.992003
 Sum of electronic and thermal Energies=              -422.983093
 Sum of electronic and thermal Enthalpies=            -422.982149
 Sum of electronic and thermal Free Energies=         -423.026993

                     E (Thermal)             CV                S
                      KCal/Mol        Cal/Mol-Kelvin    Cal/Mol-Kelvin
 Total                  104.447             32.176             94.383
 Electronic               0.000              0.000              0.000
 Translational            0.889              2.981             40.409
 Rotational               0.889              2.981             29.195
 Vibrational            102.670             26.215             24.780
 Vibration     1          0.595              1.978              4.847
 Vibration     2          0.598              1.970              4.245
 Vibration     3          0.603              1.952              3.535
 Vibration     4          0.611              1.924              2.963
 Vibration     5          0.664              1.757              1.708
 Vibration     6          0.686              1.694              1.478
 Vibration     7          0.727              1.576              1.168
 Vibration     8          0.769              1.462              0.949
 Vibration     9          0.808              1.364              0.800
 Vibration    10          0.877              1.202              0.606

 Optimization completed.
    -- Stationary point found.
 Normal termination of Gaussian 09 at Mon Jan 27 14:27:44 2020.
