 Gaussian 09, Revision D.01,
 Gaussian 09:  ES64L-G09RevD.01 24-Apr-2013

 -----------------------------
 # b3lyp 6-31G(2df,p) opt Freq
 -----------------------------

 -----
 titel
 -----
 Symbolic Z-matrix:
 Charge =  0 Multiplicity = 1

 SCF Done:  E(RB3LYP) =  -423.212574287     A.U. after   14 cycles
 Optimization completed.
    -- Stationary point found.
 Normal termination of Gaussian 09 at Mon Jan 27 13:07:13 2020.

 ----------------------------------------------------------------------
 #N Geom=AllCheck Guess=TCheck SCRF=Check GenChk RB3LYP/6-31G(2df,p) Fr
 eq
 ----------------------------------------------------------------------

 Structure from the checkpoint file:  "/scratch/puck/g09_76fbc005-d373-488f-a6e8-9d40c43255c9/Gau-156001.chk"
 -----
 titel
 -----
 Charge =  0 Multiplicity = 1

                         Standard orientation:
 ---------------------------------------------------------------------
 Center     Atomic      Atomic             Coordinates (Angstroms)
 Number     Number       Type             X           Y           Z
 ---------------------------------------------------------------------
      1          8           0        2.845116   -0.084066   -0.241458
      2          6           0        1.659823   -0.052555   -0.041727
      3          6           0        0.957005    1.314274    0.031199
      4          6           0       -0.509417    1.472512    0.456517
      5          6           0       -1.454412    0.730723   -0.467086
      6          6           0       -2.585783   -0.104261    0.069766
      7          6           0       -1.349123   -0.775070   -0.486056
      8          6           0       -0.360633   -1.399282    0.460629
      9          8           0        1.009234   -1.239414    0.051885
     10          1           0        1.608441    1.923295    0.665465
     11          1           0        1.080643    1.723384   -0.979864
     12          1           0       -0.646071    1.147623    1.492905
     13          1           0       -0.747616    2.542440    0.453402
     14          1           0       -1.617603    1.208743   -1.429065
     15          1           0       -2.738294   -0.126026    1.144667
     16          1           0       -3.500589   -0.171844   -0.507665
     17          1           0       -1.441317   -1.275027   -1.445067
     18          1           0       -0.487910   -1.019032    1.478995
     19          1           0       -0.489244   -2.483771    0.503359
 ---------------------------------------------------------------------

 SCF Done:  E(RB3LYP) =  -423.212574287     A.U. after    1 cycles

 The electronic state is 1-A.
 Alpha  occ. eigenvalues --  -19.17165 -19.10763 -10.30073 -10.24897 -10.20443
 Alpha  occ. eigenvalues --  -10.20309 -10.20102 -10.20081 -10.20044  -1.08546
 Alpha  occ. eigenvalues --   -1.00437  -0.88215  -0.78686  -0.73079  -0.67616
 Alpha  occ. eigenvalues --   -0.61091  -0.58407  -0.55521  -0.51162  -0.49195
 Alpha  occ. eigenvalues --   -0.48341  -0.46109  -0.43011  -0.42290  -0.41402
 Alpha  occ. eigenvalues --   -0.40158  -0.39085  -0.37027  -0.34371  -0.33572
 Alpha  occ. eigenvalues --   -0.29726  -0.29018  -0.28423  -0.25590
 Alpha virt. eigenvalues --    0.01571   0.07557   0.08426   0.09512   0.10632
 Alpha virt. eigenvalues --    0.13532   0.13807   0.15424   0.15618   0.16648
 Alpha virt. eigenvalues --    0.17231   0.18344   0.19003   0.21350   0.22934

 Mulliken charges:
               1
     1  O   -0.314359
     2  C    0.379212
     3  C   -0.302728
     4  C   -0.263029
     5  C    0.012077
     6  C   -0.321153
     7  C   -0.025062
     8  C   -0.092723
     9  O   -0.226406
    10  H    0.137509
    11  H    0.141638
    12  H    0.106020
    13  H    0.107507
    14  H    0.091950
    15  H    0.115451
    16  H    0.120394
    17  H    0.098045
    18  H    0.110260
    19  H    0.125398
 Sum of Mulliken charges =   0.00000

 Dipole moment (field-independent basis, Debye):
    X=             -4.3181    Y=              1.0998    Z=              0.5913  Tot=              4.4950
 Quadrupole moment (field-independent basis, Debye-Ang):
   XX=            -64.4978   YY=            -51.3393   ZZ=            -50.3985
   XY=              3.4324   XZ=              1.9732   YZ=             -0.6090

  Exact polarizability:  89.736   3.583  74.919  -1.553  -0.456  61.268
 Approx polarizability: 125.178   4.419 108.537  -5.389  -0.991  95.909

                      1                      2                      3
                      A                      A                      A
 Frequencies --     49.9794               154.1105               260.7165
 Red. masses --      4.3557                 2.7253                 2.7226
 Frc consts  --      0.0064                 0.0381                 0.1090
 IR Inten    --      3.1511                 2.5244                 0.1138

                      4                      5                      6
                      A                      A                      A
 Frequencies --    264.0858               336.4714               361.7401
 Red. masses --      2.3806                 4.6385                 4.4655
 Frc consts  --      0.0978                 0.3094                 0.3443
 IR Inten    --      1.0884                 1.7221                 2.2990

                      7                      8                      9
                      A                      A                      A
 Frequencies --    428.9136               494.6711               522.5299
 Red. masses --      2.4810                 3.4885                 2.1023
 Frc consts  --      0.2689                 0.5029                 0.3382
 IR Inten    --      0.1755                 1.7479                 2.1680

                     10                     11                     12
                      A                      A                      A
 Frequencies --    614.0215               673.7484               718.9611
 Red. masses --      3.3212                 3.4613                 4.4946
 Frc consts  --      0.7378                 0.9257                 1.3688
 IR Inten    --     15.5173                10.0296                 1.6619

                     13                     14                     15
                      A                      A                      A
 Frequencies --    783.8242               821.7177               859.4440
 Red. masses --      2.0656                 2.8556                 1.2914
 Frc consts  --      0.7477                 1.1360                 0.5620
 IR Inten    --      5.8023                 7.2959                 3.4831

                     16                     17                     18
                      A                      A                      A
 Frequencies --    895.0386               936.2418               973.5142
 Red. masses --      1.9107                 1.5883                 2.3228
 Frc consts  --      0.9018                 0.8203                 1.2970
 IR Inten    --      7.7158                11.1080                 1.3243

                     19                     20                     21
                      A                      A                      A
 Frequencies --    991.6826              1032.6623              1062.1759
 Red. masses --      1.6735                 3.3084                 1.4528
 Frc consts  --      0.9696                 2.0787                 0.9657
 IR Inten    --      2.7503                 4.4040                19.0671

                     22                     23                     24
                      A                      A                      A
 Frequencies --   1068.9276              1087.7165              1124.4584
 Red. masses --      2.5133                 3.4980                 1.6723
 Frc consts  --      1.6919                 2.4384                 1.2458
 IR Inten    --     47.8251                58.5366                13.5611

                     25                     26                     27
                      A                      A                      A
 Frequencies --   1136.0685              1176.2491              1213.1804
 Red. masses --      1.2034                 1.8370                 2.6692
 Frc consts  --      0.9151                 1.4975                 2.3146
 IR Inten    --      0.5773                26.5027               167.4045

                     28                     29                     30
                      A                      A                      A
 Frequencies --   1222.5844              1244.1548              1272.6507
 Red. masses --      1.4885                 1.4468                 1.2951
 Frc consts  --      1.3108                 1.3195                 1.2359
 IR Inten    --     22.8268                 0.3101                 7.9612

                     31                     32                     33
                      A                      A                      A
 Frequencies --   1293.2387              1351.0668              1365.8644
 Red. masses --      1.2180                 1.3494                 1.4116
 Frc consts  --      1.2002                 1.4512                 1.5516
 IR Inten    --     33.0474                27.5487                14.9305

                     34                     35                     36
                      A                      A                      A
 Frequencies --   1385.0888              1416.1895              1437.6915
 Red. masses --      1.3690                 1.5056                 1.6439
 Frc consts  --      1.5474                 1.7791                 2.0020
 IR Inten    --      6.4512                12.5030                 9.3101

                     37                     38                     39
                      A                      A                      A
 Frequencies --   1455.2332              1491.1667              1494.6053
 Red. masses --      1.0928                 1.1611                 1.3229
 Frc consts  --      1.3635                 1.5212                 1.7412
 IR Inten    --      2.1683                 3.6376                 0.9379

                     40                     41                     42
                      A                      A                      A
 Frequencies --   1520.1820              1821.2422              3036.8359
 Red. masses --      1.0904                12.5569                 1.0677
 Frc consts  --      1.4846                24.5397                 5.8013
 IR Inten    --     10.4752               323.6415                 9.4494

                     43                     44                     45
                      A                      A                      A
 Frequencies --   3038.4706              3053.0587              3075.2808
 Red. masses --      1.0624                 1.0672                 1.0923
 Frc consts  --      5.7788                 5.8609                 6.0865
 IR Inten    --     16.8971                20.9890                36.9834

                     46                     47                     48
                      A                      A                      A
 Frequencies --   3089.1004              3100.6061              3130.3484
 Red. masses --      1.0953                 1.1030                 1.0554
 Frc consts  --      6.1582                 6.2479                 6.0931
 IR Inten    --     12.7833                17.2214                15.4082

                     49                     50                     51
                      A                      A                      A
 Frequencies --   3143.4839              3160.6950              3217.1516
 Red. masses --      1.0883                 1.0909                 1.1152
 Frc consts  --      6.3358                 6.4211                 6.8006
 IR Inten    --     13.9913                14.4576                10.8764

 - Thermochemistry -
 -------------------
 Temperature   298.150 Kelvin.  Pressure   1.00000 Atm.
 Atom     1 has atomic number  8 and mass  15.99491

 Molecular mass:   126.06808 amu.
 Principal axes and moments of inertia in atomic units:
                           1         2         3
     Eigenvalues --   561.091931338.896401731.28828
           X            0.99978   0.02098   0.00203
           Y           -0.02098   0.99978  -0.00176
           Z           -0.00206   0.00172   1.00000
 This molecule is an asymmetric top.
 Rotational symmetry number  1.
 Warning -- assumption of classical behavior for rotation
           may cause significant error
 Rotational temperatures (Kelvin)      0.15437     0.06469     0.05003
 Rotational constants (GHZ):           3.21648     1.34793     1.04243
 Zero-point vibrational energy     423830.0 (Joules/Mol)
                                  101.29780 (Kcal/Mol)
 Warning -- explicit consideration of  10 degrees of freedom as
           vibrations may cause significant error
 Vibrational temperatures:     71.91   221.73   375.11   379.96   484.11
          (Kelvin)            520.46   617.11   711.72   751.80   883.44
                              969.37  1034.42  1127.75  1182.27  1236.55
                             1287.76  1347.04  1400.67  1426.81  1485.77
                             1528.23  1537.95  1564.98  1617.84  1634.55
                             1692.36  1745.49  1759.02  1790.06  1831.06
                             1860.68  1943.88  1965.17  1992.83  2037.58
                             2068.51  2093.75  2145.45  2150.40  2187.20
                             2620.36  4369.32  4371.68  4392.66  4424.64
                             4444.52  4461.07  4503.87  4522.77  4547.53
                             4628.76

 Zero-point correction=                           0.161428 (Hartree/Particle)
 Thermal correction to Energy=                    0.169203
 Thermal correction to Enthalpy=                  0.170147
 Thermal correction to Gibbs Free Energy=         0.128750
 Sum of electronic and zero-point Energies=           -423.051146
 Sum of electronic and thermal Energies=              -423.043371
 Sum of electronic and thermal Enthalpies=            -423.042427
 Sum of electronic and thermal Free Energies=         -423.083824

                     E (Thermal)             CV                S
                      KCal/Mol        Cal/Mol-Kelvin    Cal/Mol-Kelvin
 Total                  106.176             30.372             87.127
 Electronic               0.000              0.000              0.000
 Translational            0.889              2.981             40.409
 Rotational               0.889              2.981             28.655
 Vibrational            104.399             24.410             18.064
 Vibration     1          0.595              1.978              4.818
 Vibration     2          0.620              1.898              2.621
 Vibration     3          0.669              1.745              1.657
 Vibration     4          0.671              1.739              1.635
 Vibration     5          0.717              1.603              1.229
 Vibration     6          0.736              1.551              1.115
 Vibration     7          0.790              1.407              0.862
 Vibration     8          0.850              1.262              0.672
 Vibration     9          0.877              1.200              0.604
 Vibration    10          0.973              1.002              0.426

 Optimization completed.
    -- Stationary point found.
 Normal termination of Gaussian 09 at Mon Jan 27 13:50:41 2020.
