 Gaussian 09, Revision D.01,
 Gaussian 09:  ES64L-G09RevD.01 24-Apr-2013

 -----------------------------
 # b3lyp 6-31G(2df,p) opt Freq
 -----------------------------

 -----
 titel
 -----
 Symbolic Z-matrix:
 Charge =  0 Multiplicity = 1

 SCF Done:  E(RB3LYP) =  -423.172135250     A.U. after   13 cycles
 Optimization completed.
    -- Stationary point found.
 Normal termination of Gaussian 09 at Mon Jan 27 23:53:23 2020.

 ----------------------------------------------------------------------
 #N Geom=AllCheck Guess=TCheck SCRF=Check GenChk RB3LYP/6-31G(2df,p) Fr
 eq
 ----------------------------------------------------------------------

 Structure from the checkpoint file:  "/scratch/puck/g09_cd751fe5-c2e1-42d5-b28c-fa459f7d6032/Gau-194140.chk"
 -----
 titel
 -----
 Charge =  0 Multiplicity = 1

                         Standard orientation:
 ---------------------------------------------------------------------
 Center     Atomic      Atomic             Coordinates (Angstroms)
 Number     Number       Type             X           Y           Z
 ---------------------------------------------------------------------
      1          8           0       -2.583515   -0.491229   -0.038372
      2          6           0       -1.489662    0.384402   -0.221884
      3          6           0       -0.550992    0.375529    1.009107
      4          6           0        0.478748    1.432970    0.566139
      5          6           0        0.914252    0.733809   -0.756723
      6          8           0        2.046072   -0.094492   -0.484544
      7          6           0        1.586935   -1.083500    0.453045
      8          6           0        0.067254   -0.954058    0.421774
      9          6           0       -0.267134   -0.253790   -0.931572
     10          1           0       -2.965850   -0.675955   -0.902145
     11          1           0       -1.830909    1.368495   -0.574759
     12          1           0       -0.957544    0.430729    2.018625
     13          1           0        0.018070    2.414200    0.413057
     14          1           0        1.333794    1.552356    1.235057
     15          1           0        1.169233    1.385112   -1.592418
     16          1           0        1.930897   -2.069488    0.118680
     17          1           0        2.010401   -0.895754    1.449823
     18          1           0       -0.504951   -1.846972    0.657179
     19          1           0       -0.339999   -0.789120   -1.879083
 ---------------------------------------------------------------------

 SCF Done:  E(RB3LYP) =  -423.172135250     A.U. after    1 cycles

 The electronic state is 1-A.
 Alpha  occ. eigenvalues --  -19.14008 -19.12846 -10.23374 -10.22953 -10.21989
 Alpha  occ. eigenvalues --  -10.19075 -10.18859 -10.18599 -10.17889  -1.03207
 Alpha  occ. eigenvalues --   -1.02210  -0.87246  -0.74197  -0.69739  -0.67355
 Alpha  occ. eigenvalues --   -0.61435  -0.56058  -0.53429  -0.51726  -0.49397
 Alpha  occ. eigenvalues --   -0.48746  -0.46743  -0.41668  -0.40090  -0.38446
 Alpha  occ. eigenvalues --   -0.37146  -0.36745  -0.34680  -0.33916  -0.31780
 Alpha  occ. eigenvalues --   -0.30490  -0.28374  -0.26690  -0.23681
 Alpha virt. eigenvalues --    0.07427   0.09880   0.11504   0.12035   0.12783
 Alpha virt. eigenvalues --    0.14223   0.14865   0.15820   0.16896   0.17615
 Alpha virt. eigenvalues --    0.18114   0.18939   0.19104   0.20060   0.21904

 Mulliken charges:
               1
     1  O   -0.447588
     2  C    0.133765
     3  C   -0.060728
     4  C   -0.249525
     5  C    0.101071
     6  O   -0.272028
     7  C   -0.119494
     8  C   -0.030511
     9  C   -0.092587
    10  H    0.282929
    11  H    0.057829
    12  H    0.069276
    13  H    0.095726
    14  H    0.108113
    15  H    0.074424
    16  H    0.102525
    17  H    0.095807
    18  H    0.089512
    19  H    0.061484
 Sum of Mulliken charges =   0.00000

 Dipole moment (field-independent basis, Debye):
    X=             -1.1338    Y=              0.1057    Z=             -0.6920  Tot=              1.3325
 Quadrupole moment (field-independent basis, Debye-Ang):
   XX=            -58.3282   YY=            -50.7729   ZZ=            -50.5573
   XY=             -0.5816   XZ=              6.1166   YZ=              0.1419

  Exact polarizability:  77.681  -1.475  73.578   3.006  -0.442  68.723
 Approx polarizability: 109.143  -0.708 108.264   2.032  -1.962 106.737

                      1                      2                      3
                      A                      A                      A
 Frequencies --    216.3412               249.2193               275.5080
 Red. masses --      3.3757                 1.9175                 1.9186
 Frc consts  --      0.0931                 0.0702                 0.0858
 IR Inten    --      1.3701                31.0703                48.7579

                      4                      5                      6
                      A                      A                      A
 Frequencies --    315.0775               375.2916               467.0879
 Red. masses --      2.2368                 2.3595                 3.1699
 Frc consts  --      0.1308                 0.1958                 0.4075
 IR Inten    --     37.7842                 1.4529                 2.9044

                      7                      8                      9
                      A                      A                      A
 Frequencies --    488.3176               603.9354               710.3709
 Red. masses --      4.1082                 4.9164                 3.5063
 Frc consts  --      0.5772                 1.0565                 1.0425
 IR Inten    --      2.0473                 7.2917                 2.6871

                     10                     11                     12
                      A                      A                      A
 Frequencies --    743.9503               810.0950               826.0972
 Red. masses --      3.6205                 2.9993                 2.4358
 Frc consts  --      1.1806                 1.1597                 0.9794
 IR Inten    --      0.2966                 2.1272                 1.9740

                     13                     14                     15
                      A                      A                      A
 Frequencies --    886.2320               894.5093               916.0475
 Red. masses --      2.5221                 3.0925                 2.6013
 Frc consts  --      1.1671                 1.4579                 1.2861
 IR Inten    --     25.8747                 2.6864                 5.2052

                     16                     17                     18
                      A                      A                      A
 Frequencies --    925.8133               943.8678               972.6647
 Red. masses --      2.3224                 1.7051                 2.8673
 Frc consts  --      1.1728                 0.8950                 1.5983
 IR Inten    --      9.9814                 2.4501                17.9781

                     19                     20                     21
                      A                      A                      A
 Frequencies --    990.4115              1015.1039              1026.5010
 Red. masses --      1.8407                 2.0958                 1.6028
 Frc consts  --      1.0638                 1.2724                 0.9951
 IR Inten    --      5.2398                18.0025                10.3833

                     22                     23                     24
                      A                      A                      A
 Frequencies --   1053.0404              1068.0856              1105.0395
 Red. masses --      1.7576                 2.5636                 2.9414
 Frc consts  --      1.1483                 1.7231                 2.1162
 IR Inten    --     13.9981                26.8567                70.1407

                     25                     26                     27
                      A                      A                      A
 Frequencies --   1112.2131              1157.5813              1171.9388
 Red. masses --      1.8329                 1.5498                 1.3165
 Frc consts  --      1.3358                 1.2236                 1.0653
 IR Inten    --     14.0789                12.6508                 2.3719

                     28                     29                     30
                      A                      A                      A
 Frequencies --   1191.5813              1209.3136              1228.9974
 Red. masses --      1.9350                 1.4431                 1.4549
 Frc consts  --      1.6187                 1.2434                 1.2947
 IR Inten    --      7.7960                30.5192                 3.8995

                     31                     32                     33
                      A                      A                      A
 Frequencies --   1235.5315              1271.5185              1281.7177
 Red. masses --      1.3202                 1.6135                 1.4306
 Frc consts  --      1.1874                 1.5370                 1.3847
 IR Inten    --      1.8681                13.0305                14.3256

                     34                     35                     36
                      A                      A                      A
 Frequencies --   1291.5820              1312.0324              1328.8431
 Red. masses --      1.3709                 1.9108                 1.3183
 Frc consts  --      1.3474                 1.9380                 1.3716
 IR Inten    --      3.6656                10.6012                 5.3612

                     37                     38                     39
                      A                      A                      A
 Frequencies --   1337.5925              1382.9519              1424.1616
 Red. masses --      1.4977                 1.4276                 1.4324
 Frc consts  --      1.5788                 1.6087                 1.7117
 IR Inten    --     30.2094                 5.6516                 5.7025

                     40                     41                     42
                      A                      A                      A
 Frequencies --   1499.6617              1522.5345              2989.4510
 Red. masses --      1.1019                 1.0888                 1.0845
 Frc consts  --      1.4601                 1.4871                 5.7104
 IR Inten    --      2.1336                 1.3163                75.9740

                     43                     44                     45
                      A                      A                      A
 Frequencies --   3001.8819              3047.4689              3052.2472
 Red. masses --      1.0634                 1.1010                 1.0631
 Frc consts  --      5.6461                 6.0246                 5.8352
 IR Inten    --     63.0853                41.0968                36.5362

                     46                     47                     48
                      A                      A                      A
 Frequencies --   3106.5282              3109.5809              3121.1176
 Red. masses --      1.0890                 1.1015                 1.0898
 Frc consts  --      6.1919                 6.2751                 6.2549
 IR Inten    --     31.2720                18.8689                50.4591

                     49                     50                     51
                      A                      A                      A
 Frequencies --   3123.9890              3161.7101              3814.1313
 Red. masses --      1.0913                 1.0892                 1.0662
 Frc consts  --      6.2748                 6.4152                 9.1388
 IR Inten    --     31.0064                12.1514                23.0993

 - Thermochemistry -
 -------------------
 Temperature   298.150 Kelvin.  Pressure   1.00000 Atm.
 Atom     1 has atomic number  8 and mass  15.99491

 Molecular mass:   126.06808 amu.
 Principal axes and moments of inertia in atomic units:
                           1         2         3
     Eigenvalues --   514.731771179.973101281.55809
           X            0.99968  -0.00952   0.02324
           Y            0.00945   0.99995   0.00320
           Z           -0.02327  -0.00298   0.99972
 This molecule is an asymmetric top.
 Rotational symmetry number  1.
 Warning -- assumption of classical behavior for rotation
           may cause significant error
 Rotational temperatures (Kelvin)      0.16827     0.07340     0.06758
 Rotational constants (GHZ):           3.50618     1.52948     1.40824
 Zero-point vibrational energy     426866.3 (Joules/Mol)
                                  102.02349 (Kcal/Mol)
 Warning -- explicit consideration of   8 degrees of freedom as
           vibrations may cause significant error
 Vibrational temperatures:    311.27   358.57   396.39   453.33   539.96
          (Kelvin)            672.03   702.58   868.93  1022.06  1070.38
                             1165.54  1188.57  1275.09  1287.00  1317.99
                             1332.04  1358.01  1399.45  1424.98  1460.51
                             1476.90  1515.09  1536.73  1589.90  1600.22
                             1665.50  1686.16  1714.42  1739.93  1768.25
                             1777.65  1829.43  1844.10  1858.30  1887.72
                             1911.91  1924.49  1989.76  2049.05  2157.68
                             2190.58  4301.15  4319.03  4384.62  4391.50
                             4469.60  4473.99  4490.59  4494.72  4548.99
                             5487.68

 Zero-point correction=                           0.162585 (Hartree/Particle)
 Thermal correction to Energy=                    0.169323
 Thermal correction to Enthalpy=                  0.170267
 Thermal correction to Gibbs Free Energy=         0.131865
 Sum of electronic and zero-point Energies=           -423.009550
 Sum of electronic and thermal Energies=              -423.002812
 Sum of electronic and thermal Enthalpies=            -423.001868
 Sum of electronic and thermal Free Energies=         -423.040271

                     E (Thermal)             CV                S
                      KCal/Mol        Cal/Mol-Kelvin    Cal/Mol-Kelvin
 Total                  106.252             28.418             80.825
 Electronic               0.000              0.000              0.000
 Translational            0.889              2.981             40.409
 Rotational               0.889              2.981             28.145
 Vibrational            104.474             22.457             12.271
 Vibration     1          0.645              1.816              1.990
 Vibration     2          0.662              1.764              1.736
 Vibration     3          0.677              1.719              1.561
 Vibration     4          0.702              1.645              1.336
 Vibration     5          0.746              1.523              1.058
 Vibration     6          0.824              1.323              0.746
 Vibration     7          0.844              1.276              0.688
 Vibration     8          0.962              1.023              0.443

 Optimization completed.
    -- Stationary point found.
 Normal termination of Gaussian 09 at Tue Jan 28 00:41:47 2020.
