 Gaussian 09, Revision D.01,
 Gaussian 09:  ES64L-G09RevD.01 24-Apr-2013

 -----------------------------
 # b3lyp 6-31G(2df,p) opt Freq
 -----------------------------

 -----
 titel
 -----
 Symbolic Z-matrix:
 Charge =  0 Multiplicity = 1

 SCF Done:  E(RB3LYP) =  -423.173776124     A.U. after   14 cycles
 Optimization completed.
    -- Stationary point found.
 Normal termination of Gaussian 09 at Mon Jan 27 16:13:09 2020.

 ----------------------------------------------------------------------
 #N Geom=AllCheck Guess=TCheck SCRF=Check GenChk RB3LYP/6-31G(2df,p) Fr
 eq
 ----------------------------------------------------------------------

 Structure from the checkpoint file:  "/scratch/puck/g09_30f6af97-219a-4663-a598-1fe987b9e796/Gau-36798.chk"
 -----
 titel
 -----
 Charge =  0 Multiplicity = 1

                         Standard orientation:
 ---------------------------------------------------------------------
 Center     Atomic      Atomic             Coordinates (Angstroms)
 Number     Number       Type             X           Y           Z
 ---------------------------------------------------------------------
      1          6           0       -1.568702    1.495036   -0.489104
      2          6           0       -1.262850    0.101241    0.025652
      3          6           0       -2.117768   -1.015131   -0.541090
      4          6           0       -0.769181   -0.041132    1.448592
      5          6           0        0.188001   -0.238021    0.303777
      6          8           0        0.791960   -1.498760   -0.016918
      7          6           0        2.039026   -0.874644   -0.407558
      8          6           0        1.440580    0.497939   -0.051802
      9          8           0        1.808782    1.636085   -0.054921
     10          1           0       -0.847634    2.228034   -0.118106
     11          1           0       -1.540034    1.522756   -1.583895
     12          1           0       -2.570970    1.806745   -0.172777
     13          1           0       -1.786543   -1.994297   -0.187575
     14          1           0       -3.165693   -0.877641   -0.251897
     15          1           0       -2.070028   -1.022670   -1.635360
     16          1           0       -0.640614    0.848423    2.057561
     17          1           0       -1.036247   -0.942037    1.991729
     18          1           0        2.883820   -1.195579    0.212012
     19          1           0        2.273376   -1.024061   -1.467778
 ---------------------------------------------------------------------

 SCF Done:  E(RB3LYP) =  -423.173776124     A.U. after    1 cycles

 The electronic state is 1-A.
 Alpha  occ. eigenvalues --  -19.15264 -19.14754 -10.27915 -10.24668 -10.24312
 Alpha  occ. eigenvalues --  -10.21375 -10.19713 -10.18317 -10.18159  -1.06900
 Alpha  occ. eigenvalues --   -1.04390  -0.87515  -0.73335  -0.72008  -0.69436
 Alpha  occ. eigenvalues --   -0.65209  -0.57593  -0.50676  -0.49702  -0.48506
 Alpha  occ. eigenvalues --   -0.46899  -0.44544  -0.43552  -0.42716  -0.41014
 Alpha  occ. eigenvalues --   -0.39482  -0.38321  -0.37838  -0.35714  -0.34372
 Alpha  occ. eigenvalues --   -0.33961  -0.30679  -0.25173  -0.24187
 Alpha virt. eigenvalues --   -0.02918   0.06719   0.09195   0.11413   0.12269
 Alpha virt. eigenvalues --    0.13429   0.13967   0.15513   0.15886   0.17538
 Alpha virt. eigenvalues --    0.17898   0.18519   0.19558   0.20642   0.22496

 Mulliken charges:
               1
     1  C   -0.461020
     2  C    0.240680
     3  C   -0.446475
     4  C   -0.391064
     5  C    0.297466
     6  O   -0.316964
     7  C   -0.189850
     8  C    0.281438
     9  O   -0.302151
    10  H    0.143517
    11  H    0.119959
    12  H    0.118225
    13  H    0.134902
    14  H    0.119849
    15  H    0.121334
    16  H    0.129482
    17  H    0.130109
    18  H    0.135863
    19  H    0.134700
 Sum of Mulliken charges =   0.00000

 Dipole moment (field-independent basis, Debye):
    X=             -1.0260    Y=             -0.9538    Z=             -0.0181  Tot=              1.4010
 Quadrupole moment (field-independent basis, Debye-Ang):
   XX=            -51.1343   YY=            -59.2872   ZZ=            -50.8442
   XY=             -4.5321   XZ=             -0.8161   YZ=              0.4150

  Exact polarizability:  91.695  -1.413  74.870  -2.905   0.637  67.818
 Approx polarizability: 122.909   3.537 115.907  -5.627   0.515 101.370

                      1                      2                      3
                      A                      A                      A
 Frequencies --    109.4330               117.8482               144.7079
 Red. masses --      4.3957                 2.6809                 3.7554
 Frc consts  --      0.0310                 0.0219                 0.0463
 IR Inten    --      0.3847                 5.1477                 0.7065

                      4                      5                      6
                      A                      A                      A
 Frequencies --    197.4851               226.1424               255.8362
 Red. masses --      1.0636                 1.2029                 2.4704
 Frc consts  --      0.0244                 0.0362                 0.0953
 IR Inten    --      0.1851                 0.8899                 4.4374

                      7                      8                      9
                      A                      A                      A
 Frequencies --    307.7093               345.1512               377.1876
 Red. masses --      3.5935                 2.5635                 2.4387
 Frc consts  --      0.2005                 0.1799                 0.2044
 IR Inten    --      1.2534                 1.6196                 1.4467

                     10                     11                     12
                      A                      A                      A
 Frequencies --    450.3276               504.4633               550.5936
 Red. masses --      2.5329                 3.5345                 2.1824
 Frc consts  --      0.3026                 0.5299                 0.3898
 IR Inten    --      2.9688                 8.9556                 0.5938

                     13                     14                     15
                      A                      A                      A
 Frequencies --    619.7440               702.6744               734.0413
 Red. masses --      3.9718                 3.4952                 5.7006
 Frc consts  --      0.8988                 1.0168                 1.8097
 IR Inten    --      0.3555                 2.7411                 4.6791

                     16                     17                     18
                      A                      A                      A
 Frequencies --    854.1243               870.4074               913.2896
 Red. masses --      3.5086                 2.1034                 1.3927
 Frc consts  --      1.5081                 0.9389                 0.6844
 IR Inten    --      9.5041                16.3841                 0.5426

                     19                     20                     21
                      A                      A                      A
 Frequencies --    979.1727               990.0407              1003.5548
 Red. masses --      1.3211                 2.6789                 3.8703
 Frc consts  --      0.7463                 1.5471                 2.2966
 IR Inten    --      0.9462                41.4352                75.5191

                     22                     23                     24
                      A                      A                      A
 Frequencies --   1012.6926              1016.6941              1041.2696
 Red. masses --      2.4587                 2.4670                 1.5199
 Frc consts  --      1.4856                 1.5024                 0.9710
 IR Inten    --      5.1564                31.3029                16.2069

                     25                     26                     27
                      A                      A                      A
 Frequencies --   1056.1908              1136.8920              1146.2701
 Red. masses --      1.4498                 1.1260                 1.8715
 Frc consts  --      0.9529                 0.8575                 1.4488
 IR Inten    --     11.2654                 2.1363                43.1714

                     28                     29                     30
                      A                      A                      A
 Frequencies --   1172.8180              1216.4350              1282.1088
 Red. masses --      3.2527                 3.4680                 1.7659
 Frc consts  --      2.6360                 3.0234                 1.7103
 IR Inten    --     53.1374                37.5155                 1.9731

                     31                     32                     33
                      A                      A                      A
 Frequencies --   1306.6461              1387.2748              1411.2363
 Red. masses --      2.2941                 2.2471                 1.2796
 Frc consts  --      2.3077                 2.5480                 1.5014
 IR Inten    --      3.7719                14.3959                 6.2938

                     34                     35                     36
                      A                      A                      A
 Frequencies --   1425.5097              1462.6433              1480.9380
 Red. masses --      1.2751                 1.2254                 1.0667
 Frc consts  --      1.5267                 1.5446                 1.3784
 IR Inten    --      0.6982                 6.8013                 4.1733

                     37                     38                     39
                      A                      A                      A
 Frequencies --   1482.7466              1491.2402              1500.9584
 Red. masses --      1.1446                 1.0484                 1.0565
 Frc consts  --      1.4826                 1.3736                 1.4024
 IR Inten    --      5.0699                 5.7900                 8.2410

                     40                     41                     42
                      A                      A                      A
 Frequencies --   1513.5821              1903.7092              3027.3339
 Red. masses --      1.1653                12.7620                 1.0368
 Frc consts  --      1.5729                27.2501                 5.5982
 IR Inten    --      1.0758               273.9131                22.2313

                     43                     44                     45
                      A                      A                      A
 Frequencies --   3032.7339              3033.3253              3086.4938
 Red. masses --      1.0488                 1.0427                 1.1090
 Frc consts  --      5.6837                 5.6526                 6.2245
 IR Inten    --     51.2180                15.6710                13.8954

                     46                     47                     48
                      A                      A                      A
 Frequencies --   3088.1827              3093.1575              3118.4220
 Red. masses --      1.1012                 1.1009                 1.0964
 Frc consts  --      6.1874                 6.2058                 6.2821
 IR Inten    --      9.8358                34.0064                 8.1937

                     49                     50                     51
                      A                      A                      A
 Frequencies --   3122.9076              3125.5177              3216.8828
 Red. masses --      1.0727                 1.0828                 1.1173
 Frc consts  --      6.1636                 6.2322                 6.8120
 IR Inten    --      5.1523                15.7928                 2.7765

 - Thermochemistry -
 -------------------
 Temperature   298.150 Kelvin.  Pressure   1.00000 Atm.
 Atom     1 has atomic number  6 and mass  12.00000

 Molecular mass:   126.06808 amu.
 Principal axes and moments of inertia in atomic units:
                           1         2         3
     Eigenvalues --   720.808231213.915151573.42925
           X            0.99914  -0.04111   0.00603
           Y            0.04109   0.99915   0.00364
           Z           -0.00618  -0.00339   0.99998
 This molecule is an asymmetric top.
 Rotational symmetry number  1.
 Warning -- assumption of classical behavior for rotation
           may cause significant error
 Rotational temperatures (Kelvin)      0.12016     0.07135     0.05505
 Rotational constants (GHZ):           2.50377     1.48671     1.14701
 Zero-point vibrational energy     410598.7 (Joules/Mol)
                                   98.13545 (Kcal/Mol)
 Warning -- explicit consideration of  13 degrees of freedom as
           vibrations may cause significant error
 Vibrational temperatures:    157.45   169.56   208.20   284.14   325.37
          (Kelvin)            368.09   442.72   496.59   542.69   647.92
                              725.81   792.18   891.67  1010.99  1056.12
                             1228.89  1252.32  1314.02  1408.81  1424.45
                             1443.89  1457.04  1462.79  1498.15  1519.62
                             1635.73  1649.22  1687.42  1750.18  1844.67
                             1879.97  1995.98  2030.45  2050.99  2104.41
                             2130.74  2133.34  2145.56  2159.54  2177.70
                             2739.01  4355.65  4363.42  4364.27  4440.77
                             4443.20  4450.36  4486.71  4493.16  4496.92
                             4628.37

 Zero-point correction=                           0.156389 (Hartree/Particle)
 Thermal correction to Energy=                    0.165574
 Thermal correction to Enthalpy=                  0.166518
 Thermal correction to Gibbs Free Energy=         0.122772
 Sum of electronic and zero-point Energies=           -423.017387
 Sum of electronic and thermal Energies=              -423.008203
 Sum of electronic and thermal Enthalpies=            -423.007258
 Sum of electronic and thermal Free Energies=         -423.051004

                     E (Thermal)             CV                S
                      KCal/Mol        Cal/Mol-Kelvin    Cal/Mol-Kelvin
 Total                  103.899             34.362             92.070
 Electronic               0.000              0.000              0.000
 Translational            0.889              2.981             40.409
 Rotational               0.889              2.981             28.711
 Vibrational            102.122             28.400             22.950
 Vibration     1          0.606              1.942              3.279
 Vibration     2          0.608              1.935              3.135
 Vibration     3          0.616              1.908              2.741
 Vibration     4          0.637              1.843              2.156
 Vibration     5          0.650              1.801              1.909
 Vibration     6          0.666              1.753              1.690
 Vibration     7          0.698              1.659              1.375
 Vibration     8          0.724              1.585              1.188
 Vibration     9          0.748              1.519              1.050
 Vibration    10          0.809              1.360              0.795
 Vibration    11          0.860              1.240              0.647
 Vibration    12          0.906              1.138              0.543
 Vibration    13          0.980              0.990              0.417

 Normal termination of Gaussian 09 at Mon Jan 27 17:03:13 2020.
