 Gaussian 09, Revision D.01,
 Gaussian 09:  ES64L-G09RevD.01 24-Apr-2013

 -----------------------------
 # b3lyp 6-31G(2df,p) opt Freq
 -----------------------------

 -----
 titel
 -----
 Symbolic Z-matrix:
 Charge =  0 Multiplicity = 1

 SCF Done:  E(RB3LYP) =  -423.128668583     A.U. after   13 cycles
 Optimization completed.
    -- Stationary point found.
 Normal termination of Gaussian 09 at Mon Jan 27 23:07:02 2020.

 ----------------------------------------------------------------------
 #N Geom=AllCheck Guess=TCheck SCRF=Check GenChk RB3LYP/6-31G(2df,p) Fr
 eq
 ----------------------------------------------------------------------

 Structure from the checkpoint file:  "/scratch/puck/g09_44433137-6941-410d-a2fc-d707a91b6b29/Gau-79624.chk"
 -----
 titel
 -----
 Charge =  0 Multiplicity = 1

                         Standard orientation:
 ---------------------------------------------------------------------
 Center     Atomic      Atomic             Coordinates (Angstroms)
 Number     Number       Type             X           Y           Z
 ---------------------------------------------------------------------
      1          6           0        2.429531   -0.054089   -0.597919
      2          6           0        0.997398    0.254427   -0.242113
      3          6           0        0.586085    1.570079    0.374355
      4          6           0        0.467057    0.295513    1.184292
      5          6           0       -0.744105   -0.630107    1.011802
      6          8           0       -0.174352   -1.717587    0.189888
      7          6           0       -0.090420   -0.664224   -0.842244
      8          6           0       -1.470430   -0.218462   -0.308864
      9          8           0       -1.996685    1.050262   -0.594122
     10          1           0        2.623840   -1.129687   -0.523957
     11          1           0        2.669170    0.265016   -1.619514
     12          1           0        3.121898    0.459307    0.076961
     13          1           0        1.415720    2.211008    0.662263
     14          1           0       -0.293106    2.098885    0.043528
     15          1           0        1.119291    0.127654    2.033682
     16          1           0       -1.269736   -0.985808    1.897940
     17          1           0        0.059658   -1.050692   -1.850785
     18          1           0       -2.188645   -1.006768   -0.549101
     19          1           0       -2.940507    1.030872   -0.412996
 ---------------------------------------------------------------------

 SCF Done:  E(RB3LYP) =  -423.128668583     A.U. after    1 cycles

 The electronic state is 1-A.
 Alpha  occ. eigenvalues --  -19.14993 -19.12981 -10.24078 -10.23468 -10.23453
 Alpha  occ. eigenvalues --  -10.19088 -10.18245 -10.17815 -10.17338  -1.05070
 Alpha  occ. eigenvalues --   -1.02439  -0.85893  -0.72860  -0.71561  -0.67380
 Alpha  occ. eigenvalues --   -0.62199  -0.54909  -0.53920  -0.53135  -0.50917
 Alpha  occ. eigenvalues --   -0.44452  -0.44323  -0.42169  -0.40229  -0.39982
 Alpha  occ. eigenvalues --   -0.38458  -0.37167  -0.34916  -0.33590  -0.32072
 Alpha  occ. eigenvalues --   -0.29642  -0.26937  -0.24994  -0.24507
 Alpha virt. eigenvalues --    0.06247   0.09187   0.10344   0.11051   0.12415
 Alpha virt. eigenvalues --    0.14171   0.15824   0.16372   0.17001   0.17219
 Alpha virt. eigenvalues --    0.17638   0.18842   0.20046   0.21301   0.23502

 Mulliken charges:
               1
     1  C   -0.480835
     2  C    0.355556
     3  C   -0.360166
     4  C   -0.088009
     5  C   -0.001479
     6  O   -0.301679
     7  C   -0.037158
     8  C    0.108781
     9  O   -0.424921
    10  H    0.127943
    11  H    0.114413
    12  H    0.113715
    13  H    0.100749
    14  H    0.148367
    15  H    0.090001
    16  H    0.073189
    17  H    0.074485
    18  H    0.096049
    19  H    0.290998
 Sum of Mulliken charges =   0.00000

 Dipole moment (field-independent basis, Debye):
    X=             -1.2604    Y=              0.7251    Z=              0.2039  Tot=              1.4684
 Quadrupole moment (field-independent basis, Debye-Ang):
   XX=            -44.6414   YY=            -58.5054   ZZ=            -51.7586
   XY=              0.6403   XZ=             -0.4954   YZ=              1.3878

  Exact polarizability:  81.817   2.111  71.337  -1.971   1.361  69.273
 Approx polarizability: 108.063   0.291 112.861  -3.713  -0.016 109.345

                      1                      2                      3
                      A                      A                      A
 Frequencies --    152.5180               169.6822               216.3367
 Red. masses --      3.1513                 1.2242                 1.0373
 Frc consts  --      0.0432                 0.0208                 0.0286
 IR Inten    --     17.3811                78.2756                 0.0451

                      4                      5                      6
                      A                      A                      A
 Frequencies --    259.2036               292.5454               328.9047
 Red. masses --      2.7763                 5.8236                 2.4952
 Frc consts  --      0.1099                 0.2936                 0.1590
 IR Inten    --      1.7774                10.5491                 1.6853

                      7                      8                      9
                      A                      A                      A
 Frequencies --    423.9095               476.4388               576.0776
 Red. masses --      2.7455                 2.9344                 5.8570
 Frc consts  --      0.2907                 0.3924                 1.1452
 IR Inten    --      1.4254                 1.8347                 3.7087

                     10                     11                     12
                      A                      A                      A
 Frequencies --    594.1056               662.4410               708.8071
 Red. masses --      4.0974                 4.7226                 4.0676
 Frc consts  --      0.8521                 1.2210                 1.2041
 IR Inten    --      4.9789                 7.9586                 7.0632

                     13                     14                     15
                      A                      A                      A
 Frequencies --    747.9366               825.8255               835.0387
 Red. masses --      2.8553                 3.1574                 4.7834
 Frc consts  --      0.9411                 1.2687                 1.9652
 IR Inten    --     20.7945                 3.2870                14.3271

                     16                     17                     18
                      A                      A                      A
 Frequencies --    857.4621               902.3836               918.2371
 Red. masses --      2.8195                 2.3785                 2.1750
 Frc consts  --      1.2214                 1.1411                 1.0805
 IR Inten    --     11.2101                21.4596                13.0879

                     19                     20                     21
                      A                      A                      A
 Frequencies --    953.0224               972.4300               988.3568
 Red. masses --      1.7846                 1.6198                 1.6978
 Frc consts  --      0.9550                 0.9025                 0.9771
 IR Inten    --     16.0299                 0.6605                 4.9633

                     22                     23                     24
                      A                      A                      A
 Frequencies --   1035.3083              1062.0782              1064.6686
 Red. masses --      1.3739                 2.7533                 2.0935
 Frc consts  --      0.8676                 1.8299                 1.3982
 IR Inten    --      0.2552                 6.0043                 7.3036

                     25                     26                     27
                      A                      A                      A
 Frequencies --   1097.8086              1123.2532              1159.7765
 Red. masses --      1.2763                 1.6612                 1.6605
 Frc consts  --      0.9062                 1.2349                 1.3159
 IR Inten    --      3.9256                 3.1658                16.2890

                     28                     29                     30
                      A                      A                      A
 Frequencies --   1173.8799              1186.1421              1240.6978
 Red. masses --      3.8749                 1.2230                 1.6140
 Frc consts  --      3.1460                 1.0138                 1.4638
 IR Inten    --    168.3295                 6.6106                 5.2240

                     31                     32                     33
                      A                      A                      A
 Frequencies --   1252.5282              1266.6006              1290.2468
 Red. masses --      1.4790                 1.3974                 1.6836
 Frc consts  --      1.3671                 1.3208                 1.6513
 IR Inten    --     41.2620                 6.6558                 1.0403

                     34                     35                     36
                      A                      A                      A
 Frequencies --   1309.5131              1336.9926              1395.5765
 Red. masses --      2.0424                 1.6214                 1.6221
 Frc consts  --      2.0636                 1.7076                 1.8613
 IR Inten    --      2.3771                 7.3917                 2.2057

                     37                     38                     39
                      A                      A                      A
 Frequencies --   1415.5432              1450.5870              1489.0425
 Red. masses --      1.4524                 1.5455                 1.0467
 Frc consts  --      1.7147                 1.9160                 1.3674
 IR Inten    --      1.1059                10.2761                 3.0461

                     40                     41                     42
                      A                      A                      A
 Frequencies --   1499.3933              1500.2824              3021.5634
 Red. masses --      1.2288                 1.0540                 1.0363
 Frc consts  --      1.6277                 1.3978                 5.5742
 IR Inten    --      8.7834                 5.9633                37.5544

                     43                     44                     45
                      A                      A                      A
 Frequencies --   3072.0955              3082.4309              3099.5571
 Red. masses --      1.0864                 1.0995                 1.1009
 Frc consts  --      6.0411                 6.1548                 6.2314
 IR Inten    --     29.4594                21.8479                15.5890

                     46                     47                     48
                      A                      A                      A
 Frequencies --   3119.1287              3123.5512              3131.0333
 Red. masses --      1.0887                 1.0924                 1.0650
 Frc consts  --      6.2405                 6.2793                 6.1512
 IR Inten    --     67.7152                26.2278                24.7794

                     49                     50                     51
                      A                      A                      A
 Frequencies --   3177.4787              3269.4382              3835.9093
 Red. masses --      1.0914                 1.1044                 1.0666
 Frc consts  --      6.4926                 6.9553                 9.2472
 IR Inten    --     16.5813                 0.8816                37.8205

 - Thermochemistry -
 -------------------
 Temperature   298.150 Kelvin.  Pressure   1.00000 Atm.
 Atom     1 has atomic number  6 and mass  12.00000

 Molecular mass:   126.06808 amu.
 Principal axes and moments of inertia in atomic units:
                           1         2         3
     Eigenvalues --   673.834501055.313121253.13339
           X            0.99967   0.02179  -0.01391
           Y           -0.02124   0.99902   0.03893
           Z            0.01474  -0.03862   0.99915
 This molecule is an asymmetric top.
 Rotational symmetry number  1.
 Warning -- assumption of classical behavior for rotation
           may cause significant error
 Rotational temperatures (Kelvin)      0.12854     0.08207     0.06912
 Rotational constants (GHZ):           2.67832     1.71015     1.44018
 Zero-point vibrational energy     419552.9 (Joules/Mol)
                                  100.27555 (Kcal/Mol)
 Warning -- explicit consideration of  10 degrees of freedom as
           vibrations may cause significant error
 Vibrational temperatures:    219.44   244.13   311.26   372.94   420.91
          (Kelvin)            473.22   609.91   685.49   828.85   854.78
                              953.10  1019.81  1076.11  1188.18  1201.43
                             1233.70  1298.33  1321.14  1371.19  1399.11
                             1422.02  1489.58  1528.09  1531.82  1579.50
                             1616.11  1668.66  1688.95  1706.59  1785.09
                             1802.11  1822.35  1856.38  1884.09  1923.63
                             2007.92  2036.65  2087.07  2142.40  2157.29
                             2158.57  4347.35  4420.05  4434.92  4459.57
                             4487.72  4494.09  4504.85  4571.68  4703.99
                             5519.01

 Zero-point correction=                           0.159799 (Hartree/Particle)
 Thermal correction to Energy=                    0.167636
 Thermal correction to Enthalpy=                  0.168580
 Thermal correction to Gibbs Free Energy=         0.127972
 Sum of electronic and zero-point Energies=           -422.968869
 Sum of electronic and thermal Energies=              -422.961033
 Sum of electronic and thermal Enthalpies=            -422.960088
 Sum of electronic and thermal Free Energies=         -423.000697

                     E (Thermal)             CV                S
                      KCal/Mol        Cal/Mol-Kelvin    Cal/Mol-Kelvin
 Total                  105.193             31.529             85.468
 Electronic               0.000              0.000              0.000
 Translational            0.889              2.981             40.409
 Rotational               0.889              2.981             28.279
 Vibrational            103.416             25.567             16.780
 Vibration     1          0.619              1.900              2.641
 Vibration     2          0.625              1.880              2.439
 Vibration     3          0.645              1.816              1.990
 Vibration     4          0.668              1.747              1.667
 Vibration     5          0.688              1.688              1.459
 Vibration     6          0.712              1.618              1.265
 Vibration     7          0.786              1.418              0.879
 Vibration     8          0.833              1.302              0.720
 Vibration     9          0.932              1.083              0.493
 Vibration    10          0.952              1.044              0.460

 Normal termination of Gaussian 09 at Mon Jan 27 23:54:53 2020.
