 Gaussian 09, Revision D.01,
 Gaussian 09:  ES64L-G09RevD.01 24-Apr-2013

 -----------------------------
 # b3lyp 6-31G(2df,p) opt Freq
 -----------------------------

 -----
 titel
 -----
 Symbolic Z-matrix:
 Charge =  0 Multiplicity = 1

 SCF Done:  E(RB3LYP) =  -423.127034694     A.U. after   14 cycles
 SCF Done:  E(RB3LYP) =  -423.127034663     A.U. after    7 cycles
 SCF Done:  E(RB3LYP) =  -423.127034718     A.U. after    6 cycles
 SCF Done:  E(RB3LYP) =  -423.127034754     A.U. after    7 cycles
 SCF Done:  E(RB3LYP) =  -423.127034864     A.U. after    7 cycles
 Optimization completed.
    -- Stationary point found.
 Normal termination of Gaussian 09 at Tue Jan 28 09:07:34 2020.

 ----------------------------------------------------------------------
 #N Geom=AllCheck Guess=TCheck SCRF=Check GenChk RB3LYP/6-31G(2df,p) Fr
 eq
 ----------------------------------------------------------------------

 Structure from the checkpoint file:  "/scratch/puck/g09_38995eda-63ad-465d-a281-9ecf016992a5/Gau-129587.chk"
 -----
 titel
 -----
 Charge =  0 Multiplicity = 1

                         Standard orientation:
 ---------------------------------------------------------------------
 Center     Atomic      Atomic             Coordinates (Angstroms)
 Number     Number       Type             X           Y           Z
 ---------------------------------------------------------------------
      1          6           0       -0.473798   -1.853563    0.075038
      2          6           0       -0.516755   -0.365239    0.346141
      3          6           0       -1.908306    0.247141    0.246509
      4          8           0       -2.425664    0.221069   -1.074784
      5          8           0        0.247102    0.080076    1.473927
      6          6           0        0.701414    0.473769    0.158040
      7          6           0        0.661817    1.957845   -0.155890
      8          6           0        1.926895   -0.161266   -0.282560
      9          6           0        2.962973   -0.629513   -0.673806
     10          1           0       -1.120244   -2.381220    0.785443
     11          1           0       -0.827741   -2.069943   -0.938797
     12          1           0        0.539554   -2.243391    0.169618
     13          1           0       -2.568509   -0.281842    0.951340
     14          1           0       -1.888087    1.292617    0.555207
     15          1           0       -2.701273   -0.678162   -1.274565
     16          1           0       -0.231320    2.433431    0.248221
     17          1           0        1.537679    2.446826    0.280018
     18          1           0        0.688172    2.113709   -1.238132
     19          1           0        3.874820   -1.056226   -1.012337
 ---------------------------------------------------------------------

 SCF Done:  E(RB3LYP) =  -423.127034864     A.U. after    1 cycles

 The electronic state is 1-A.
 Alpha  occ. eigenvalues --  -19.15302 -19.14514 -10.26371 -10.24664 -10.23485
 Alpha  occ. eigenvalues --  -10.18668 -10.18576 -10.18424 -10.18187  -1.07429
 Alpha  occ. eigenvalues --   -1.02485  -0.78201  -0.76252  -0.73121  -0.69496
 Alpha  occ. eigenvalues --   -0.63726  -0.58105  -0.53441  -0.51337  -0.49317
 Alpha  occ. eigenvalues --   -0.47589  -0.44765  -0.42721  -0.42026  -0.40147
 Alpha  occ. eigenvalues --   -0.39748  -0.38433  -0.36918  -0.33824  -0.31861
 Alpha  occ. eigenvalues --   -0.29429  -0.27921  -0.26633  -0.25488
 Alpha virt. eigenvalues --    0.02567   0.04376   0.06123   0.10562   0.11161
 Alpha virt. eigenvalues --    0.12133   0.12351   0.14160   0.14564   0.15720
 Alpha virt. eigenvalues --    0.17474   0.19832   0.20629   0.21538   0.22713

 Mulliken charges:
               1
     1  C   -0.486021
     2  C    0.329828
     3  C   -0.144654
     4  O   -0.413031
     5  O   -0.316822
     6  C    0.125205
     7  C   -0.474140
     8  C    0.307512
     9  C   -0.432418
    10  H    0.122221
    11  H    0.118805
    12  H    0.148184
    13  H    0.097105
    14  H    0.121453
    15  H    0.289995
    16  H    0.131357
    17  H    0.137049
    18  H    0.140225
    19  H    0.198148
 Sum of Mulliken charges =   0.00000

 Dipole moment (field-independent basis, Debye):
    X=             -0.4136    Y=             -1.1143    Z=             -0.9397  Tot=              1.5152
 Quadrupole moment (field-independent basis, Debye-Ang):
   XX=            -48.3953   YY=            -49.5137   ZZ=            -57.3697
   XY=              2.7536   XZ=             -3.6610   YZ=              2.3523

  Exact polarizability:  97.745  -1.786  75.710  -8.742   2.233  61.331
 Approx polarizability: 139.431  -7.463 104.489 -16.195   5.516 101.805

                      1                      2                      3
                      A                      A                      A
 Frequencies --     30.9774                98.1361               126.5202
 Red. masses --      3.2813                 3.3583                 1.1528
 Frc consts  --      0.0019                 0.0191                 0.0109
 IR Inten    --      2.6102                 0.4666                 0.2752

                      4                      5                      6
                      A                      A                      A
 Frequencies --    150.6719               170.3182               231.8216
 Red. masses --      2.0426                 1.4147                 2.1393
 Frc consts  --      0.0273                 0.0242                 0.0677
 IR Inten    --      3.0402                 1.7360                54.9229

                      7                      8                      9
                      A                      A                      A
 Frequencies --    244.0453               276.3446               314.8046
 Red. masses --      3.2974                 1.2678                 2.9258
 Frc consts  --      0.1157                 0.0570                 0.1708
 IR Inten    --      2.7776                67.5436                 3.8816

                     10                     11                     12
                      A                      A                      A
 Frequencies --    366.6816               396.6373               455.2602
 Red. masses --      2.2645                 3.5389                 4.4078
 Frc consts  --      0.1794                 0.3280                 0.5383
 IR Inten    --      6.0669                 0.5722                 6.2532

                     13                     14                     15
                      A                      A                      A
 Frequencies --    522.9439               551.3787               571.4914
 Red. masses --      4.2815                 4.7453                 6.5355
 Frc consts  --      0.6898                 0.8500                 1.2576
 IR Inten    --      6.9660                 4.5461                 8.7302

                     16                     17                     18
                      A                      A                      A
 Frequencies --    627.5911               653.8523               659.3794
 Red. masses --      1.2505                 3.0525                 1.3938
 Frc consts  --      0.2902                 0.7689                 0.3570
 IR Inten    --     39.4711                12.7883                28.6846

                     19                     20                     21
                      A                      A                      A
 Frequencies --    733.4276               875.5732               893.9403
 Red. masses --      4.2303                 2.8215                 2.5455
 Frc consts  --      1.3407                 1.2744                 1.1985
 IR Inten    --     14.6958                 7.7922                 8.1559

                     22                     23                     24
                      A                      A                      A
 Frequencies --    953.3936               993.6562              1059.5539
 Red. masses --      1.4628                 1.5716                 1.8961
 Frc consts  --      0.7834                 0.9143                 1.2542
 IR Inten    --     14.9027                16.6717                 3.5267

                     25                     26                     27
                      A                      A                      A
 Frequencies --   1068.6497              1114.1307              1118.4676
 Red. masses --      5.0367                 1.6017                 2.0730
 Frc consts  --      3.3890                 1.1714                 1.5279
 IR Inten    --    103.9009                16.9989                13.3403

                     28                     29                     30
                      A                      A                      A
 Frequencies --   1202.8293              1203.9107              1267.2748
 Red. masses --      2.4398                 2.1809                 2.7828
 Frc consts  --      2.0797                 1.8624                 2.6331
 IR Inten    --     14.6480                36.9556                 9.4658

                     31                     32                     33
                      A                      A                      A
 Frequencies --   1384.8051              1390.0821              1407.5699
 Red. masses --      1.3038                 1.4018                 1.2585
 Frc consts  --      1.4732                 1.5960                 1.4691
 IR Inten    --      9.2962                51.9590                11.0480

                     34                     35                     36
                      A                      A                      A
 Frequencies --   1411.7793              1430.2455              1476.9039
 Red. masses --      1.2909                 2.2116                 1.0548
 Frc consts  --      1.5159                 2.6654                 1.3555
 IR Inten    --      0.9391                 3.0651                 6.2157

                     37                     38                     39
                      A                      A                      A
 Frequencies --   1483.3355              1488.4054              1500.1637
 Red. masses --      1.0654                 1.0575                 1.2225
 Frc consts  --      1.3811                 1.3803                 1.6210
 IR Inten    --      1.8979                 3.1353                 4.4752

                     40                     41                     42
                      A                      A                      A
 Frequencies --   1513.7991              2233.2140              2988.9946
 Red. masses --      1.0843                 5.9584                 1.0727
 Frc consts  --      1.4640                17.5083                 5.6466
 IR Inten    --      5.0085                 0.6159                50.7539

                     43                     44                     45
                      A                      A                      A
 Frequencies --   3035.6712              3054.3738              3096.0497
 Red. masses --      1.0393                 1.0371                 1.1003
 Frc consts  --      5.6429                 5.7005                 6.2141
 IR Inten    --     24.4602                10.0979                18.9571

                     46                     47                     48
                      A                      A                      A
 Frequencies --   3119.2127              3123.8483              3151.7387
 Red. masses --      1.1015                 1.0914                 1.0973
 Frc consts  --      6.3140                 6.2750                 6.4221
 IR Inten    --     11.6124                19.5990                 6.7941

                     49                     50                     51
                      A                      A                      A
 Frequencies --   3157.1470              3500.5534              3833.8048
 Red. masses --      1.0980                 1.1616                 1.0664
 Frc consts  --      6.4484                 8.3867                 9.2349
 IR Inten    --     17.3180                70.7785                22.5921

 - Thermochemistry -
 -------------------
 Temperature   298.150 Kelvin.  Pressure   1.00000 Atm.
 Atom     1 has atomic number  6 and mass  12.00000

 Molecular mass:   126.06808 amu.
 Principal axes and moments of inertia in atomic units:
                           1         2         3
     Eigenvalues --   723.438521475.582061702.77983
           X            0.99971   0.01838  -0.01583
           Y           -0.01821   0.99978   0.01076
           Z            0.01602  -0.01047   0.99982
 This molecule is an asymmetric top.
 Rotational symmetry number  1.
 Warning -- assumption of classical behavior for rotation
           may cause significant error
 Rotational temperatures (Kelvin)      0.11973     0.05870     0.05087
 Rotational constants (GHZ):           2.49467     1.22307     1.05988
 Zero-point vibrational energy     405027.8 (Joules/Mol)
                                   96.80397 (Kcal/Mol)
 Warning -- explicit consideration of  15 degrees of freedom as
           vibrations may cause significant error
 Vibrational temperatures:     44.57   141.20   182.03   216.78   245.05
          (Kelvin)            333.54   351.13   397.60   452.93   527.57
                              570.67   655.02   752.40   793.31   822.25
                              902.96   940.75   948.70  1055.24  1259.75
                             1286.18  1371.72  1429.65  1524.46  1537.55
                             1602.98  1609.22  1730.60  1732.16  1823.32
                             1992.42  2000.02  2025.18  2031.23  2057.80
                             2124.93  2134.19  2141.48  2158.40  2178.02
                             3213.09  4300.49  4367.65  4394.56  4454.52
                             4487.85  4494.52  4534.64  4542.42  5036.51
                             5515.98

 Zero-point correction=                           0.154267 (Hartree/Particle)
 Thermal correction to Energy=                    0.164914
 Thermal correction to Enthalpy=                  0.165858
 Thermal correction to Gibbs Free Energy=         0.118250
 Sum of electronic and zero-point Energies=           -422.972768
 Sum of electronic and thermal Energies=              -422.962121
 Sum of electronic and thermal Enthalpies=            -422.961177
 Sum of electronic and thermal Free Energies=         -423.008785

                     E (Thermal)             CV                S
                      KCal/Mol        Cal/Mol-Kelvin    Cal/Mol-Kelvin
 Total                  103.485             38.393            100.199
 Electronic               0.000              0.000              0.000
 Translational            0.889              2.981             40.409
 Rotational               0.889              2.981             28.987
 Vibrational            101.707             32.432             30.803
 Vibration     1          0.594              1.984              5.766
 Vibration     2          0.604              1.950              3.491
 Vibration     3          0.611              1.927              2.998
 Vibration     4          0.618              1.902              2.664
 Vibration     5          0.625              1.879              2.432
 Vibration     6          0.653              1.792              1.865
 Vibration     7          0.659              1.773              1.773
 Vibration     8          0.678              1.717              1.556
 Vibration     9          0.702              1.645              1.337
 Vibration    10          0.740              1.541              1.094
 Vibration    11          0.763              1.477              0.975
 Vibration    12          0.814              1.349              0.780
 Vibration    13          0.878              1.199              0.603
 Vibration    14          0.907              1.137              0.541
 Vibration    15          0.928              1.093              0.501

 Normal termination of Gaussian 09 at Tue Jan 28 09:48:00 2020.
