 Gaussian 09, Revision D.01,
 Gaussian 09:  ES64L-G09RevD.01 24-Apr-2013

 -----------------------------
 # b3lyp 6-31G(2df,p) opt Freq
 -----------------------------

 -----
 titel
 -----
 Symbolic Z-matrix:
 Charge =  0 Multiplicity = 1

 SCF Done:  E(RB3LYP) =  -423.117960124     A.U. after   14 cycles
 Optimization completed.
    -- Stationary point found.
 Normal termination of Gaussian 09 at Tue Jan 28 14:29:32 2020.

 ----------------------------------------------------------------------
 #N Geom=AllCheck Guess=TCheck SCRF=Check GenChk RB3LYP/6-31G(2df,p) Fr
 eq
 ----------------------------------------------------------------------

 Structure from the checkpoint file:  "/scratch/puck/g09_c70ac277-46e5-4200-ace5-8851efa3f3bc/Gau-122071.chk"
 -----
 titel
 -----
 Charge =  0 Multiplicity = 1

                         Standard orientation:
 ---------------------------------------------------------------------
 Center     Atomic      Atomic             Coordinates (Angstroms)
 Number     Number       Type             X           Y           Z
 ---------------------------------------------------------------------
      1          8           0       -3.658006    0.237636   -0.440954
      2          6           0       -2.613709   -0.238008    0.391383
      3          6           0       -1.223424    0.039792   -0.180623
      4          6           0       -0.101996   -0.533181    0.694320
      5          6           0        1.282986   -0.247504    0.138721
      6          6           0        2.344315   -1.273670    0.212083
      7          8           0        1.651305   -1.039112   -1.008852
      8          6           0        1.669971    1.144674    0.075491
      9          6           0        1.965755    2.309523    0.047541
     10          1           0       -3.553904    1.190745   -0.526231
     11          1           0       -2.690613    0.179907    1.409449
     12          1           0       -2.776518   -1.318435    0.477788
     13          1           0       -1.159185   -0.386637   -1.187485
     14          1           0       -1.083798    1.124373   -0.283321
     15          1           0       -0.163695   -0.120753    1.709397
     16          1           0       -0.213240   -1.620071    0.778086
     17          1           0        3.387235   -0.962964    0.228210
     18          1           0        2.125569   -2.219703    0.706500
     19          1           0        2.238372    3.335597    0.012556
 ---------------------------------------------------------------------

 SCF Done:  E(RB3LYP) =  -423.117960124     A.U. after    1 cycles

 The electronic state is 1-A.
 Alpha  occ. eigenvalues --  -19.16096 -19.13216 -10.26912 -10.24377 -10.22627
 Alpha  occ. eigenvalues --  -10.19806 -10.19165 -10.18692 -10.18308  -1.08189
 Alpha  occ. eigenvalues --   -1.01350  -0.80607  -0.76166  -0.70961  -0.66875
 Alpha  occ. eigenvalues --   -0.63517  -0.60395  -0.53741  -0.51258  -0.50293
 Alpha  occ. eigenvalues --   -0.48598  -0.46120  -0.43315  -0.42199  -0.39822
 Alpha  occ. eigenvalues --   -0.39286  -0.36877  -0.34786  -0.34071  -0.31653
 Alpha  occ. eigenvalues --   -0.28662  -0.27969  -0.26841  -0.26126
 Alpha virt. eigenvalues --    0.02214   0.03886   0.07750   0.09576   0.10568
 Alpha virt. eigenvalues --    0.11767   0.12195   0.13063   0.14879   0.15173
 Alpha virt. eigenvalues --    0.16713   0.17939   0.19040   0.19268   0.20245

 Mulliken charges:
               1
     1  O   -0.418277
     2  C   -0.057634
     3  C   -0.199381
     4  C   -0.292367
     5  C    0.214110
     6  C   -0.216000
     7  O   -0.262132
     8  C    0.318680
     9  C   -0.447550
    10  H    0.280490
    11  H    0.083414
    12  H    0.111447
    13  H    0.124308
    14  H    0.100451
    15  H    0.109535
    16  H    0.109154
    17  H    0.123888
    18  H    0.116623
    19  H    0.201242
 Sum of Mulliken charges =   0.00000

 Dipole moment (field-independent basis, Debye):
    X=              1.1403    Y=              1.0691    Z=              2.1301  Tot=              2.6420
 Quadrupole moment (field-independent basis, Debye-Ang):
   XX=            -58.6164   YY=            -45.3880   ZZ=            -56.1259
   XY=             -2.6271   XZ=              0.7890   YZ=             -3.0192

  Exact polarizability:  83.717   1.281  92.857   0.618  -2.739  57.790
 Approx polarizability: 101.678   4.188 148.253   2.253  -0.337  91.908

                      1                      2                      3
                      A                      A                      A
 Frequencies --     53.1969                72.7332               106.8406
 Red. masses --      4.5068                 1.7735                 4.8263
 Frc consts  --      0.0075                 0.0055                 0.0325
 IR Inten    --      0.3004                 3.5345                 1.3791

                      4                      5                      6
                      A                      A                      A
 Frequencies --    139.0354               173.8249               221.1437
 Red. masses --      2.8053                 3.2453                 3.9171
 Frc consts  --      0.0320                 0.0578                 0.1129
 IR Inten    --      3.0311                 1.1769                 3.0910

                      7                      8                      9
                      A                      A                      A
 Frequencies --    288.7174               298.7837               335.0123
 Red. masses --      2.5635                 1.4640                 2.6036
 Frc consts  --      0.1259                 0.0770                 0.1722
 IR Inten    --      6.9220                77.6544                35.7030

                     10                     11                     12
                      A                      A                      A
 Frequencies --    392.6803               475.0609               550.7076
 Red. masses --      3.4719                 3.7558                 6.7661
 Frc consts  --      0.3154                 0.4994                 1.2090
 IR Inten    --      4.0941                 5.6063                 7.0228

                     13                     14                     15
                      A                      A                      A
 Frequencies --    582.7515               625.0102               664.1963
 Red. masses --      4.7840                 1.2170                 1.2477
 Frc consts  --      0.9572                 0.2801                 0.3243
 IR Inten    --      5.1027                39.4734                34.6150

                     16                     17                     18
                      A                      A                      A
 Frequencies --    712.0585               754.5499               818.9349
 Red. masses --      5.0917                 1.1487                 2.3260
 Frc consts  --      1.5211                 0.3853                 0.9191
 IR Inten    --     12.1242                 0.3687                14.0093

                     19                     20                     21
                      A                      A                      A
 Frequencies --    878.1199               914.1823               959.0069
 Red. masses --      1.5687                 1.5514                 6.8762
 Frc consts  --      0.7127                 0.7639                 3.7260
 IR Inten    --     11.6407                 6.2782                33.3536

                     22                     23                     24
                      A                      A                      A
 Frequencies --   1026.3003              1054.7085              1082.7425
 Red. masses --      2.7358                 3.0061                 3.8015
 Frc consts  --      1.6978                 1.9703                 2.6257
 IR Inten    --     23.4279                 1.4502                90.3659

                     25                     26                     27
                      A                      A                      A
 Frequencies --   1096.5441              1133.3078              1145.6654
 Red. masses --      1.9510                 1.3131                 1.2447
 Frc consts  --      1.3821                 0.9936                 0.9625
 IR Inten    --      8.8985                 4.2196                14.9639

                     28                     29                     30
                      A                      A                      A
 Frequencies --   1170.2178              1251.3332              1266.8141
 Red. masses --      1.3359                 2.2293                 1.4194
 Frc consts  --      1.0778                 2.0567                 1.3421
 IR Inten    --      3.7341                17.7407                 7.2535

                     31                     32                     33
                      A                      A                      A
 Frequencies --   1295.0779              1322.9017              1359.7738
 Red. masses --      1.5125                 1.1253                 1.7268
 Frc consts  --      1.4947                 1.1603                 1.8811
 IR Inten    --     13.6713                 1.8505                 8.0509

                     34                     35                     36
                      A                      A                      A
 Frequencies --   1387.3642              1404.9691              1426.1388
 Red. masses --      1.6414                 1.5460                 1.2842
 Frc consts  --      1.8615                 1.7980                 1.5389
 IR Inten    --     10.5628                 2.6069                57.5813

                     37                     38                     39
                      A                      A                      A
 Frequencies --   1469.7738              1493.8639              1516.3402
 Red. masses --      1.0880                 1.0843                 1.0951
 Frc consts  --      1.3847                 1.4257                 1.4836
 IR Inten    --      1.9764                 1.9501                 0.6456

                     40                     41                     42
                      A                      A                      A
 Frequencies --   1519.3154              2236.8422              2961.8933
 Red. masses --      1.2318                 5.9520                 1.0710
 Frc consts  --      1.6752                17.5463                 5.5358
 IR Inten    --      1.1504                 1.2025                60.3922

                     43                     44                     45
                      A                      A                      A
 Frequencies --   3020.9212              3028.9417              3060.0433
 Red. masses --      1.0628                 1.0621                 1.0865
 Frc consts  --      5.7148                 5.7411                 5.9943
 IR Inten    --      5.0763                25.3641                26.7066

                     46                     47                     48
                      A                      A                      A
 Frequencies --   3068.8449              3082.4786              3091.3532
 Red. masses --      1.0993                 1.0505                 1.1029
 Frc consts  --      6.1000                 5.8811                 6.2101
 IR Inten    --      0.3484                26.6885                48.0227

                     49                     50                     51
                      A                      A                      A
 Frequencies --   3175.7339              3500.1995              3814.3378
 Red. masses --      1.1198                 1.1622                 1.0661
 Frc consts  --      6.6537                 8.3888                 9.1386
 IR Inten    --     19.1306                68.0339                14.5890

 - Thermochemistry -
 -------------------
 Temperature   298.150 Kelvin.  Pressure   1.00000 Atm.
 Atom     1 has atomic number  8 and mass  15.99491

 Molecular mass:   126.06808 amu.
 Principal axes and moments of inertia in atomic units:
                           1         2         3
     Eigenvalues --   653.226212181.441552576.41541
           X            0.99999  -0.00453   0.00048
           Y            0.00455   0.99931  -0.03673
           Z           -0.00032   0.03674   0.99932
 This molecule is an asymmetric top.
 Rotational symmetry number  1.
 Warning -- assumption of classical behavior for rotation
           may cause significant error
 Rotational temperatures (Kelvin)      0.13259     0.03970     0.03362
 Rotational constants (GHZ):           2.76281     0.82732     0.70049
 Zero-point vibrational energy     409609.1 (Joules/Mol)
                                   97.89892 (Kcal/Mol)
 Warning -- explicit consideration of  13 degrees of freedom as
           vibrations may cause significant error
 Vibrational temperatures:     76.54   104.65   153.72   200.04   250.09
          (Kelvin)            318.18   415.40   429.88   482.01   564.98
                              683.51   792.34   838.45   899.25   955.63
                             1024.49  1085.63  1178.26  1263.42  1315.30
                             1379.80  1476.62  1517.49  1557.82  1577.68
                             1630.58  1648.35  1683.68  1800.39  1822.66
                             1863.33  1903.36  1956.41  1996.11  2021.43
                             2051.89  2114.67  2149.33  2181.67  2185.95
                             3218.31  4261.50  4346.43  4357.97  4402.71
                             4415.38  4434.99  4447.76  4569.17  5036.00
                             5487.97

 Zero-point correction=                           0.156012 (Hartree/Particle)
 Thermal correction to Energy=                    0.166106
 Thermal correction to Enthalpy=                  0.167050
 Thermal correction to Gibbs Free Energy=         0.120107
 Sum of electronic and zero-point Energies=           -422.961948
 Sum of electronic and thermal Energies=              -422.951855
 Sum of electronic and thermal Enthalpies=            -422.950910
 Sum of electronic and thermal Free Energies=         -422.997853

                     E (Thermal)             CV                S
                      KCal/Mol        Cal/Mol-Kelvin    Cal/Mol-Kelvin
 Total                  104.233             36.225             98.799
 Electronic               0.000              0.000              0.000
 Translational            0.889              2.981             40.409
 Rotational               0.889              2.981             29.686
 Vibrational            102.455             30.263             28.705
 Vibration     1          0.596              1.976              4.695
 Vibration     2          0.599              1.967              4.078
 Vibration     3          0.606              1.944              3.326
 Vibration     4          0.615              1.914              2.817
 Vibration     5          0.627              1.875              2.394
 Vibration     6          0.648              1.809              1.950
 Vibration     7          0.685              1.695              1.481
 Vibration     8          0.692              1.676              1.424
 Vibration     9          0.716              1.606              1.236
 Vibration    10          0.760              1.486              0.990
 Vibration    11          0.832              1.305              0.724
 Vibration    12          0.906              1.138              0.543
 Vibration    13          0.940              1.069              0.480

 Normal termination of Gaussian 09 at Tue Jan 28 15:01:46 2020.
