 Gaussian 09, Revision D.01,
 Gaussian 09:  ES64L-G09RevD.01 24-Apr-2013

 -----------------------------
 # b3lyp 6-31G(2df,p) opt Freq
 -----------------------------

 -----
 titel
 -----
 Symbolic Z-matrix:
 Charge =  0 Multiplicity = 1

 SCF Done:  E(RB3LYP) =  -423.111163595     A.U. after   14 cycles
 Optimization completed.
    -- Stationary point found.
 Normal termination of Gaussian 09 at Mon Jan 27 17:27:10 2020.

 ----------------------------------------------------------------------
 #N Geom=AllCheck Guess=TCheck SCRF=Check GenChk RB3LYP/6-31G(2df,p) Fr
 eq
 ----------------------------------------------------------------------

 Structure from the checkpoint file:  "/scratch/puck/g09_ae68edd7-ba8e-4794-b360-e5fbbb5a9f20/Gau-72559.chk"
 -----
 titel
 -----
 Charge =  0 Multiplicity = 1

                         Standard orientation:
 ---------------------------------------------------------------------
 Center     Atomic      Atomic             Coordinates (Angstroms)
 Number     Number       Type             X           Y           Z
 ---------------------------------------------------------------------
      1          6           0       -2.286660   -0.489123   -0.922382
      2          6           0       -1.054899   -0.428658   -0.068914
      3          6           0       -1.011327    0.120772    1.346891
      4          6           0       -0.155853    0.741660    0.273775
      5          8           0       -0.279973    2.044543   -0.173972
      6          6           0        1.106057   -0.144555   -0.061820
      7          6           0        2.393893    0.350616   -0.627242
      8          8           0        1.089842   -1.294916    0.801181
      9          6           0        0.231526   -1.275832   -0.356573
     10          1           0       -2.918843    0.387208   -0.750696
     11          1           0       -2.033325   -0.508260   -1.988810
     12          1           0       -2.883529   -1.383122   -0.705578
     13          1           0       -1.883941    0.717224    1.599211
     14          1           0       -0.577690   -0.447115    2.160737
     15          1           0       -0.014999    2.637506    0.538210
     16          1           0        2.989556    0.858141    0.140534
     17          1           0        2.984143   -0.479784   -1.023403
     18          1           0        2.200645    1.068330   -1.430027
     19          1           0        0.322603   -2.096428   -1.060254
 ---------------------------------------------------------------------

 SCF Done:  E(RB3LYP) =  -423.111163595     A.U. after    1 cycles

 The electronic state is 1-A.
 Alpha  occ. eigenvalues --  -19.15304 -19.14593 -10.23610 -10.23472 -10.22987
 Alpha  occ. eigenvalues --  -10.19492 -10.18464 -10.18118 -10.18067  -1.07230
 Alpha  occ. eigenvalues --   -1.03452  -0.86154  -0.74660  -0.71673  -0.67774
 Alpha  occ. eigenvalues --   -0.61171  -0.56357  -0.54483  -0.49783  -0.47565
 Alpha  occ. eigenvalues --   -0.46543  -0.42954  -0.42065  -0.41422  -0.41077
 Alpha  occ. eigenvalues --   -0.39069  -0.37741  -0.36837  -0.35027  -0.33146
 Alpha  occ. eigenvalues --   -0.32101  -0.26789  -0.24317  -0.22061
 Alpha virt. eigenvalues --    0.06583   0.08095   0.11149   0.11445   0.12645
 Alpha virt. eigenvalues --    0.12767   0.14271   0.15378   0.15687   0.16580
 Alpha virt. eigenvalues --    0.17354   0.18856   0.19705   0.20896   0.22807

 Mulliken charges:
               1
     1  C   -0.495720
     2  C    0.248666
     3  C   -0.403070
     4  C    0.265833
     5  O   -0.455657
     6  C    0.357246
     7  C   -0.508913
     8  O   -0.286169
     9  C   -0.116668
    10  H    0.128753
    11  H    0.119574
    12  H    0.120988
    13  H    0.108580
    14  H    0.130496
    15  H    0.289205
    16  H    0.126182
    17  H    0.133113
    18  H    0.138118
    19  H    0.099444
 Sum of Mulliken charges =   0.00000

 Dipole moment (field-independent basis, Debye):
    X=             -0.1314    Y=              1.0273    Z=             -0.3609  Tot=              1.0968
 Quadrupole moment (field-independent basis, Debye-Ang):
   XX=            -51.6083   YY=            -51.7020   ZZ=            -53.0304
   XY=              2.8036   XZ=             -1.9079   YZ=              6.0164

  Exact polarizability:  83.834   3.340  74.334  -0.990   4.134  68.039
 Approx polarizability: 110.132   5.025 115.117   2.395   3.216 105.091

                      1                      2                      3
                      A                      A                      A
 Frequencies --    147.9340               162.8779               182.5172
 Red. masses --      2.6173                 2.9997                 1.0940
 Frc consts  --      0.0337                 0.0469                 0.0215
 IR Inten    --      0.7755                 3.6212                 0.0940

                      4                      5                      6
                      A                      A                      A
 Frequencies --    188.5601               214.9513               289.8080
 Red. masses --      1.0746                 3.1446                 1.8493
 Frc consts  --      0.0225                 0.0856                 0.0915
 IR Inten    --      0.9503                 1.0994                23.7260

                      7                      8                      9
                      A                      A                      A
 Frequencies --    321.7467               352.0512               420.7925
 Red. masses --      1.4466                 2.6988                 4.7889
 Frc consts  --      0.0882                 0.1971                 0.4996
 IR Inten    --     53.2943                18.1855                15.1482

                     10                     11                     12
                      A                      A                      A
 Frequencies --    441.2441               516.6712               541.2779
 Red. masses --      2.8027                 4.2884                 3.3913
 Frc consts  --      0.3215                 0.6745                 0.5854
 IR Inten    --      0.0685                 2.0155                 8.3278

                     13                     14                     15
                      A                      A                      A
 Frequencies --    564.7817               630.6814               757.4088
 Red. masses --      3.2056                 4.1778                 3.5905
 Frc consts  --      0.6025                 0.9791                 1.2136
 IR Inten    --      5.3901                 2.0436                 0.4083

                     16                     17                     18
                      A                      A                      A
 Frequencies --    780.7704               797.3932               863.1883
 Red. masses --      3.6727                 3.6383                 2.3663
 Frc consts  --      1.3191                 1.3630                 1.0388
 IR Inten    --     11.5542                 5.8583                 7.9289

                     19                     20                     21
                      A                      A                      A
 Frequencies --    880.9900               963.1914               965.7098
 Red. masses --      2.3630                 2.0472                 1.3495
 Frc consts  --      1.0806                 1.1190                 0.7415
 IR Inten    --     29.0547                 6.4894                 7.6120

                     22                     23                     24
                      A                      A                      A
 Frequencies --    989.0448              1012.5491              1067.3699
 Red. masses --      1.7846                 2.1153                 1.3823
 Frc consts  --      1.0286                 1.2778                 0.9279
 IR Inten    --      1.1050                 2.0286                 8.5445

                     25                     26                     27
                      A                      A                      A
 Frequencies --   1090.8499              1098.1919              1113.1834
 Red. masses --      1.6649                 1.8963                 1.6952
 Frc consts  --      1.1673                 1.3475                 1.2377
 IR Inten    --      7.3106                30.6043                12.0772

                     28                     29                     30
                      A                      A                      A
 Frequencies --   1189.8875              1192.8971              1256.8449
 Red. masses --      1.7977                 2.0979                 2.5670
 Frc consts  --      1.4996                 1.7589                 2.3891
 IR Inten    --      2.7087                25.4350                27.0367

                     31                     32                     33
                      A                      A                      A
 Frequencies --   1284.7390              1322.2229              1399.0675
 Red. masses --      1.9650                 2.6270                 1.2913
 Frc consts  --      1.9110                 2.7059                 1.4892
 IR Inten    --     90.3600                 9.0586                 0.3586

                     34                     35                     36
                      A                      A                      A
 Frequencies --   1401.3118              1418.9935              1464.2819
 Red. masses --      1.3306                 1.3781                 2.1384
 Frc consts  --      1.5394                 1.6349                 2.7013
 IR Inten    --      8.4108                 2.8875                11.7316

                     37                     38                     39
                      A                      A                      A
 Frequencies --   1481.8602              1485.4732              1488.3105
 Red. masses --      1.2285                 1.1682                 1.2532
 Frc consts  --      1.5894                 1.5187                 1.6355
 IR Inten    --      5.7918                 9.6561                 7.3213

                     40                     41                     42
                      A                      A                      A
 Frequencies --   1497.8072              1508.0761              3021.5709
 Red. masses --      1.1061                 1.8220                 1.0364
 Frc consts  --      1.4621                 2.4415                 5.5748
 IR Inten    --      1.5415                 4.7824                42.6737

                     43                     44                     45
                      A                      A                      A
 Frequencies --   3033.6620              3077.2613              3097.9154
 Red. masses --      1.0377                 1.1009                 1.0969
 Frc consts  --      5.6266                 6.1421                 6.2025
 IR Inten    --     23.3149                23.8566                13.5965

                     46                     47                     48
                      A                      A                      A
 Frequencies --   3103.5508              3125.2889              3127.9556
 Red. masses --      1.0990                 1.1018                 1.0542
 Frc consts  --      6.2369                 6.3409                 6.0772
 IR Inten    --     14.4696                10.2550                16.6010

                     49                     50                     51
                      A                      A                      A
 Frequencies --   3172.7736              3224.4299              3785.1121
 Red. masses --      1.0941                 1.1152                 1.0663
 Frc consts  --      6.4894                 6.8312                 9.0011
 IR Inten    --     17.9111                 3.6996                22.0109

 - Thermochemistry -
 -------------------
 Temperature   298.150 Kelvin.  Pressure   1.00000 Atm.
 Atom     1 has atomic number  6 and mass  12.00000

 Molecular mass:   126.06808 amu.
 Principal axes and moments of inertia in atomic units:
                           1         2         3
     Eigenvalues --   749.571251099.462521373.77037
           X            0.99830   0.05739  -0.00998
           Y           -0.05672   0.99669   0.05831
           Z            0.01329  -0.05765   0.99825
 This molecule is an asymmetric top.
 Rotational symmetry number  1.
 Warning -- assumption of classical behavior for rotation
           may cause significant error
 Rotational temperatures (Kelvin)      0.11555     0.07878     0.06305
 Rotational constants (GHZ):           2.40770     1.64148     1.31371
 Zero-point vibrational energy     409822.8 (Joules/Mol)
                                   97.95001 (Kcal/Mol)
 Warning -- explicit consideration of  13 degrees of freedom as
           vibrations may cause significant error
 Vibrational temperatures:    212.84   234.34   262.60   271.30   309.27
          (Kelvin)            416.97   462.92   506.52   605.43   634.85
                              743.37   778.78   812.59   907.41  1089.74
                             1123.35  1147.27  1241.93  1267.55  1385.82
                             1389.44  1423.01  1456.83  1535.71  1569.49
                             1580.05  1601.62  1711.98  1716.31  1808.32
                             1848.45  1902.38  2012.94  2016.17  2041.61
                             2106.77  2132.06  2137.26  2141.34  2155.01
                             2169.78  4347.36  4364.76  4427.49  4457.20
                             4465.31  4496.59  4500.42  4564.91  4639.23
                             5445.93

 Zero-point correction=                           0.156093 (Hartree/Particle)
 Thermal correction to Energy=                    0.165137
 Thermal correction to Enthalpy=                  0.166081
 Thermal correction to Gibbs Free Energy=         0.123140
 Sum of electronic and zero-point Energies=           -422.955070
 Sum of electronic and thermal Energies=              -422.946027
 Sum of electronic and thermal Enthalpies=            -422.945083
 Sum of electronic and thermal Free Energies=         -422.988023

                     E (Thermal)             CV                S
                      KCal/Mol        Cal/Mol-Kelvin    Cal/Mol-Kelvin
 Total                  103.625             34.982             90.376
 Electronic               0.000              0.000              0.000
 Translational            0.889              2.981             40.409
 Rotational               0.889              2.981             28.517
 Vibrational            101.847             29.021             21.450
 Vibration     1          0.617              1.905              2.699
 Vibration     2          0.623              1.888              2.516
 Vibration     3          0.630              1.864              2.303
 Vibration     4          0.633              1.856              2.242
 Vibration     5          0.645              1.818              2.001
 Vibration     6          0.686              1.693              1.475
 Vibration     7          0.707              1.632              1.301
 Vibration     8          0.729              1.571              1.157
 Vibration     9          0.783              1.425              0.889
 Vibration    10          0.801              1.380              0.823
 Vibration    11          0.872              1.213              0.618
 Vibration    12          0.896              1.159              0.563
 Vibration    13          0.921              1.107              0.514

 Normal termination of Gaussian 09 at Mon Jan 27 18:25:01 2020.
