 Gaussian 09, Revision D.01,
 Gaussian 09:  ES64L-G09RevD.01 24-Apr-2013

 -----------------------------
 # b3lyp 6-31G(2df,p) opt Freq
 -----------------------------

 -----
 titel
 -----
 Symbolic Z-matrix:
 Charge =  0 Multiplicity = 1

 SCF Done:  E(RB3LYP) =  -423.173325508     A.U. after   14 cycles
 Optimization completed.
    -- Stationary point found.
 Normal termination of Gaussian 09 at Mon Jan 27 22:54:53 2020.

 ----------------------------------------------------------------------
 #N Geom=AllCheck Guess=TCheck SCRF=Check GenChk RB3LYP/6-31G(2df,p) Fr
 eq
 ----------------------------------------------------------------------

 Structure from the checkpoint file:  "/scratch/puck/g09_f83f9d8d-1677-4e84-a8c0-379f7369431d/Gau-183265.chk"
 -----
 titel
 -----
 Charge =  0 Multiplicity = 1

                         Standard orientation:
 ---------------------------------------------------------------------
 Center     Atomic      Atomic             Coordinates (Angstroms)
 Number     Number       Type             X           Y           Z
 ---------------------------------------------------------------------
      1          6           0       -2.260701   -1.147144    0.053493
      2          6           0       -1.201072   -0.225045   -0.571035
      3          6           0       -1.466415    1.242668   -0.295993
      4          6           0       -0.515061    1.814524    0.449478
      5          6           0        0.602652    0.875023    0.727992
      6          6           0        1.333433    0.387202   -0.526661
      7          8           0        2.569807   -0.256831   -0.372823
      8          6           0        0.198520   -0.427357    0.020769
      9          8           0        0.488077   -1.689994    0.515702
     10          1           0       -2.017593   -2.196211   -0.129954
     11          1           0       -2.319527   -0.995888    1.135333
     12          1           0       -3.246049   -0.936851   -0.374510
     13          1           0       -1.175684   -0.416073   -1.652823
     14          1           0       -2.358861    1.738799   -0.661025
     15          1           0       -0.516663    2.846838    0.782059
     16          1           0        1.149598    0.879517    1.665490
     17          1           0        1.219001    0.961163   -1.446768
     18          1           0        3.210095    0.375739   -0.031577
     19          1           0        1.444478   -1.801665    0.422483
 ---------------------------------------------------------------------

 SCF Done:  E(RB3LYP) =  -423.173325508     A.U. after    1 cycles

 The electronic state is 1-A.
 Alpha  occ. eigenvalues --  -19.16137 -19.13444 -10.23544 -10.23300 -10.18820
 Alpha  occ. eigenvalues --  -10.18429 -10.18154 -10.17623 -10.16577  -1.05131
 Alpha  occ. eigenvalues --   -1.01546  -0.87048  -0.77027  -0.72671  -0.64292
 Alpha  occ. eigenvalues --   -0.61478  -0.55935  -0.54507  -0.52293  -0.50473
 Alpha  occ. eigenvalues --   -0.48443  -0.42114  -0.41602  -0.41046  -0.38733
 Alpha  occ. eigenvalues --   -0.37290  -0.36353  -0.35547  -0.34915  -0.32853
 Alpha  occ. eigenvalues --   -0.31099  -0.29171  -0.23987  -0.21707
 Alpha virt. eigenvalues --    0.01809   0.06328   0.11009   0.11988   0.12983
 Alpha virt. eigenvalues --    0.14356   0.15503   0.15917   0.16848   0.17646
 Alpha virt. eigenvalues --    0.18454   0.19504   0.20119   0.21412   0.23969

 Mulliken charges:
               1
     1  C   -0.390088
     2  C   -0.103923
     3  C   -0.093053
     4  C   -0.081296
     5  C   -0.231526
     6  C    0.002455
     7  O   -0.439644
     8  C    0.427943
     9  O   -0.484958
    10  H    0.130218
    11  H    0.121866
    12  H    0.105119
    13  H    0.083369
    14  H    0.093606
    15  H    0.094367
    16  H    0.086932
    17  H    0.090840
    18  H    0.295694
    19  H    0.292080
 Sum of Mulliken charges =   0.00000

 Dipole moment (field-independent basis, Debye):
    X=              1.1810    Y=              1.8041    Z=             -0.1312  Tot=              2.1602
 Quadrupole moment (field-independent basis, Debye-Ang):
   XX=            -46.7696   YY=            -54.0022   ZZ=            -53.5475
   XY=              1.7100   XZ=              3.2780   YZ=              1.0355

  Exact polarizability:  90.113   1.885  77.823   6.196   3.534  61.873
 Approx polarizability: 126.956   4.401 115.112  12.757   8.450 100.488

                      1                      2                      3
                      A                      A                      A
 Frequencies --    124.3769               189.6866               221.4493
 Red. masses --      3.5295                 2.3170                 1.2479
 Frc consts  --      0.0322                 0.0491                 0.0361
 IR Inten    --      2.8467                 0.9808                 0.4277

                      4                      5                      6
                      A                      A                      A
 Frequencies --    259.0119               273.9122               305.4595
 Red. masses --      2.8166                 1.7344                 2.2042
 Frc consts  --      0.1113                 0.0767                 0.1212
 IR Inten    --     19.1793                17.2030                33.1638

                      7                      8                      9
                      A                      A                      A
 Frequencies --    320.7285               401.8712               419.8446
 Red. masses --      3.1931                 2.8759                 3.1192
 Frc consts  --      0.1935                 0.2737                 0.3239
 IR Inten    --      0.5609                 5.8799                10.9118

                     10                     11                     12
                      A                      A                      A
 Frequencies --    431.7016               514.5302               566.7727
 Red. masses --      1.1716                 4.0782                 3.5245
 Frc consts  --      0.1286                 0.6361                 0.6671
 IR Inten    --     86.4232                20.5137                 3.8167

                     13                     14                     15
                      A                      A                      A
 Frequencies --    701.3345               707.1231               749.6927
 Red. masses --      4.1905                 2.5280                 3.9272
 Frc consts  --      1.2144                 0.7448                 1.3005
 IR Inten    --      5.1084                 8.8617                 5.5717

                     16                     17                     18
                      A                      A                      A
 Frequencies --    777.5830               850.9630               909.5191
 Red. masses --      1.4761                 2.9052                 2.5551
 Frc consts  --      0.5258                 1.2395                 1.2453
 IR Inten    --     27.8653                11.5809                18.8913

                     19                     20                     21
                      A                      A                      A
 Frequencies --    948.7355               959.7048               977.5047
 Red. masses --      1.7475                 1.5562                 1.9679
 Frc consts  --      0.9267                 0.8445                 1.1078
 IR Inten    --      5.3547                 7.3025                 4.9681

                     22                     23                     24
                      A                      A                      A
 Frequencies --   1010.6958              1038.3004              1056.3961
 Red. masses --      1.7283                 1.9685                 1.3871
 Frc consts  --      1.0402                 1.2503                 0.9120
 IR Inten    --     25.2489                 1.2493                 0.4394

                     25                     26                     27
                      A                      A                      A
 Frequencies --   1087.6218              1101.0419              1135.6269
 Red. masses --      1.5023                 2.2466                 3.1606
 Frc consts  --      1.0471                 1.6047                 2.4015
 IR Inten    --     15.1117                19.1783                60.9501

                     28                     29                     30
                      A                      A                      A
 Frequencies --   1142.9812              1196.3581              1241.5060
 Red. masses --      1.3140                 1.7381                 1.9368
 Frc consts  --      1.0114                 1.4657                 1.7589
 IR Inten    --      3.8531                27.7729                12.2963

                     31                     32                     33
                      A                      A                      A
 Frequencies --   1267.6547              1283.2070              1322.4333
 Red. masses --      1.3196                 1.5121                 1.4778
 Frc consts  --      1.2494                 1.4669                 1.5227
 IR Inten    --    100.6992                 2.4063                74.7044

                     34                     35                     36
                      A                      A                      A
 Frequencies --   1332.6175              1364.8974              1399.7176
 Red. masses --      1.5177                 1.7462                 1.2953
 Frc consts  --      1.5880                 1.9167                 1.4952
 IR Inten    --     10.9988                 5.9383                 3.7197

                     37                     38                     39
                      A                      A                      A
 Frequencies --   1417.4195              1441.4791              1490.3368
 Red. masses --      1.8465                 2.2619                 1.0469
 Frc consts  --      2.1857                 2.7691                 1.3700
 IR Inten    --      8.2866                53.4854                 4.1822

                     40                     41                     42
                      A                      A                      A
 Frequencies --   1499.5742              1660.1722              3008.5037
 Red. masses --      1.0609                 6.4008                 1.0824
 Frc consts  --      1.4055                10.3942                 5.7720
 IR Inten    --      3.8522                 2.2100                23.1547

                     43                     44                     45
                      A                      A                      A
 Frequencies --   3041.2382              3094.0708              3110.1684
 Red. masses --      1.0352                 1.0887                 1.1016
 Frc consts  --      5.6412                 6.1406                 6.2782
 IR Inten    --     27.0346                26.2341                24.6868

                     46                     47                     48
                      A                      A                      A
 Frequencies --   3128.2108              3163.0221              3180.8141
 Red. masses --      1.1014                 1.0892                 1.0856
 Frc consts  --      6.3504                 6.4205                 6.4713
 IR Inten    --     17.1583                13.3454                10.0350

                     49                     50                     51
                      A                      A                      A
 Frequencies --   3205.4788              3744.4547              3811.8300
 Red. masses --      1.1031                 1.0648                 1.0666
 Frc consts  --      6.6781                 8.7964                 9.1307
 IR Inten    --     21.9404                69.0339                35.2688

 - Thermochemistry -
 -------------------
 Temperature   298.150 Kelvin.  Pressure   1.00000 Atm.
 Atom     1 has atomic number  6 and mass  12.00000

 Molecular mass:   126.06808 amu.
 Principal axes and moments of inertia in atomic units:
                           1         2         3
     Eigenvalues --   683.162701142.644111583.57145
           X            0.99906   0.04205   0.01039
           Y           -0.04210   0.99910   0.00500
           Z           -0.01017  -0.00543   0.99993
 This molecule is an asymmetric top.
 Rotational symmetry number  1.
 Warning -- assumption of classical behavior for rotation
           may cause significant error
 Rotational temperatures (Kelvin)      0.12678     0.07580     0.05470
 Rotational constants (GHZ):           2.64174     1.57944     1.13967
 Zero-point vibrational energy     416236.7 (Joules/Mol)
                                   99.48295 (Kcal/Mol)
 Warning -- explicit consideration of  12 degrees of freedom as
           vibrations may cause significant error
 Vibrational temperatures:    178.95   272.92   318.62   372.66   394.10
          (Kelvin)            439.49   461.46   578.20   604.06   621.12
                              740.29   815.46  1009.06  1017.39  1078.64
                             1118.77  1224.34  1308.59  1365.02  1380.80
                             1406.41  1454.16  1493.88  1519.92  1564.84
                             1584.15  1633.91  1644.49  1721.29  1786.25
                             1823.87  1846.25  1902.68  1917.34  1963.78
                             2013.88  2039.35  2073.96  2144.26  2157.55
                             2388.61  4328.56  4375.66  4451.67  4474.83
                             4500.79  4550.88  4576.48  4611.96  5387.43
                             5484.37

 Zero-point correction=                           0.158536 (Hartree/Particle)
 Thermal correction to Energy=                    0.167124
 Thermal correction to Enthalpy=                  0.168068
 Thermal correction to Gibbs Free Energy=         0.126035
 Sum of electronic and zero-point Energies=           -423.014789
 Sum of electronic and thermal Energies=              -423.006202
 Sum of electronic and thermal Enthalpies=            -423.005258
 Sum of electronic and thermal Free Energies=         -423.047291

                     E (Thermal)             CV                S
                      KCal/Mol        Cal/Mol-Kelvin    Cal/Mol-Kelvin
 Total                  104.872             34.001             88.467
 Electronic               0.000              0.000              0.000
 Translational            0.889              2.981             40.409
 Rotational               0.889              2.981             28.604
 Vibrational            103.094             28.039             19.454
 Vibration     1          0.610              1.929              3.031
 Vibration     2          0.633              1.854              2.231
 Vibration     3          0.648              1.808              1.947
 Vibration     4          0.668              1.748              1.668
 Vibration     5          0.676              1.721              1.571
 Vibration     6          0.696              1.663              1.387
 Vibration     7          0.706              1.634              1.306
 Vibration     8          0.767              1.466              0.956
 Vibration     9          0.783              1.427              0.892
 Vibration    10          0.793              1.401              0.853
 Vibration    11          0.870              1.218              0.623
 Vibration    12          0.923              1.103              0.510

 Optimization completed.
    -- Stationary point found.
 Normal termination of Gaussian 09 at Mon Jan 27 23:38:41 2020.
