 Gaussian 09, Revision D.01,
 Gaussian 09:  ES64L-G09RevD.01 24-Apr-2013

 -----------------------------
 # b3lyp 6-31G(2df,p) opt Freq
 -----------------------------

 -----
 titel
 -----
 Symbolic Z-matrix:
 Charge =  0 Multiplicity = 1

 SCF Done:  E(RB3LYP) =  -423.164254063     A.U. after   13 cycles
 Optimization completed.
    -- Stationary point found.
 Normal termination of Gaussian 09 at Mon Jan 27 23:05:07 2020.

 ----------------------------------------------------------------------
 #N Geom=AllCheck Guess=TCheck SCRF=Check GenChk RB3LYP/6-31G(2df,p) Fr
 eq
 ----------------------------------------------------------------------

 Structure from the checkpoint file:  "/scratch/puck/g09_94bf8b97-d3d5-4c42-8196-acd5d3da0e7f/Gau-48926.chk"
 -----
 titel
 -----
 Charge =  0 Multiplicity = 1

                         Standard orientation:
 ---------------------------------------------------------------------
 Center     Atomic      Atomic             Coordinates (Angstroms)
 Number     Number       Type             X           Y           Z
 ---------------------------------------------------------------------
      1          8           0        1.820625   -1.281178   -0.390720
      2          6           0        1.451950    0.063854   -0.238045
      3          6           0        0.715868    0.572245    1.043955
      4          6           0        0.128697    1.685269    0.129844
      5          6           0        0.270133    0.687242   -1.051584
      6          6           0       -0.887065   -0.305955   -1.029947
      7          8           0       -2.074253    0.078039   -0.329246
      8          6           0       -1.214751   -0.884965    0.289857
      9          6           0       -0.373422   -0.426166    1.475092
     10          1           0        1.025068   -1.821931   -0.357457
     11          1           0        2.365420    0.641637   -0.399245
     12          1           0        1.330719    0.870520    1.896196
     13          1           0       -0.875546    2.044336    0.348362
     14          1           0        0.816049    2.527286    0.022307
     15          1           0        0.464782    1.072302   -2.054368
     16          1           0       -1.070823   -0.879734   -1.936797
     17          1           0       -1.655581   -1.879667    0.356463
     18          1           0       -1.018870    0.010522    2.246248
     19          1           0        0.099340   -1.309301    1.922985
 ---------------------------------------------------------------------

 SCF Done:  E(RB3LYP) =  -423.164254063     A.U. after    1 cycles

 The electronic state is 1-A.
 Alpha  occ. eigenvalues --  -19.15351 -19.14063 -10.24141 -10.24077 -10.23324
 Alpha  occ. eigenvalues --  -10.19278 -10.19127 -10.18966 -10.18179  -1.07524
 Alpha  occ. eigenvalues --   -1.02446  -0.85754  -0.75515  -0.70102  -0.64968
 Alpha  occ. eigenvalues --   -0.61401  -0.60088  -0.55016  -0.52907  -0.48208
 Alpha  occ. eigenvalues --   -0.46790  -0.44643  -0.42996  -0.41819  -0.39781
 Alpha  occ. eigenvalues --   -0.39169  -0.38030  -0.37187  -0.33003  -0.31458
 Alpha  occ. eigenvalues --   -0.29988  -0.29356  -0.26959  -0.25424
 Alpha virt. eigenvalues --    0.06826   0.08051   0.08388   0.11785   0.12854
 Alpha virt. eigenvalues --    0.14645   0.14927   0.15740   0.16455   0.16834
 Alpha virt. eigenvalues --    0.17407   0.18797   0.19308   0.19545   0.23476

 Mulliken charges:
               1
     1  O   -0.441924
     2  C    0.160674
     3  C   -0.075005
     4  C   -0.233534
     5  C   -0.109478
     6  C    0.032755
     7  O   -0.250482
     8  C    0.025218
     9  C   -0.253832
    10  H    0.285793
    11  H    0.092168
    12  H    0.064908
    13  H    0.122037
    14  H    0.098619
    15  H    0.064374
    16  H    0.097246
    17  H    0.096139
    18  H    0.116951
    19  H    0.107373
 Sum of Mulliken charges =   0.00000

 Dipole moment (field-independent basis, Debye):
    X=              0.1022    Y=             -0.3343    Z=              0.3487  Tot=              0.4937
 Quadrupole moment (field-independent basis, Debye-Ang):
   XX=            -61.3701   YY=            -50.6406   ZZ=            -50.8980
   XY=              5.2261   XZ=              0.0018   YZ=             -0.3612

  Exact polarizability:  71.587   4.076  72.828  -0.533  -1.708  73.509
 Approx polarizability: 108.526  -0.195 108.482  -1.680  -3.124 109.265

                      1                      2                      3
                      A                      A                      A
 Frequencies --    183.8887               215.0499               310.1432
 Red. masses --      4.7823                 3.5320                 2.1292
 Frc consts  --      0.0953                 0.0962                 0.1207
 IR Inten    --      4.8516                 7.2149                10.5537

                      4                      5                      6
                      A                      A                      A
 Frequencies --    331.8694               365.6451               412.5868
 Red. masses --      1.9986                 1.9604                 2.0029
 Frc consts  --      0.1297                 0.1544                 0.2009
 IR Inten    --     21.4890                33.9170                 9.4137

                      7                      8                      9
                      A                      A                      A
 Frequencies --    509.0135               558.9990               587.1461
 Red. masses --      3.2829                 4.2012                 4.2510
 Frc consts  --      0.5011                 0.7735                 0.8634
 IR Inten    --      6.2222                 0.3862                 2.0528

                     10                     11                     12
                      A                      A                      A
 Frequencies --    630.6650               768.4854               773.6906
 Red. masses --      4.8825                 3.2604                 2.2539
 Frc consts  --      1.1442                 1.1345                 0.7949
 IR Inten    --      4.9585                 1.7615                 5.9955

                     13                     14                     15
                      A                      A                      A
 Frequencies --    802.2591               852.8190               873.1718
 Red. masses --      2.8800                 2.6868                 3.0064
 Frc consts  --      1.0921                 1.1513                 1.3505
 IR Inten    --     20.3293                10.4393                 1.3067

                     16                     17                     18
                      A                      A                      A
 Frequencies --    884.4756               927.3141               950.2264
 Red. masses --      2.9099                 2.1153                 3.2177
 Frc consts  --      1.3412                 1.0717                 1.7118
 IR Inten    --      7.4527                 6.4099                15.6138

                     19                     20                     21
                      A                      A                      A
 Frequencies --    977.0018              1016.9004              1066.1576
 Red. masses --      1.7599                 2.2116                 1.7837
 Frc consts  --      0.9898                 1.3474                 1.1946
 IR Inten    --      1.3464                11.3460                 0.7281

                     22                     23                     24
                      A                      A                      A
 Frequencies --   1068.3554              1075.7499              1121.3147
 Red. masses --      1.7390                 1.5197                 1.2454
 Frc consts  --      1.1694                 1.0362                 0.9226
 IR Inten    --     12.2120                 7.1836                14.9761

                     25                     26                     27
                      A                      A                      A
 Frequencies --   1129.8675              1142.1201              1152.1533
 Red. masses --      1.7466                 1.6492                 1.6372
 Frc consts  --      1.3137                 1.2675                 1.2805
 IR Inten    --      5.8812                93.6899                30.7503

                     28                     29                     30
                      A                      A                      A
 Frequencies --   1218.7363              1219.8572              1256.0871
 Red. masses --      1.4759                 1.4278                 1.4820
 Frc consts  --      1.2916                 1.2518                 1.3777
 IR Inten    --      1.7273                 6.9251                 2.5768

                     31                     32                     33
                      A                      A                      A
 Frequencies --   1264.7336              1276.1554              1299.4940
 Red. masses --      1.4688                 1.3693                 1.5143
 Frc consts  --      1.3842                 1.3139                 1.5066
 IR Inten    --      3.4318                11.6494                 0.5059

                     34                     35                     36
                      A                      A                      A
 Frequencies --   1322.9871              1345.5092              1365.2707
 Red. masses --      1.5017                 1.6430                 1.4919
 Frc consts  --      1.5486                 1.7525                 1.6384
 IR Inten    --      2.8065                 4.3738                 3.5005

                     37                     38                     39
                      A                      A                      A
 Frequencies --   1386.0336              1437.8544              1445.2406
 Red. masses --      1.4353                 1.1998                 2.3430
 Frc consts  --      1.6246                 1.4615                 2.8834
 IR Inten    --      1.0292                55.1541                12.5124

                     40                     41                     42
                      A                      A                      A
 Frequencies --   1473.1503              1493.6667              3027.9544
 Red. masses --      1.1429                 1.1607                 1.0602
 Frc consts  --      1.4614                 1.5257                 5.7271
 IR Inten    --      4.3027                13.7463                22.4214

                     43                     44                     45
                      A                      A                      A
 Frequencies --   3066.2310              3073.5449              3078.1076
 Red. masses --      1.1022                 1.0763                 1.0768
 Frc consts  --      6.1054                 5.9904                 6.0112
 IR Inten    --     15.2954                14.7906                13.0367

                     46                     47                     48
                      A                      A                      A
 Frequencies --   3082.9327              3094.5468              3105.7744
 Red. masses --      1.0863                 1.0841                 1.0872
 Frc consts  --      6.0829                 6.1166                 6.1789
 IR Inten    --     53.8399                62.8250                33.6169

                     49                     50                     51
                      A                      A                      A
 Frequencies --   3126.5632              3152.6024              3817.6969
 Red. masses --      1.0915                 1.1043                 1.0652
 Frc consts  --      6.2864                 6.4668                 9.1468
 IR Inten    --     37.8925                 9.6924                13.8354

 - Thermochemistry -
 -------------------
 Temperature   298.150 Kelvin.  Pressure   1.00000 Atm.
 Atom     1 has atomic number  8 and mass  15.99491

 Molecular mass:   126.06808 amu.
 Principal axes and moments of inertia in atomic units:
                           1         2         3
     Eigenvalues --   703.781691038.377931083.85989
           X            0.99829   0.05771  -0.00921
           Y           -0.05820   0.99607  -0.06678
           Z            0.00532   0.06720   0.99773
 This molecule is an asymmetric top.
 Rotational symmetry number  1.
 Warning -- assumption of classical behavior for rotation
           may cause significant error
 Rotational temperatures (Kelvin)      0.12307     0.08341     0.07991
 Rotational constants (GHZ):           2.56435     1.73804     1.66511
 Zero-point vibrational energy     425378.9 (Joules/Mol)
                                  101.66800 (Kcal/Mol)
 Warning -- explicit consideration of   9 degrees of freedom as
           vibrations may cause significant error
 Vibrational temperatures:    264.57   309.41   446.23   477.49   526.08
          (Kelvin)            593.62   732.36   804.27   844.77   907.39
                             1105.68  1113.17  1154.27  1227.01  1256.30
                             1272.56  1334.20  1367.16  1405.69  1463.09
                             1533.96  1537.12  1547.76  1613.32  1625.63
                             1643.25  1657.69  1753.49  1755.10  1807.23
                             1819.67  1836.10  1869.68  1903.48  1935.89
                             1964.32  1994.19  2068.75  2079.38  2119.53
                             2149.05  4356.55  4411.62  4422.14  4428.70
                             4435.65  4452.36  4468.51  4498.42  4535.89
                             5492.81

 Zero-point correction=                           0.162018 (Hartree/Particle)
 Thermal correction to Energy=                    0.169030
 Thermal correction to Enthalpy=                  0.169975
 Thermal correction to Gibbs Free Energy=         0.131080
 Sum of electronic and zero-point Energies=           -423.002236
 Sum of electronic and thermal Energies=              -422.995224
 Sum of electronic and thermal Enthalpies=            -422.994279
 Sum of electronic and thermal Free Energies=         -423.033174

                     E (Thermal)             CV                S
                      KCal/Mol        Cal/Mol-Kelvin    Cal/Mol-Kelvin
 Total                  106.068             29.395             81.861
 Electronic               0.000              0.000              0.000
 Translational            0.889              2.981             40.409
 Rotational               0.889              2.981             28.162
 Vibrational            104.291             23.433             13.290
 Vibration     1          0.631              1.862              2.289
 Vibration     2          0.645              1.818              2.000
 Vibration     3          0.699              1.654              1.362
 Vibration     4          0.714              1.612              1.251
 Vibration     5          0.739              1.543              1.098
 Vibration     6          0.776              1.443              0.918
 Vibration     7          0.864              1.230              0.636
 Vibration     8          0.915              1.120              0.526
 Vibration     9          0.944              1.059              0.472

 Optimization completed.
    -- Stationary point found.
 Normal termination of Gaussian 09 at Mon Jan 27 23:59:39 2020.
