 Gaussian 09, Revision D.01,
 Gaussian 09:  ES64L-G09RevD.01 24-Apr-2013

 -----------------------------
 # b3lyp 6-31G(2df,p) opt Freq
 -----------------------------

 -----
 titel
 -----
 Symbolic Z-matrix:
 Charge =  0 Multiplicity = 1

 SCF Done:  E(RB3LYP) =  -423.234252793     A.U. after   14 cycles
 Optimization completed.
    -- Stationary point found.
 Normal termination of Gaussian 09 at Tue Jan 28 04:00:37 2020.

 ----------------------------------------------------------------------
 #N Geom=AllCheck Guess=TCheck SCRF=Check GenChk RB3LYP/6-31G(2df,p) Fr
 eq
 ----------------------------------------------------------------------

 Structure from the checkpoint file:  "/scratch/puck/g09_92a2e57d-304d-4fdd-bb9b-4989d3c87d32/Gau-175314.chk"
 -----
 titel
 -----
 Charge =  0 Multiplicity = 1

                         Standard orientation:
 ---------------------------------------------------------------------
 Center     Atomic      Atomic             Coordinates (Angstroms)
 Number     Number       Type             X           Y           Z
 ---------------------------------------------------------------------
      1          6           0       -1.841655    0.178758    1.420703
      2          6           0       -1.597992    0.058579   -0.096807
      3          6           0       -1.249511   -1.368764   -0.557174
      4          6           0        0.283662   -1.490413   -0.388927
      5          6           0        0.828228   -0.092407   -0.697043
      6          6           0        2.025133    0.355028    0.121560
      7          8           0        2.574571   -0.327879    0.946698
      8          6           0       -0.360204    0.879151   -0.471209
      9          8           0       -0.294053    2.076956   -0.562793
     10          1           0       -1.001212   -0.220688    1.998126
     11          1           0       -1.980750    1.225199    1.704924
     12          1           0       -2.737961   -0.381184    1.703452
     13          1           0       -2.461889    0.475127   -0.622955
     14          1           0       -1.790043   -2.134495    0.005710
     15          1           0       -1.519381   -1.492529   -1.612137
     16          1           0        0.551722   -1.753385    0.638580
     17          1           0        0.712203   -2.260563   -1.033628
     18          1           0        1.107905    0.034839   -1.752948
     19          1           0        2.349305    1.395470   -0.086992
 ---------------------------------------------------------------------

 SCF Done:  E(RB3LYP) =  -423.234252793     A.U. after    1 cycles

 The electronic state is 1-A.
 Alpha  occ. eigenvalues --  -19.14799 -19.14369 -10.27979 -10.27874 -10.20843
 Alpha  occ. eigenvalues --  -10.20410 -10.19567 -10.19395 -10.19193  -1.05724
 Alpha  occ. eigenvalues --   -1.05243  -0.85319  -0.77464  -0.71921  -0.66413
 Alpha  occ. eigenvalues --   -0.62327  -0.56546  -0.53522  -0.50408  -0.47885
 Alpha  occ. eigenvalues --   -0.46682  -0.44565  -0.44054  -0.41689  -0.40781
 Alpha  occ. eigenvalues --   -0.39922  -0.38401  -0.38281  -0.36920  -0.34784
 Alpha  occ. eigenvalues --   -0.34225  -0.33554  -0.26660  -0.24477
 Alpha virt. eigenvalues --   -0.03714  -0.01736   0.07586   0.10081   0.11885
 Alpha virt. eigenvalues --    0.13272   0.13907   0.14999   0.15633   0.16128
 Alpha virt. eigenvalues --    0.16917   0.17753   0.19854   0.20541   0.21513

 Mulliken charges:
               1
     1  C   -0.402152
     2  C   -0.085467
     3  C   -0.236971
     4  C   -0.235662
     5  C   -0.192723
     6  C    0.147213
     7  O   -0.239579
     8  C    0.386493
     9  O   -0.323455
    10  H    0.131729
    11  H    0.139343
    12  H    0.124686
    13  H    0.100404
    14  H    0.106378
    15  H    0.103875
    16  H    0.132066
    17  H    0.110685
    18  H    0.126087
    19  H    0.107050
 Sum of Mulliken charges =   0.00000

 Dipole moment (field-independent basis, Debye):
    X=             -1.8334    Y=             -1.5944    Z=             -1.2890  Tot=              2.7504
 Quadrupole moment (field-independent basis, Debye-Ang):
   XX=            -55.7533   YY=            -58.6049   ZZ=            -52.4344
   XY=              3.3320   XZ=             -4.9786   YZ=              2.4378

  Exact polarizability:  83.259   0.859  77.448   0.458  -1.544  66.912
 Approx polarizability: 113.756  -3.586 120.748   6.785  -8.978 104.496

                      1                      2                      3
                      A                      A                      A
 Frequencies --     33.6765               103.5642               146.9553
 Red. masses --      4.4283                 4.7688                 2.3659
 Frc consts  --      0.0030                 0.0301                 0.0301
 IR Inten    --      1.4697                 8.1351                 1.9151

                      4                      5                      6
                      A                      A                      A
 Frequencies --    200.1637               215.4848               246.8159
 Red. masses --      3.5275                 1.6548                 1.4902
 Frc consts  --      0.0833                 0.0453                 0.0535
 IR Inten    --      5.5803                 1.7079                 2.5054

                      7                      8                      9
                      A                      A                      A
 Frequencies --    292.7255               349.7607               481.2383
 Red. masses --      3.7028                 2.1177                 3.4636
 Frc consts  --      0.1869                 0.1526                 0.4726
 IR Inten    --      1.3580                 0.8367                 3.1166

                     10                     11                     12
                      A                      A                      A
 Frequencies --    541.2223               595.7273               634.3867
 Red. masses --      3.6359                 5.4213                 3.0116
 Frc consts  --      0.6275                 1.1336                 0.7141
 IR Inten    --      4.2549                12.8364                 1.9024

                     13                     14                     15
                      A                      A                      A
 Frequencies --    696.4381               767.5705               813.0842
 Red. masses --      3.1476                 3.1167                 2.0338
 Frc consts  --      0.8995                 1.0819                 0.7922
 IR Inten    --     26.3224                 4.9212                 2.3823

                     16                     17                     18
                      A                      A                      A
 Frequencies --    880.2276               899.8165               932.8381
 Red. masses --      2.5027                 1.8714                 1.4098
 Frc consts  --      1.1425                 0.8927                 0.7228
 IR Inten    --      4.5591                17.0433                 3.3011

                     19                     20                     21
                      A                      A                      A
 Frequencies --    964.9488               990.7163              1020.5883
 Red. masses --      2.1361                 1.7033                 1.6185
 Frc consts  --      1.1719                 0.9850                 0.9933
 IR Inten    --     10.2218                 7.8958                39.7577

                     22                     23                     24
                      A                      A                      A
 Frequencies --   1043.5188              1103.8563              1129.1243
 Red. masses --      1.7450                 1.7977                 2.4476
 Frc consts  --      1.1195                 1.2906                 1.8386
 IR Inten    --      1.1680                18.2860                37.6171

                     25                     26                     27
                      A                      A                      A
 Frequencies --   1156.9417              1175.4774              1212.2039
 Red. masses --      2.6138                 1.4968                 1.4529
 Frc consts  --      2.0613                 1.2186                 1.2579
 IR Inten    --     16.1043                20.2581                14.9260

                     28                     29                     30
                      A                      A                      A
 Frequencies --   1214.6263              1287.2191              1300.8920
 Red. masses --      1.7100                 1.4578                 1.4686
 Frc consts  --      1.4863                 1.4231                 1.4643
 IR Inten    --     27.9083                 2.6471                 1.3818

                     31                     32                     33
                      A                      A                      A
 Frequencies --   1327.2156              1342.5733              1348.7167
 Red. masses --      1.4491                 1.3133                 1.5817
 Frc consts  --      1.5039                 1.3948                 1.6951
 IR Inten    --      3.8090                 0.3991                17.5068

                     34                     35                     36
                      A                      A                      A
 Frequencies --   1404.7270              1414.6496              1489.8177
 Red. masses --      1.2063                 1.2031                 1.0639
 Frc consts  --      1.4025                 1.4186                 1.3913
 IR Inten    --      2.7045                 4.9439                 0.8204

                     37                     38                     39
                      A                      A                      A
 Frequencies --   1498.3045              1502.3291              1508.5089
 Red. masses --      1.0557                 1.0640                 1.0872
 Frc consts  --      1.3964                 1.4149                 1.4576
 IR Inten    --      5.4413                 6.8478                 5.2381

                     40                     41                     42
                      A                      A                      A
 Frequencies --   1813.1840              1843.1708              2925.5057
 Red. masses --     10.8213                11.7062                 1.0850
 Frc consts  --     20.9610                23.4314                 5.4713
 IR Inten    --    265.7628                90.1961                76.0646

                     43                     44                     45
                      A                      A                      A
 Frequencies --   3016.8223              3037.8478              3040.8083
 Red. masses --      1.0817                 1.0397                 1.0606
 Frc consts  --      5.8004                 5.6532                 5.7780
 IR Inten    --      7.4022                22.8226                18.8366

                     46                     47                     48
                      A                      A                      A
 Frequencies --   3067.2528              3069.6540              3093.0833
 Red. masses --      1.0675                 1.0789                 1.0978
 Frc consts  --      5.9173                 5.9900                 6.1878
 IR Inten    --     15.8561                 5.3793                22.1204

                     49                     50                     51
                      A                      A                      A
 Frequencies --   3108.4443              3114.2606              3122.1369
 Red. masses --      1.1013                 1.1043                 1.1023
 Frc consts  --      6.2696                 6.3102                 6.3309
 IR Inten    --     28.7546                19.4340                14.1930

 - Thermochemistry -
 -------------------
 Temperature   298.150 Kelvin.  Pressure   1.00000 Atm.
 Atom     1 has atomic number  6 and mass  12.00000

 Molecular mass:   126.06808 amu.
 Principal axes and moments of inertia in atomic units:
                           1         2         3
     Eigenvalues --   802.983581300.895671569.08714
           X            0.99856   0.03702  -0.03882
           Y           -0.03500   0.99806   0.05144
           Z            0.04065  -0.05001   0.99792
 This molecule is an asymmetric top.
 Rotational symmetry number  1.
 Warning -- assumption of classical behavior for rotation
           may cause significant error
 Rotational temperatures (Kelvin)      0.10786     0.06658     0.05520
 Rotational constants (GHZ):           2.24754     1.38731     1.15019
 Zero-point vibrational energy     415826.9 (Joules/Mol)
                                   99.38500 (Kcal/Mol)
 Warning -- explicit consideration of  11 degrees of freedom as
           vibrations may cause significant error
 Vibrational temperatures:     48.45   149.01   211.44   287.99   310.03
          (Kelvin)            355.11   421.17   503.23   692.39   778.70
                              857.12   912.74  1002.02  1104.36  1169.85
                             1266.45  1294.63  1342.14  1388.34  1425.42
                             1468.40  1501.39  1588.20  1624.56  1664.58
                             1691.25  1744.09  1747.57  1852.02  1871.69
                             1909.56  1931.66  1940.50  2021.09  2035.36
                             2143.51  2155.72  2161.51  2170.41  2608.76
                             2651.91  4209.14  4340.53  4370.78  4375.04
                             4413.09  4416.54  4450.25  4472.35  4480.72
                             4492.05

 Zero-point correction=                           0.158380 (Hartree/Particle)
 Thermal correction to Energy=                    0.167363
 Thermal correction to Enthalpy=                  0.168307
 Thermal correction to Gibbs Free Energy=         0.123813
 Sum of electronic and zero-point Energies=           -423.075873
 Sum of electronic and thermal Energies=              -423.066890
 Sum of electronic and thermal Enthalpies=            -423.065945
 Sum of electronic and thermal Free Energies=         -423.110440

                     E (Thermal)             CV                S
                      KCal/Mol        Cal/Mol-Kelvin    Cal/Mol-Kelvin
 Total                  105.022             32.709             93.647
 Electronic               0.000              0.000              0.000
 Translational            0.889              2.981             40.409
 Rotational               0.889              2.981             28.885
 Vibrational            103.245             26.747             24.354
 Vibration     1          0.594              1.983              5.600
 Vibration     2          0.605              1.946              3.386
 Vibration     3          0.617              1.906              2.711
 Vibration     4          0.638              1.840              2.132
 Vibration     5          0.645              1.817              1.997
 Vibration     6          0.661              1.768              1.753
 Vibration     7          0.688              1.687              1.458
 Vibration     8          0.727              1.576              1.167
 Vibration     9          0.838              1.292              0.707
 Vibration    10          0.896              1.159              0.563
 Vibration    11          0.953              1.041              0.457

 Optimization completed.
    -- Stationary point found.
 Normal termination of Gaussian 09 at Tue Jan 28 04:35:03 2020.
