 Gaussian 09, Revision D.01,
 Gaussian 09:  ES64L-G09RevD.01 24-Apr-2013

 -----------------------------
 # b3lyp 6-31G(2df,p) opt Freq
 -----------------------------

 -----
 titel
 -----
 Symbolic Z-matrix:
 Charge =  0 Multiplicity = 1

 SCF Done:  E(RB3LYP) =  -423.177367316     A.U. after   14 cycles
 Optimization completed.
    -- Stationary point found.
 Normal termination of Gaussian 09 at Tue Jan 28 09:16:16 2020.

 ----------------------------------------------------------------------
 #N Geom=AllCheck Guess=TCheck SCRF=Check GenChk RB3LYP/6-31G(2df,p) Fr
 eq
 ----------------------------------------------------------------------

 Structure from the checkpoint file:  "/scratch/puck/g09_f0165579-449f-482c-9219-d83d0b3b93da/Gau-82389.chk"
 -----
 titel
 -----
 Charge =  0 Multiplicity = 1

                         Standard orientation:
 ---------------------------------------------------------------------
 Center     Atomic      Atomic             Coordinates (Angstroms)
 Number     Number       Type             X           Y           Z
 ---------------------------------------------------------------------
      1          6           0       -2.759271   -0.616851    0.121779
      2          6           0       -1.443936   -0.803953   -0.648203
      3          6           0       -0.271861   -0.153429    0.033430
      4          6           0        0.456275   -0.802068    1.228303
      5          6           0        1.285672   -0.428035    0.063801
      6          8           0        2.052372   -1.283888   -0.692324
      7          6           0        1.592154    1.068246    0.075599
      8          6           0        0.058351    1.302824    0.012708
      9          8           0       -0.602302    2.285499   -0.191898
     10          1           0       -2.701580   -1.066159    1.118816
     11          1           0       -2.979338    0.447420    0.243406
     12          1           0       -3.594737   -1.081198   -0.410974
     13          1           0       -1.234438   -1.872977   -0.785212
     14          1           0       -1.548292   -0.378625   -1.653389
     15          1           0        0.547042   -0.298894    2.188824
     16          1           0        0.219535   -1.861622    1.312833
     17          1           0        1.979935   -2.174252   -0.335445
     18          1           0        2.152645    1.466865    0.927068
     19          1           0        2.054364    1.406150   -0.856646
 ---------------------------------------------------------------------

 SCF Done:  E(RB3LYP) =  -423.177367316     A.U. after    1 cycles

 The electronic state is 1-A.
 Alpha  occ. eigenvalues --  -19.16951 -19.12463 -10.26465 -10.26344 -10.21022
 Alpha  occ. eigenvalues --  -10.20243 -10.19281 -10.19242 -10.17524  -1.05775
 Alpha  occ. eigenvalues --   -1.03413  -0.90039  -0.77382  -0.73053  -0.65684
 Alpha  occ. eigenvalues --   -0.61614  -0.60142  -0.52691  -0.50145  -0.48174
 Alpha  occ. eigenvalues --   -0.45734  -0.45228  -0.42021  -0.41124  -0.40609
 Alpha  occ. eigenvalues --   -0.39346  -0.38589  -0.36550  -0.36108  -0.34977
 Alpha  occ. eigenvalues --   -0.34446  -0.30045  -0.24396  -0.23363
 Alpha virt. eigenvalues --   -0.00584   0.05831   0.09669   0.09779   0.10845
 Alpha virt. eigenvalues --    0.12721   0.14200   0.14822   0.15409   0.17320
 Alpha virt. eigenvalues --    0.17859   0.18098   0.19020   0.20263   0.22531

 Mulliken charges:
               1
     1  C   -0.377350
     2  C   -0.295624
     3  C    0.146457
     4  C   -0.399346
     5  C    0.366585
     6  O   -0.450854
     7  C   -0.407666
     8  C    0.383689
     9  O   -0.326892
    10  H    0.112571
    11  H    0.144928
    12  H    0.112060
    13  H    0.091747
    14  H    0.115202
    15  H    0.122108
    16  H    0.114666
    17  H    0.293157
    18  H    0.115393
    19  H    0.139169
 Sum of Mulliken charges =   0.00000

 Dipole moment (field-independent basis, Debye):
    X=              0.8597    Y=             -3.5308    Z=              1.2248  Tot=              3.8348
 Quadrupole moment (field-independent basis, Debye-Ang):
   XX=            -54.4749   YY=            -55.0081   ZZ=            -52.7085
   XY=              2.2444   XZ=              2.1871   YZ=             -0.3911

  Exact polarizability:  85.981  -0.024  81.314   1.716  -2.488  64.647
 Approx polarizability: 119.279 -10.145 126.013   1.709  -5.277  99.477

                      1                      2                      3
                      A                      A                      A
 Frequencies --     61.2077                80.2968               132.8091
 Red. masses --      2.6979                 2.3472                 5.2189
 Frc consts  --      0.0060                 0.0089                 0.0542
 IR Inten    --      0.6514                20.9969                 7.3748

                      4                      5                      6
                      A                      A                      A
 Frequencies --    140.6921               201.5509               251.1157
 Red. masses --      1.4122                 1.4286                 2.8243
 Frc consts  --      0.0165                 0.0342                 0.1049
 IR Inten    --     62.3933                 0.6156                 4.4869

                      7                      8                      9
                      A                      A                      A
 Frequencies --    277.7604               363.2508               411.1677
 Red. masses --      1.6865                 2.3811                 2.7001
 Frc consts  --      0.0767                 0.1851                 0.2689
 IR Inten    --      1.0722                 1.8988                 3.9069

                     10                     11                     12
                      A                      A                      A
 Frequencies --    476.0199               531.3500               575.8489
 Red. masses --      3.1979                 4.3554                 3.0965
 Frc consts  --      0.4269                 0.7245                 0.6050
 IR Inten    --      3.3954                 0.5905                 2.8564

                     13                     14                     15
                      A                      A                      A
 Frequencies --    639.1082               665.9253               726.2041
 Red. masses --      3.3097                 3.5586                 3.8588
 Frc consts  --      0.7965                 0.9298                 1.1990
 IR Inten    --      4.4690                 2.2373                 3.0362

                     16                     17                     18
                      A                      A                      A
 Frequencies --    767.4181               791.5048               856.9695
 Red. masses --      1.7936                 2.2239                 1.9747
 Frc consts  --      0.6224                 0.8209                 0.8544
 IR Inten    --     40.7548                28.2120                 3.9734

                     19                     20                     21
                      A                      A                      A
 Frequencies --    965.1244               982.7049               990.3684
 Red. masses --      1.6885                 1.7510                 1.9366
 Frc consts  --      0.9266                 0.9963                 1.1191
 IR Inten    --      5.0145                20.7959                 4.9332

                     22                     23                     24
                      A                      A                      A
 Frequencies --   1006.3354              1048.1652              1084.1749
 Red. masses --      1.7479                 2.2396                 1.5533
 Frc consts  --      1.0429                 1.4497                 1.0757
 IR Inten    --     14.4144                18.9820                10.6722

                     25                     26                     27
                      A                      A                      A
 Frequencies --   1091.6461              1110.9228              1143.9390
 Red. masses --      1.5251                 1.6209                 1.7449
 Frc consts  --      1.0708                 1.1786                 1.3453
 IR Inten    --     59.9701                15.5099                33.5020

                     28                     29                     30
                      A                      A                      A
 Frequencies --   1189.5848              1210.7696              1299.5828
 Red. masses --      2.3682                 1.5114                 1.3931
 Frc consts  --      1.9745                 1.3054                 1.3863
 IR Inten    --     13.2643                12.4770                12.2827

                     31                     32                     33
                      A                      A                      A
 Frequencies --   1327.5437              1368.7503              1391.0290
 Red. masses --      1.7809                 2.0485                 2.6176
 Frc consts  --      1.8492                 2.2612                 2.9842
 IR Inten    --      7.4281                37.8769               118.9003

                     34                     35                     36
                      A                      A                      A
 Frequencies --   1404.3096              1411.6771              1461.1911
 Red. masses --      1.7658                 1.4412                 1.1392
 Frc consts  --      2.0517                 1.6921                 1.4331
 IR Inten    --     12.9234                 3.3513                 3.7775

                     37                     38                     39
                      A                      A                      A
 Frequencies --   1478.6256              1496.7889              1507.9462
 Red. masses --      1.0805                 1.0461                 1.3995
 Frc consts  --      1.3919                 1.3808                 1.8749
 IR Inten    --      4.5643                 8.8996                26.3121

                     40                     41                     42
                      A                      A                      A
 Frequencies --   1509.6757              1864.6148              3018.6515
 Red. masses --      1.0665                12.5310                 1.0617
 Frc consts  --      1.4322                25.6693                 5.7002
 IR Inten    --      2.5670               297.6690                27.3120

                     43                     44                     45
                      A                      A                      A
 Frequencies --   3037.0287              3050.1051              3057.6520
 Red. masses --      1.0356                 1.0593                 1.0988
 Frc consts  --      5.6281                 5.8060                 6.0525
 IR Inten    --     27.1177                23.3608                11.5497

                     46                     47                     48
                      A                      A                      A
 Frequencies --   3089.8818              3105.1847              3109.1394
 Red. masses --      1.0543                 1.1016                 1.1049
 Frc consts  --      5.9308                 6.2584                 6.2927
 IR Inten    --     17.7793                37.4897                10.9925

                     49                     50                     51
                      A                      A                      A
 Frequencies --   3120.1982              3169.2073              3831.2916
 Red. masses --      1.1021                 1.1156                 1.0662
 Frc consts  --      6.3219                 6.6021                 9.2212
 IR Inten    --     19.7874                11.3433                37.7232

 - Thermochemistry -
 -------------------
 Temperature   298.150 Kelvin.  Pressure   1.00000 Atm.
 Atom     1 has atomic number  6 and mass  12.00000

 Molecular mass:   126.06808 amu.
 Principal axes and moments of inertia in atomic units:
                           1         2         3
     Eigenvalues --   817.516411197.218621694.64024
           X            0.99581   0.09098   0.00887
           Y           -0.09094   0.99584  -0.00525
           Z           -0.00931   0.00443   0.99995
 This molecule is an asymmetric top.
 Rotational symmetry number  1.
 Warning -- assumption of classical behavior for rotation
           may cause significant error
 Rotational temperatures (Kelvin)      0.10595     0.07235     0.05111
 Rotational constants (GHZ):           2.20759     1.50744     1.06497
 Zero-point vibrational energy     412017.9 (Joules/Mol)
                                   98.47464 (Kcal/Mol)
 Warning -- explicit consideration of  12 degrees of freedom as
           vibrations may cause significant error
 Vibrational temperatures:     88.06   115.53   191.08   202.42   289.99
          (Kelvin)            361.30   399.63   522.64   591.58   684.89
                              764.49   828.52   919.53   958.12  1044.84
                             1104.14  1138.80  1232.99  1388.60  1413.89
                             1424.92  1447.89  1508.07  1559.88  1570.63
                             1598.37  1645.87  1711.55  1742.03  1869.81
                             1910.04  1969.32  2001.38  2020.49  2031.09
                             2102.33  2127.41  2153.54  2169.60  2172.08
                             2682.76  4343.16  4369.60  4388.42  4399.27
                             4445.65  4467.66  4473.35  4489.26  4559.78
                             5512.37

 Zero-point correction=                           0.156929 (Hartree/Particle)
 Thermal correction to Energy=                    0.166433
 Thermal correction to Enthalpy=                  0.167377
 Thermal correction to Gibbs Free Energy=         0.122173
 Sum of electronic and zero-point Energies=           -423.020438
 Sum of electronic and thermal Energies=              -423.010934
 Sum of electronic and thermal Enthalpies=            -423.009990
 Sum of electronic and thermal Free Energies=         -423.055194

                     E (Thermal)             CV                S
                      KCal/Mol        Cal/Mol-Kelvin    Cal/Mol-Kelvin
 Total                  104.438             34.693             95.140
 Electronic               0.000              0.000              0.000
 Translational            0.889              2.981             40.409
 Rotational               0.889              2.981             28.896
 Vibrational            102.661             28.731             25.835
 Vibration     1          0.597              1.973              4.418
 Vibration     2          0.600              1.963              3.884
 Vibration     3          0.613              1.921              2.905
 Vibration     4          0.615              1.913              2.794
 Vibration     5          0.638              1.838              2.119
 Vibration     6          0.663              1.761              1.723
 Vibration     7          0.679              1.715              1.547
 Vibration     8          0.737              1.548              1.108
 Vibration     9          0.775              1.446              0.923
 Vibration    10          0.833              1.303              0.721
 Vibration    11          0.886              1.181              0.584
 Vibration    12          0.932              1.083              0.493

 Normal termination of Gaussian 09 at Tue Jan 28 10:09:02 2020.
