 Gaussian 09, Revision D.01,
 Gaussian 09:  ES64L-G09RevD.01 24-Apr-2013

 -----------------------------
 # b3lyp 6-31G(2df,p) opt Freq
 -----------------------------

 -----
 titel
 -----
 Symbolic Z-matrix:
 Charge =  0 Multiplicity = 1

 SCF Done:  E(RB3LYP) =  -423.148984786     A.U. after   14 cycles
 Optimization completed.
    -- Stationary point found.
 Normal termination of Gaussian 09 at Mon Jan 27 16:28:44 2020.

 ----------------------------------------------------------------------
 #N Geom=AllCheck Guess=TCheck SCRF=Check GenChk RB3LYP/6-31G(2df,p) Fr
 eq
 ----------------------------------------------------------------------

 Structure from the checkpoint file:  "/scratch/puck/g09_09250635-c218-4b56-9260-60a05de861ba/Gau-12223.chk"
 -----
 titel
 -----
 Charge =  0 Multiplicity = 1

                         Standard orientation:
 ---------------------------------------------------------------------
 Center     Atomic      Atomic             Coordinates (Angstroms)
 Number     Number       Type             X           Y           Z
 ---------------------------------------------------------------------
      1          6           0        2.358956    0.325338   -1.014063
      2          6           0        1.249869    0.039387   -0.001180
      3          8           0        1.826264   -0.346427    1.256668
      4          6           0        0.313987   -1.144301   -0.417616
      5          6           0       -0.999572   -0.788388    0.288197
      6          8           0       -2.269673   -0.649829   -0.448488
      7          6           0       -2.404860    0.735829   -0.005819
      8          6           0       -0.948461    0.701391    0.378711
      9          6           0        0.253635    1.206674    0.134689
     10          1           0        2.998709    1.145282   -0.666485
     11          1           0        2.987355   -0.560784   -1.142666
     12          1           0        1.947587    0.609010   -1.987921
     13          1           0        2.241260    0.433112    1.640770
     14          1           0        0.153205   -1.119908   -1.499173
     15          1           0        0.746398   -2.107894   -0.138248
     16          1           0       -1.173973   -1.356728    1.208892
     17          1           0       -2.694127    1.414702   -0.814875
     18          1           0       -3.122507    0.819469    0.821043
     19          1           0        0.522034    2.238203   -0.064296
 ---------------------------------------------------------------------

 SCF Done:  E(RB3LYP) =  -423.148984786     A.U. after    1 cycles

 The electronic state is 1-A.
 Alpha  occ. eigenvalues --  -19.13636 -19.13169 -10.24508 -10.24149 -10.22653
 Alpha  occ. eigenvalues --  -10.19184 -10.18380 -10.18039 -10.17733  -1.03387
 Alpha  occ. eigenvalues --   -1.01409  -0.82979  -0.74296  -0.72384  -0.66978
 Alpha  occ. eigenvalues --   -0.64076  -0.56760  -0.53372  -0.50375  -0.49039
 Alpha  occ. eigenvalues --   -0.46282  -0.44117  -0.42676  -0.42370  -0.40141
 Alpha  occ. eigenvalues --   -0.37750  -0.36960  -0.35568  -0.34162  -0.31600
 Alpha  occ. eigenvalues --   -0.31258  -0.27391  -0.25260  -0.24116
 Alpha virt. eigenvalues --   -0.00449   0.07665   0.08448   0.11529   0.12557
 Alpha virt. eigenvalues --    0.13444   0.13674   0.14357   0.16218   0.16965
 Alpha virt. eigenvalues --    0.17504   0.17797   0.19214   0.21824   0.22112

 Mulliken charges:
               1
     1  C   -0.437124
     2  C    0.360463
     3  O   -0.472117
     4  C   -0.273153
     5  C    0.101761
     6  O   -0.308112
     7  C   -0.156646
     8  C    0.195463
     9  C   -0.271950
    10  H    0.104587
    11  H    0.126689
    12  H    0.118163
    13  H    0.272106
    14  H    0.113666
    15  H    0.107902
    16  H    0.090874
    17  H    0.120508
    18  H    0.109507
    19  H    0.097414
 Sum of Mulliken charges =   0.00000

 Dipole moment (field-independent basis, Debye):
    X=              0.9752    Y=              2.1104    Z=              0.0553  Tot=              2.3255
 Quadrupole moment (field-independent basis, Debye-Ang):
   XX=            -53.4258   YY=            -51.5696   ZZ=            -53.5474
   XY=             -0.5786   XZ=             -2.1607   YZ=              0.7593

  Exact polarizability:  97.986   0.730  72.983  -2.500  -1.800  62.797
 Approx polarizability: 136.386   7.624 112.227  -0.460  -2.597  96.806

                      1                      2                      3
                      A                      A                      A
 Frequencies --     95.9392               180.0390               241.6700
 Red. masses --      3.8083                 2.7903                 1.0581
 Frc consts  --      0.0207                 0.0533                 0.0364
 IR Inten    --      0.5774                 7.5809                45.4519

                      4                      5                      6
                      A                      A                      A
 Frequencies --    243.6847               296.5690               301.6878
 Red. masses --      1.1649                 3.6877                 2.3555
 Frc consts  --      0.0408                 0.1911                 0.1263
 IR Inten    --     37.2112                 8.7856                 0.5827

                      7                      8                      9
                      A                      A                      A
 Frequencies --    332.2459               364.6155               450.2845
 Red. masses --      2.8946                 3.5186                 2.0245
 Frc consts  --      0.1883                 0.2756                 0.2418
 IR Inten    --      9.7376                18.4304                 6.0711

                     10                     11                     12
                      A                      A                      A
 Frequencies --    511.1592               579.0083               637.0443
 Red. masses --      2.6799                 3.9041                 3.4388
 Frc consts  --      0.4125                 0.7712                 0.8222
 IR Inten    --      1.9875                 4.3135                11.0965

                     13                     14                     15
                      A                      A                      A
 Frequencies --    760.9500               781.5465               828.6661
 Red. masses --      4.1444                 3.9124                 1.6387
 Frc consts  --      1.4139                 1.4080                 0.6630
 IR Inten    --      4.4075                11.8334                19.9658

                     16                     17                     18
                      A                      A                      A
 Frequencies --    870.1323               892.8390               920.0807
 Red. masses --      3.2778                 2.4763                 2.3170
 Frc consts  --      1.4622                 1.1631                 1.1556
 IR Inten    --     37.5349                 6.7082                10.3153

                     19                     20                     21
                      A                      A                      A
 Frequencies --    927.1102               962.0060               972.6037
 Red. masses --      2.5778                 4.8684                 1.7567
 Frc consts  --      1.3055                 2.6546                 0.9791
 IR Inten    --     34.3964                47.6001                 0.3978

                     22                     23                     24
                      A                      A                      A
 Frequencies --    992.1294              1052.1188              1071.5947
 Red. masses --      2.0856                 1.9273                 1.9979
 Frc consts  --      1.2096                 1.2570                 1.3517
 IR Inten    --      6.6597                27.0727                 6.7033

                     25                     26                     27
                      A                      A                      A
 Frequencies --   1117.1069              1138.2633              1140.8343
 Red. masses --      1.7980                 1.4617                 1.4123
 Frc consts  --      1.3220                 1.1159                 1.0830
 IR Inten    --     74.9042                 1.8808                 8.6659

                     28                     29                     30
                      A                      A                      A
 Frequencies --   1161.5534              1229.1839              1248.4468
 Red. masses --      2.0791                 1.6079                 1.5819
 Frc consts  --      1.6527                 1.4313                 1.4527
 IR Inten    --      7.1461                20.6384                 7.9823

                     31                     32                     33
                      A                      A                      A
 Frequencies --   1259.6221              1307.0236              1331.6893
 Red. masses --      1.8878                 1.4465                 1.6701
 Frc consts  --      1.7648                 1.4559                 1.7450
 IR Inten    --     12.0307                 6.2225                42.7323

                     34                     35                     36
                      A                      A                      A
 Frequencies --   1345.8870              1364.5962              1403.7316
 Red. masses --      1.3461                 1.7829                 1.2649
 Frc consts  --      1.4366                 1.9560                 1.4685
 IR Inten    --     19.8685                15.3581                 5.6459

                     37                     38                     39
                      A                      A                      A
 Frequencies --   1468.5537              1488.7786              1490.6994
 Red. masses --      1.0997                 1.0540                 1.0568
 Frc consts  --      1.3974                 1.3765                 1.3837
 IR Inten    --      3.4224                 3.7377                 2.6808

                     40                     41                     42
                      A                      A                      A
 Frequencies --   1509.6096              1740.2693              3011.9339
 Red. masses --      1.1044                 9.1000                 1.0608
 Frc consts  --      1.4828                16.2377                 5.6698
 IR Inten    --      1.1227                11.5791                75.5035

                     43                     44                     45
                      A                      A                      A
 Frequencies --   3027.1113              3039.5770              3065.4886
 Red. masses --      1.0368                 1.0846                 1.0590
 Frc consts  --      5.5975                 5.9042                 5.8636
 IR Inten    --     19.4792                43.2102                14.1111

                     46                     47                     48
                      A                      A                      A
 Frequencies --   3074.4859              3094.3697              3115.0843
 Red. masses --      1.1034                 1.0988                 1.1024
 Frc consts  --      6.1452                 6.1989                 6.3025
 IR Inten    --     29.6589                26.3361                10.0442

                     49                     50                     51
                      A                      A                      A
 Frequencies --   3124.0971              3192.7808              3809.6474
 Red. masses --      1.1061                 1.0953                 1.0662
 Frc consts  --      6.3604                 6.5784                 9.1168
 IR Inten    --     27.6984                 8.6587                16.9279

 - Thermochemistry -
 -------------------
 Temperature   298.150 Kelvin.  Pressure   1.00000 Atm.
 Atom     1 has atomic number  6 and mass  12.00000

 Molecular mass:   126.06808 amu.
 Principal axes and moments of inertia in atomic units:
                           1         2         3
     Eigenvalues --   498.823781503.065171579.63182
           X            0.99966  -0.00603  -0.02549
           Y            0.00495   0.99909  -0.04226
           Z            0.02572   0.04212   0.99878
 This molecule is an asymmetric top.
 Rotational symmetry number  1.
 Warning -- assumption of classical behavior for rotation
           may cause significant error
 Rotational temperatures (Kelvin)      0.17364     0.05762     0.05483
 Rotational constants (GHZ):           3.61799     1.20071     1.14251
 Zero-point vibrational energy     416098.0 (Joules/Mol)
                                   99.44980 (Kcal/Mol)
 Warning -- explicit consideration of  11 degrees of freedom as
           vibrations may cause significant error
 Vibrational temperatures:    138.03   259.04   347.71   350.61   426.70
          (Kelvin)            434.06   478.03   524.60   647.86   735.44
                              833.06   916.56  1094.84  1124.47  1192.26
                             1251.92  1284.59  1323.79  1333.90  1384.11
                             1399.36  1427.45  1513.76  1541.78  1607.27
                             1637.70  1641.40  1671.21  1768.52  1796.23
                             1812.31  1880.51  1916.00  1936.43  1963.35
                             2019.65  2112.92  2142.02  2144.78  2171.99
                             2503.86  4333.50  4355.33  4373.27  4410.55
                             4423.49  4452.10  4481.91  4494.87  4593.69
                             5481.23

 Zero-point correction=                           0.158483 (Hartree/Particle)
 Thermal correction to Energy=                    0.166841
 Thermal correction to Enthalpy=                  0.167785
 Thermal correction to Gibbs Free Energy=         0.125955
 Sum of electronic and zero-point Energies=           -422.990501
 Sum of electronic and thermal Energies=              -422.982144
 Sum of electronic and thermal Enthalpies=            -422.981200
 Sum of electronic and thermal Free Energies=         -423.023030

                     E (Thermal)             CV                S
                      KCal/Mol        Cal/Mol-Kelvin    Cal/Mol-Kelvin
 Total                  104.694             32.787             88.039
 Electronic               0.000              0.000              0.000
 Translational            0.889              2.981             40.409
 Rotational               0.889              2.981             28.562
 Vibrational            102.917             26.825             19.069
 Vibration     1          0.603              1.952              3.535
 Vibration     2          0.629              1.867              2.328
 Vibration     3          0.658              1.777              1.791
 Vibration     4          0.659              1.773              1.776
 Vibration     5          0.690              1.680              1.436
 Vibration     6          0.694              1.671              1.408
 Vibration     7          0.714              1.611              1.249
 Vibration     8          0.738              1.545              1.102
 Vibration     9          0.809              1.360              0.795
 Vibration    10          0.866              1.225              0.631
 Vibration    11          0.936              1.077              0.487

 Optimization completed.
    -- Stationary point found.
 Normal termination of Gaussian 09 at Mon Jan 27 18:31:38 2020.
