 Gaussian 09, Revision D.01,
 Gaussian 09:  ES64L-G09RevD.01 24-Apr-2013

 -----------------------------
 # b3lyp 6-31G(2df,p) opt Freq
 -----------------------------

 -----
 titel
 -----
 Symbolic Z-matrix:
 Charge =  0 Multiplicity = 1

 SCF Done:  E(RB3LYP) =  -423.174033180     A.U. after   14 cycles
 Optimization completed.
    -- Stationary point found.
 Normal termination of Gaussian 09 at Tue Jan 28 12:40:30 2020.

 ----------------------------------------------------------------------
 #N Geom=AllCheck Guess=TCheck SCRF=Check GenChk RB3LYP/6-31G(2df,p) Fr
 eq
 ----------------------------------------------------------------------

 Structure from the checkpoint file:  "/scratch/puck/g09_15481487-ea1c-4c8e-a86b-7b464221b904/Gau-30224.chk"
 -----
 titel
 -----
 Charge =  0 Multiplicity = 1

                         Standard orientation:
 ---------------------------------------------------------------------
 Center     Atomic      Atomic             Coordinates (Angstroms)
 Number     Number       Type             X           Y           Z
 ---------------------------------------------------------------------
      1          8           0        2.755396   -0.378252   -0.440259
      2          6           0        2.108804    0.673277    0.265260
      3          6           0        0.611514    0.521063    0.266280
      4          6           0       -0.227292    1.507129   -0.063148
      5          6           0       -1.728732    1.364473   -0.054029
      6          6           0       -2.202896   -0.077335   -0.325721
      7          6           0       -1.330655   -1.128614    0.348927
      8          8           0       -0.284380   -1.693459   -0.453644
      9          6           0        0.076351   -0.820668    0.637040
     10          1           0        2.279105   -0.509300   -1.267342
     11          1           0        2.502731    0.612817    1.288574
     12          1           0        2.383821    1.663784   -0.129516
     13          1           0        0.177039    2.481459   -0.331549
     14          1           0       -2.110514    1.709902    0.918347
     15          1           0       -2.169982    2.040493   -0.794351
     16          1           0       -3.243103   -0.193130   -0.005484
     17          1           0       -2.175958   -0.273750   -1.402683
     18          1           0       -1.839328   -1.860867    0.975052
     19          1           0        0.585498   -1.333679    1.452526
 ---------------------------------------------------------------------

 SCF Done:  E(RB3LYP) =  -423.174033180     A.U. after    1 cycles

 The electronic state is 1-A.
 Alpha  occ. eigenvalues --  -19.14454 -19.13164 -10.23466 -10.23392 -10.22928
 Alpha  occ. eigenvalues --  -10.19535 -10.19249 -10.19063 -10.18888  -1.06303
 Alpha  occ. eigenvalues --   -1.01242  -0.82412  -0.76804  -0.69855  -0.66775
 Alpha  occ. eigenvalues --   -0.62930  -0.59921  -0.52200  -0.50897  -0.49071
 Alpha  occ. eigenvalues --   -0.46291  -0.44624  -0.43967  -0.43010  -0.40381
 Alpha  occ. eigenvalues --   -0.39894  -0.37715  -0.35595  -0.33210  -0.32691
 Alpha  occ. eigenvalues --   -0.29951  -0.27771  -0.25989  -0.24313
 Alpha virt. eigenvalues --   -0.00338   0.08494   0.09869   0.10093   0.11819
 Alpha virt. eigenvalues --    0.12841   0.13715   0.14584   0.15236   0.16777
 Alpha virt. eigenvalues --    0.18682   0.18987   0.20409   0.21183   0.22290

 Mulliken charges:
               1
     1  O   -0.411854
     2  C   -0.153094
     3  C    0.271540
     4  C   -0.163942
     5  C   -0.263541
     6  C   -0.235966
     7  C    0.037382
     8  O   -0.262507
     9  C   -0.035224
    10  H    0.290347
    11  H    0.111459
    12  H    0.089047
    13  H    0.090185
    14  H    0.117896
    15  H    0.109689
    16  H    0.100434
    17  H    0.121854
    18  H    0.092128
    19  H    0.094166
 Sum of Mulliken charges =   0.00000

 Dipole moment (field-independent basis, Debye):
    X=             -2.1095    Y=              1.9710    Z=              0.6309  Tot=              2.9552
 Quadrupole moment (field-independent basis, Debye-Ang):
   XX=            -55.5647   YY=            -54.3941   ZZ=            -50.6121
   XY=              2.0314   XZ=             -0.4758   YZ=             -2.3349

  Exact polarizability:  92.383  -3.677  79.213   3.553  -3.619  59.687
 Approx polarizability: 126.576 -13.705 120.636   5.243  -2.701  95.821

                      1                      2                      3
                      A                      A                      A
 Frequencies --     73.4233                81.6714               143.8297
 Red. masses --      3.3408                 2.9107                 3.2180
 Frc consts  --      0.0106                 0.0114                 0.0392
 IR Inten    --      1.5442                 1.0522                 3.3173

                      4                      5                      6
                      A                      A                      A
 Frequencies --    263.6074               282.3873               333.7715
 Red. masses --      2.4448                 2.0376                 1.4849
 Frc consts  --      0.1001                 0.0957                 0.0975
 IR Inten    --      3.1710                36.1818                68.4218

                      7                      8                      9
                      A                      A                      A
 Frequencies --    380.4254               391.9641               471.7109
 Red. masses --      2.7963                 3.6268                 2.9566
 Frc consts  --      0.2384                 0.3283                 0.3876
 IR Inten    --     30.0707                 5.5040                11.4929

                     10                     11                     12
                      A                      A                      A
 Frequencies --    542.9408               616.7793               707.9166
 Red. masses --      5.6435                 4.4842                 2.2685
 Frc consts  --      0.9802                 1.0051                 0.6698
 IR Inten    --      2.0284                 3.4264                 0.9065

                     13                     14                     15
                      A                      A                      A
 Frequencies --    774.3243               798.6671               848.4090
 Red. masses --      2.9273                 3.0188                 1.6742
 Frc consts  --      1.0341                 1.1345                 0.7100
 IR Inten    --      7.4855                 9.5247                25.6145

                     16                     17                     18
                      A                      A                      A
 Frequencies --    885.6177               908.3148               953.3942
 Red. masses --      2.6924                 2.1896                 2.8500
 Frc consts  --      1.2442                 1.0644                 1.5263
 IR Inten    --     14.0022                 3.9050                 3.5275

                     19                     20                     21
                      A                      A                      A
 Frequencies --    957.6402              1004.3058              1044.9191
 Red. masses --      2.5880                 1.8834                 3.2593
 Frc consts  --      1.3983                 1.1192                 2.0967
 IR Inten    --      6.3130                29.0969                59.6971

                     22                     23                     24
                      A                      A                      A
 Frequencies --   1058.1681              1088.4408              1099.8714
 Red. masses --      2.4329                 1.3930                 2.0794
 Frc consts  --      1.6051                 0.9724                 1.4821
 IR Inten    --     11.7965                 7.9697                 7.3490

                     25                     26                     27
                      A                      A                      A
 Frequencies --   1136.1851              1189.4427              1204.9182
 Red. masses --      1.4671                 1.9840                 1.1382
 Frc consts  --      1.1159                 1.6538                 0.9736
 IR Inten    --      2.4330                 4.7080                 4.3173

                     28                     29                     30
                      A                      A                      A
 Frequencies --   1215.7865              1261.8225              1285.4065
 Red. masses --      1.1834                 1.4940                 1.3044
 Frc consts  --      1.0306                 1.4015                 1.2699
 IR Inten    --     11.4811                 3.6047                 2.9446

                     31                     32                     33
                      A                      A                      A
 Frequencies --   1323.2344              1344.2464              1356.7241
 Red. masses --      1.2657                 1.3915                 1.2745
 Frc consts  --      1.3058                 1.4815                 1.3822
 IR Inten    --      2.2113                 0.5777                 3.0164

                     34                     35                     36
                      A                      A                      A
 Frequencies --   1386.2480              1401.4411              1425.7600
 Red. masses --      1.5104                 1.5392                 1.2577
 Frc consts  --      1.7101                 1.7811                 1.5063
 IR Inten    --      1.5011                13.6498                68.9175

                     37                     38                     39
                      A                      A                      A
 Frequencies --   1463.3798              1475.9133              1483.7964
 Red. masses --      2.0836                 1.3840                 1.0910
 Frc consts  --      2.6289                 1.7762                 1.4152
 IR Inten    --      6.8877                 9.8252                 3.5049

                     40                     41                     42
                      A                      A                      A
 Frequencies --   1503.5579              1728.2411              2981.7762
 Red. masses --      1.0935                 7.5042                 1.0657
 Frc consts  --      1.4565                13.2058                 5.5826
 IR Inten    --      1.3479                 2.9516                60.0695

                     43                     44                     45
                      A                      A                      A
 Frequencies --   2999.4935              3033.8430              3044.4021
 Red. masses --      1.0711                 1.0957                 1.0626
 Frc consts  --      5.6776                 5.9420                 5.8027
 IR Inten    --     25.7403                30.7062                17.2644

                     46                     47                     48
                      A                      A                      A
 Frequencies --   3062.4849              3087.9565              3108.8034
 Red. masses --      1.0864                 1.1026                 1.0863
 Frc consts  --      6.0034                 6.1944                 6.1854
 IR Inten    --     35.3077                10.9657                22.1938

                     49                     50                     51
                      A                      A                      A
 Frequencies --   3120.2128              3143.4596              3809.3940
 Red. masses --      1.0918                 1.0893                 1.0663
 Frc consts  --      6.2627                 6.3420                 9.1167
 IR Inten    --     51.7706                19.5566                18.3246

 - Thermochemistry -
 -------------------
 Temperature   298.150 Kelvin.  Pressure   1.00000 Atm.
 Atom     1 has atomic number  8 and mass  15.99491

 Molecular mass:   126.06808 amu.
 Principal axes and moments of inertia in atomic units:
                           1         2         3
     Eigenvalues --   634.411301313.640941764.76403
           X            0.99998   0.00273   0.00578
           Y           -0.00260   0.99972  -0.02348
           Z           -0.00584   0.02347   0.99971
 This molecule is an asymmetric top.
 Rotational symmetry number  1.
 Warning -- assumption of classical behavior for rotation
           may cause significant error
 Rotational temperatures (Kelvin)      0.13653     0.06593     0.04908
 Rotational constants (GHZ):           2.84475     1.37385     1.02265
 Zero-point vibrational energy     420430.1 (Joules/Mol)
                                  100.48521 (Kcal/Mol)
 Warning -- explicit consideration of  11 degrees of freedom as
           vibrations may cause significant error
 Vibrational temperatures:    105.64   117.51   206.94   379.27   406.29
          (Kelvin)            480.22   547.35   563.95   678.69   781.17
                              887.41  1018.53  1114.08  1149.10  1220.67
                             1274.20  1306.86  1371.72  1377.83  1444.97
                             1503.40  1522.47  1566.02  1582.47  1634.71
                             1711.34  1733.61  1749.24  1815.48  1849.41
                             1903.84  1934.07  1952.02  1994.50  2016.36
                             2051.35  2105.47  2123.51  2134.85  2163.28
                             2486.55  4290.11  4315.60  4365.02  4380.21
                             4406.23  4442.88  4472.87  4489.28  4522.73
                             5480.86

 Zero-point correction=                           0.160133 (Hartree/Particle)
 Thermal correction to Energy=                    0.168558
 Thermal correction to Enthalpy=                  0.169503
 Thermal correction to Gibbs Free Energy=         0.126651
 Sum of electronic and zero-point Energies=           -423.013900
 Sum of electronic and thermal Energies=              -423.005475
 Sum of electronic and thermal Enthalpies=            -423.004531
 Sum of electronic and thermal Free Energies=         -423.047382

                     E (Thermal)             CV                S
                      KCal/Mol        Cal/Mol-Kelvin    Cal/Mol-Kelvin
 Total                  105.772             31.746             90.189
 Electronic               0.000              0.000              0.000
 Translational            0.889              2.981             40.409
 Rotational               0.889              2.981             28.777
 Vibrational            103.995             25.784             21.003
 Vibration     1          0.599              1.967              4.059
 Vibration     2          0.600              1.962              3.850
 Vibration     3          0.616              1.909              2.752
 Vibration     4          0.670              1.740              1.638
 Vibration     5          0.681              1.706              1.519
 Vibration     6          0.715              1.608              1.242
 Vibration     7          0.750              1.512              1.037
 Vibration     8          0.759              1.487              0.993
 Vibration     9          0.829              1.313              0.733
 Vibration    10          0.898              1.155              0.559
 Vibration    11          0.976              0.996              0.422

 Normal termination of Gaussian 09 at Tue Jan 28 13:23:28 2020.
