 Gaussian 09, Revision D.01,
 Gaussian 09:  ES64L-G09RevD.01 24-Apr-2013

 -----------------------------
 # b3lyp 6-31G(2df,p) opt Freq
 -----------------------------

 -----
 titel
 -----
 Symbolic Z-matrix:
 Charge =  0 Multiplicity = 1

 SCF Done:  E(RB3LYP) =  -423.143090950     A.U. after   14 cycles
 Optimization completed.
    -- Stationary point found.
 Normal termination of Gaussian 09 at Mon Jan 27 23:00:14 2020.

 ----------------------------------------------------------------------
 #N Geom=AllCheck Guess=TCheck SCRF=Check GenChk RB3LYP/6-31G(2df,p) Fr
 eq
 ----------------------------------------------------------------------

 Structure from the checkpoint file:  "/scratch/puck/g09_3c9bb2a2-1c47-431c-b037-cd16ccad5430/Gau-191771.chk"
 -----
 titel
 -----
 Charge =  0 Multiplicity = 1

                         Standard orientation:
 ---------------------------------------------------------------------
 Center     Atomic      Atomic             Coordinates (Angstroms)
 Number     Number       Type             X           Y           Z
 ---------------------------------------------------------------------
      1          6           0       -0.829924    2.091676   -0.193369
      2          6           0       -0.477191    0.677540    0.178671
      3          6           0        0.186323    0.146264    1.485177
      4          6           0       -0.036495   -1.121463    0.611633
      5          6           0       -1.448604   -0.524623    0.310118
      6          8           0       -2.137587   -0.872373   -0.863747
      7          6           0        0.476498   -0.323195   -0.616824
      8          6           0        1.925511    0.016713   -0.779437
      9          8           0        2.821495   -0.310919   -0.038139
     10          1           0        0.059034    2.729529   -0.234637
     11          1           0       -1.322234    2.125825   -1.170651
     12          1           0       -1.516119    2.522165    0.544454
     13          1           0        1.221262    0.426425    1.667588
     14          1           0       -0.419758    0.226958    2.392884
     15          1           0        0.214484   -2.150263    0.868415
     16          1           0       -2.125914   -0.474745    1.173912
     17          1           0       -2.559653   -1.726085   -0.727066
     18          1           0        0.057324   -0.613450   -1.584432
     19          1           0        2.143608    0.622498   -1.691195
 ---------------------------------------------------------------------

 SCF Done:  E(RB3LYP) =  -423.143090950     A.U. after    1 cycles

 The electronic state is 1-A.
 Alpha  occ. eigenvalues --  -19.14784 -19.13420 -10.26452 -10.24161 -10.21799
 Alpha  occ. eigenvalues --  -10.20232 -10.19589 -10.18760 -10.18245  -1.04012
 Alpha  occ. eigenvalues --   -1.03371  -0.91204  -0.73466  -0.71267  -0.66008
 Alpha  occ. eigenvalues --   -0.60688  -0.58940  -0.53438  -0.49976  -0.48434
 Alpha  occ. eigenvalues --   -0.46924  -0.44652  -0.42502  -0.42020  -0.40517
 Alpha  occ. eigenvalues --   -0.38912  -0.38105  -0.35241  -0.33150  -0.31619
 Alpha  occ. eigenvalues --   -0.30815  -0.30437  -0.27211  -0.24269
 Alpha virt. eigenvalues --   -0.02300   0.07299   0.10626   0.12081   0.12599
 Alpha virt. eigenvalues --    0.14245   0.14432   0.14727   0.15802   0.15992
 Alpha virt. eigenvalues --    0.17004   0.17603   0.18364   0.19974   0.21420

 Mulliken charges:
               1
     1  C   -0.521397
     2  C    0.286187
     3  C   -0.279920
     4  C   -0.116339
     5  C    0.112462
     6  O   -0.443648
     7  C   -0.100015
     8  C    0.111179
     9  O   -0.252380
    10  H    0.124207
    11  H    0.133770
    12  H    0.124096
    13  H    0.130296
    14  H    0.088816
    15  H    0.077919
    16  H    0.066679
    17  H    0.288227
    18  H    0.098394
    19  H    0.071467
 Sum of Mulliken charges =   0.00000

 Dipole moment (field-independent basis, Debye):
    X=             -2.6405    Y=             -0.2233    Z=             -0.0324  Tot=              2.6501
 Quadrupole moment (field-independent basis, Debye-Ang):
   XX=            -60.6281   YY=            -48.7597   ZZ=            -52.5967
   XY=              4.8817   XZ=             -3.7706   YZ=              0.2209

  Exact polarizability:  84.624   0.562  72.657  -1.055  -2.462  73.443
 Approx polarizability: 123.299  -1.859 104.893   4.873  -3.564 113.813

                      1                      2                      3
                      A                      A                      A
 Frequencies --     84.2196               170.0070               192.0334
 Red. masses --      4.8449                 3.2215                 1.3725
 Frc consts  --      0.0202                 0.0549                 0.0298
 IR Inten    --      4.5763                 5.1583                 4.3490

                      4                      5                      6
                      A                      A                      A
 Frequencies --    207.7072               211.9982               265.0289
 Red. masses --      1.8274                 2.9258                 1.1913
 Frc consts  --      0.0464                 0.0775                 0.0493
 IR Inten    --      6.0975                 3.5385                80.6534

                      7                      8                      9
                      A                      A                      A
 Frequencies --    289.9982               340.6235               415.0048
 Red. masses --      5.0851                 2.3933                 2.8590
 Frc consts  --      0.2520                 0.1636                 0.2901
 IR Inten    --     13.8798                 0.4432                 4.7305

                     10                     11                     12
                      A                      A                      A
 Frequencies --    497.7920               592.6064               623.5188
 Red. masses --      2.4588                 4.7622                 3.8437
 Frc consts  --      0.3590                 0.9854                 0.8804
 IR Inten    --      1.0524                13.8030                 0.4422

                     13                     14                     15
                      A                      A                      A
 Frequencies --    738.9756               760.4947               769.4981
 Red. masses --      3.5115                 3.2505                 2.8079
 Frc consts  --      1.1298                 1.1076                 0.9796
 IR Inten    --     23.1614                 3.3977                 2.3988

                     16                     17                     18
                      A                      A                      A
 Frequencies --    835.0265               903.5974               936.2581
 Red. masses --      2.9886                 2.1919                 2.6409
 Frc consts  --      1.2278                 1.0545                 1.3639
 IR Inten    --      4.5873                 1.1845                 3.0939

                     19                     20                     21
                      A                      A                      A
 Frequencies --    946.3865              1002.3075              1024.8256
 Red. masses --      2.1950                 1.3832                 1.1305
 Frc consts  --      1.1583                 0.8187                 0.6995
 IR Inten    --      2.7885                 8.1892                 7.7256

                     22                     23                     24
                      A                      A                      A
 Frequencies --   1039.9701              1067.7443              1083.2532
 Red. masses --      1.5098                 1.8700                 1.5979
 Frc consts  --      0.9621                 1.2561                 1.1047
 IR Inten    --      9.3155                 9.9926                27.8664

                     25                     26                     27
                      A                      A                      A
 Frequencies --   1120.9854              1153.9140              1181.4527
 Red. masses --      1.5580                 3.6294                 1.5939
 Frc consts  --      1.1535                 2.8473                 1.3108
 IR Inten    --     13.6936                62.9917                13.1355

                     28                     29                     30
                      A                      A                      A
 Frequencies --   1185.8651              1199.6649              1222.7233
 Red. masses --      1.4702                 1.7009                 1.8574
 Frc consts  --      1.2182                 1.4423                 1.6361
 IR Inten    --     20.2493                19.0372                25.6775

                     31                     32                     33
                      A                      A                      A
 Frequencies --   1235.6161              1278.3928              1335.0396
 Red. masses --      1.8965                 1.8446                 1.8557
 Frc consts  --      1.7060                 1.7762                 1.9487
 IR Inten    --     12.2557                33.8946                22.7224

                     34                     35                     36
                      A                      A                      A
 Frequencies --   1379.3283              1409.6799              1427.8849
 Red. masses --      1.6386                 1.3256                 1.2336
 Frc consts  --      1.8368                 1.5520                 1.4819
 IR Inten    --     20.3766                 3.9507                11.8909

                     37                     38                     39
                      A                      A                      A
 Frequencies --   1437.2135              1488.5963              1490.5006
 Red. masses --      1.3880                 1.0470                 1.0486
 Frc consts  --      1.6892                 1.3669                 1.3726
 IR Inten    --     11.1913                 4.6486                 4.4437

                     40                     41                     42
                      A                      A                      A
 Frequencies --   1527.1927              1811.3368              2846.6927
 Red. masses --      1.1644                10.0308                 1.0811
 Frc consts  --      1.6001                19.3903                 5.1620
 IR Inten    --      8.1432               149.0605               143.1500

                     43                     44                     45
                      A                      A                      A
 Frequencies --   3008.5047              3030.3823              3059.2699
 Red. masses --      1.0843                 1.0353                 1.0642
 Frc consts  --      5.7822                 5.6018                 5.8682
 IR Inten    --     55.4667                23.5020                48.5307

                     46                     47                     48
                      A                      A                      A
 Frequencies --   3078.2473              3096.7544              3104.7607
 Red. masses --      1.0826                 1.1005                 1.1013
 Frc consts  --      6.0442                 6.2183                 6.2550
 IR Inten    --     18.9411                17.0294                14.1600

                     49                     50                     51
                      A                      A                      A
 Frequencies --   3119.6699              3166.4166              3823.6064
 Red. masses --      1.0923                 1.1005                 1.0662
 Frc consts  --      6.2633                 6.5010                 9.1844
 IR Inten    --     44.2557                 9.2158                35.6007

 - Thermochemistry -
 -------------------
 Temperature   298.150 Kelvin.  Pressure   1.00000 Atm.
 Atom     1 has atomic number  6 and mass  12.00000

 Molecular mass:   126.06808 amu.
 Principal axes and moments of inertia in atomic units:
                           1         2         3
     Eigenvalues --   692.864871359.818441516.62545
           X            0.99994   0.00002  -0.01057
           Y           -0.00043   0.99925  -0.03874
           Z            0.01056   0.03875   0.99919
 This molecule is an asymmetric top.
 Rotational symmetry number  1.
 Warning -- assumption of classical behavior for rotation
           may cause significant error
 Rotational temperatures (Kelvin)      0.12501     0.06370     0.05711
 Rotational constants (GHZ):           2.60475     1.32719     1.18997
 Zero-point vibrational energy     414019.0 (Joules/Mol)
                                   98.95291 (Kcal/Mol)
 Warning -- explicit consideration of  11 degrees of freedom as
           vibrations may cause significant error
 Vibrational temperatures:    121.17   244.60   276.29   298.84   305.02
          (Kelvin)            381.32   417.24   490.08   597.10   716.21
                              852.63   897.10  1063.22  1094.18  1107.13
                             1201.42  1300.07  1347.06  1361.64  1442.10
                             1474.49  1496.28  1536.24  1558.56  1612.85
                             1660.22  1699.84  1706.19  1726.05  1759.22
                             1777.77  1839.32  1920.82  1984.54  2028.21
                             2054.41  2067.83  2141.76  2144.50  2197.29
                             2606.11  4095.75  4328.56  4360.04  4401.60
                             4428.91  4455.53  4467.05  4488.50  4555.76
                             5501.31

 Zero-point correction=                           0.157691 (Hartree/Particle)
 Thermal correction to Energy=                    0.166504
 Thermal correction to Enthalpy=                  0.167448
 Thermal correction to Gibbs Free Energy=         0.124403
 Sum of electronic and zero-point Energies=           -422.985399
 Sum of electronic and thermal Energies=              -422.976587
 Sum of electronic and thermal Enthalpies=            -422.975642
 Sum of electronic and thermal Free Energies=         -423.018688

                     E (Thermal)             CV                S
                      KCal/Mol        Cal/Mol-Kelvin    Cal/Mol-Kelvin
 Total                  104.483             33.328             90.597
 Electronic               0.000              0.000              0.000
 Translational            0.889              2.981             40.409
 Rotational               0.889              2.981             28.748
 Vibrational            102.706             27.366             21.441
 Vibration     1          0.601              1.960              3.790
 Vibration     2          0.625              1.879              2.435
 Vibration     3          0.634              1.851              2.208
 Vibration     4          0.641              1.829              2.064
 Vibration     5          0.643              1.823              2.026
 Vibration     6          0.671              1.737              1.628
 Vibration     7          0.686              1.692              1.474
 Vibration     8          0.720              1.594              1.209
 Vibration     9          0.778              1.438              0.909
 Vibration    10          0.853              1.255              0.664
 Vibration    11          0.950              1.048              0.463

 Optimization completed.
    -- Stationary point found.
 Normal termination of Gaussian 09 at Mon Jan 27 23:44:49 2020.
