 Gaussian 09, Revision D.01,
 Gaussian 09:  ES64L-G09RevD.01 24-Apr-2013

 -----------------------------
 # b3lyp 6-31G(2df,p) opt Freq
 -----------------------------

 -----
 titel
 -----
 Symbolic Z-matrix:
 Charge =  0 Multiplicity = 1

 SCF Done:  E(RB3LYP) =  -423.127413291     A.U. after   13 cycles
 Optimization completed.
    -- Stationary point found.
 Normal termination of Gaussian 09 at Mon Jan 27 11:30:53 2020.

 ----------------------------------------------------------------------
 #N Geom=AllCheck Guess=TCheck SCRF=Check GenChk RB3LYP/6-31G(2df,p) Fr
 eq
 ----------------------------------------------------------------------

 Structure from the checkpoint file:  "/scratch/puck/g09_5f4aa32d-906b-4c80-afce-01aba39503b9/Gau-60974.chk"
 -----
 titel
 -----
 Charge =  0 Multiplicity = 1

                         Standard orientation:
 ---------------------------------------------------------------------
 Center     Atomic      Atomic             Coordinates (Angstroms)
 Number     Number       Type             X           Y           Z
 ---------------------------------------------------------------------
      1          6           0       -2.106384   -0.620426    0.064068
      2          6           0       -0.745489   -0.930039   -0.517162
      3          8           0        0.229972   -1.686215    0.129211
      4          6           0        1.530628   -1.055745    0.068411
      5          8           0        1.566324    0.229536   -0.484263
      6          6           0        0.834130    1.302942    0.135144
      7          6           0       -0.434431    1.604300   -0.736706
      8          6           0       -1.027387    0.426850    0.047819
      9          6           0       -0.129288    0.795552    1.231303
     10          1           0       -2.936502   -0.593856   -0.634902
     11          1           0       -2.358523   -1.005573    1.047061
     12          1           0       -0.721478   -0.998853   -1.605351
     13          1           0        1.924719   -1.078121    1.094242
     14          1           0        2.175363   -1.653724   -0.585073
     15          1           0        1.534434    2.113873    0.353245
     16          1           0       -0.860843    2.581587   -0.487294
     17          1           0       -0.322887    1.499518   -1.817829
     18          1           0       -0.534155    1.635213    1.804321
     19          1           0        0.198833    0.012771    1.914734
 ---------------------------------------------------------------------

 SCF Done:  E(RB3LYP) =  -423.127413291     A.U. after    1 cycles

 The electronic state is 1-A.
 Alpha  occ. eigenvalues --  -19.14871 -19.13943 -10.27396 -10.24323 -10.22579
 Alpha  occ. eigenvalues --  -10.19475 -10.19133 -10.18917 -10.18701  -1.06492
 Alpha  occ. eigenvalues --   -1.00388  -0.88020  -0.79379  -0.69841  -0.66949
 Alpha  occ. eigenvalues --   -0.61368  -0.56307  -0.55378  -0.50908  -0.49908
 Alpha  occ. eigenvalues --   -0.48671  -0.45611  -0.45052  -0.40769  -0.40036
 Alpha  occ. eigenvalues --   -0.38704  -0.37508  -0.36526  -0.32696  -0.32140
 Alpha  occ. eigenvalues --   -0.29232  -0.27517  -0.25958  -0.23731
 Alpha virt. eigenvalues --    0.09559   0.09694   0.10531   0.11446   0.12620
 Alpha virt. eigenvalues --    0.13478   0.14624   0.15173   0.15877   0.16707
 Alpha virt. eigenvalues --    0.18676   0.18892   0.19629   0.21386   0.21642

 Mulliken charges:
               1
     1  C   -0.449949
     2  C    0.106582
     3  O   -0.277270
     4  C    0.013892
     5  O   -0.264252
     6  C    0.128590
     7  C   -0.306044
     8  C    0.307147
     9  C   -0.292498
    10  H    0.118445
    11  H    0.122961
    12  H    0.083126
    13  H    0.099773
    14  H    0.114121
    15  H    0.075664
    16  H    0.096818
    17  H    0.105899
    18  H    0.099521
    19  H    0.117474
 Sum of Mulliken charges =   0.00000

 Dipole moment (field-independent basis, Debye):
    X=             -0.3916    Y=              1.1504    Z=              0.4511  Tot=              1.2963
 Quadrupole moment (field-independent basis, Debye-Ang):
   XX=            -52.4431   YY=            -54.5838   ZZ=            -51.6766
   XY=             -1.0177   XZ=              1.8395   YZ=              1.1223

  Exact polarizability:  80.181   0.274  77.444   1.338   0.880  68.091
 Approx polarizability: 112.064   0.599 113.604  -0.469   0.794 104.075

                      1                      2                      3
                      A                      A                      A
 Frequencies --    189.3766               260.6058               317.3487
 Red. masses --      2.9728                 2.9445                 2.7536
 Frc consts  --      0.0628                 0.1178                 0.1634
 IR Inten    --      7.6668                 3.4489                 1.8824

                      4                      5                      6
                      A                      A                      A
 Frequencies --    375.5077               382.5848               406.1186
 Red. masses --      3.1801                 3.3384                 3.1079
 Frc consts  --      0.2642                 0.2879                 0.3020
 IR Inten    --      1.8286                 5.7974                 1.7597

                      7                      8                      9
                      A                      A                      A
 Frequencies --    458.7595               531.8157               600.6564
 Red. masses --      2.4437                 2.8337                 2.8660
 Frc consts  --      0.3030                 0.4722                 0.6092
 IR Inten    --      2.6073                 0.5554                 0.4189

                     10                     11                     12
                      A                      A                      A
 Frequencies --    685.7320               801.0613               815.4439
 Red. masses --      5.1077                 2.1044                 2.6607
 Frc consts  --      1.4151                 0.7956                 1.0424
 IR Inten    --      1.3226                13.6408                 6.4776

                     13                     14                     15
                      A                      A                      A
 Frequencies --    829.3254               853.8232               861.5043
 Red. masses --      2.2000                 2.4374                 1.9946
 Frc consts  --      0.8915                 1.0469                 0.8722
 IR Inten    --      4.2641                10.4582                 0.8876

                     16                     17                     18
                      A                      A                      A
 Frequencies --    920.2298               939.4845               958.6858
 Red. masses --      2.6448                 3.1485                 4.6807
 Frc consts  --      1.3196                 1.6373                 2.5346
 IR Inten    --      1.0635                16.4461                87.2331

                     19                     20                     21
                      A                      A                      A
 Frequencies --    979.0704              1048.9678              1061.4158
 Red. masses --      1.6852                 2.1638                 1.4191
 Frc consts  --      0.9518                 1.4028                 0.9420
 IR Inten    --      8.9595                22.4849                 9.0060

                     22                     23                     24
                      A                      A                      A
 Frequencies --   1066.4820              1081.0894              1116.0724
 Red. masses --      1.1930                 2.4142                 1.6184
 Frc consts  --      0.7995                 1.6624                 1.1878
 IR Inten    --      4.0159                17.7918                12.8065

                     25                     26                     27
                      A                      A                      A
 Frequencies --   1126.6370              1138.4225              1167.1813
 Red. masses --      2.3828                 1.5451                 1.8236
 Frc consts  --      1.7820                 1.1798                 1.4637
 IR Inten    --     15.6170                14.7224                11.7503

                     28                     29                     30
                      A                      A                      A
 Frequencies --   1176.3825              1200.5380              1216.1700
 Red. masses --      1.5664                 3.2346                 1.5824
 Frc consts  --      1.2771                 2.7468                 1.3790
 IR Inten    --     16.8961               143.4587                 1.5020

                     31                     32                     33
                      A                      A                      A
 Frequencies --   1258.9089              1270.2738              1286.6578
 Red. masses --      1.5825                 1.4776                 1.3354
 Frc consts  --      1.4777                 1.4047                 1.3026
 IR Inten    --      5.0639                 8.3570                 5.4936

                     34                     35                     36
                      A                      A                      A
 Frequencies --   1348.7103              1358.4070              1411.0867
 Red. masses --      1.3155                 1.5112                 1.4500
 Frc consts  --      1.4099                 1.6430                 1.7011
 IR Inten    --      6.2078                 3.8688                20.1014

                     37                     38                     39
                      A                      A                      A
 Frequencies --   1446.5537              1472.8264              1485.6617
 Red. masses --      1.1958                 1.1029                 1.7723
 Frc consts  --      1.4742                 1.4096                 2.3048
 IR Inten    --      7.2229                 2.5890                17.3064

                     40                     41                     42
                      A                      A                      A
 Frequencies --   1502.1272              1527.9737              2997.2236
 Red. masses --      1.1398                 1.0964                 1.0634
 Frc consts  --      1.5153                 1.5082                 5.6284
 IR Inten    --      5.9472                 1.1892                82.2202

                     43                     44                     45
                      A                      A                      A
 Frequencies --   3046.6933              3060.1292              3062.2827
 Red. masses --      1.0598                 1.0682                 1.1023
 Frc consts  --      5.7960                 5.8934                 6.0902
 IR Inten    --     32.5304                14.9927                55.7390

                     46                     47                     48
                      A                      A                      A
 Frequencies --   3075.4440              3088.9564              3118.6018
 Red. masses --      1.0840                 1.0861                 1.1064
 Frc consts  --      6.0407                 6.1059                 6.3401
 IR Inten    --     98.2480                26.9988                24.8909

                     49                     50                     51
                      A                      A                      A
 Frequencies --   3125.9335              3136.3366              3213.1465
 Red. masses --      1.0553                 1.1005                 1.1162
 Frc consts  --      6.0757                 6.3780                 6.7895
 IR Inten    --     13.2132                17.6085                 6.7225

 - Thermochemistry -
 -------------------
 Temperature   298.150 Kelvin.  Pressure   1.00000 Atm.
 Atom     1 has atomic number  6 and mass  12.00000

 Molecular mass:   126.06808 amu.
 Principal axes and moments of inertia in atomic units:
                           1         2         3
     Eigenvalues --   738.02957 811.058281202.22991
           X            0.99809  -0.05916   0.01777
           Y            0.05909   0.99824   0.00409
           Z           -0.01798  -0.00303   0.99983
 This molecule is an asymmetric top.
 Rotational symmetry number  1.
 Warning -- assumption of classical behavior for rotation
           may cause significant error
 Rotational temperatures (Kelvin)      0.11736     0.10679     0.07204
 Rotational constants (GHZ):           2.44535     2.22517     1.50116
 Zero-point vibrational energy     423839.5 (Joules/Mol)
                                  101.30007 (Kcal/Mol)
 Warning -- explicit consideration of   9 degrees of freedom as
           vibrations may cause significant error
 Vibrational temperatures:    272.47   374.95   456.59   540.27   550.45
          (Kelvin)            584.31   660.05   765.16   864.21   986.61
                             1152.55  1173.24  1193.21  1228.46  1239.51
                             1324.00  1351.71  1379.33  1408.66  1509.23
                             1527.14  1534.43  1555.44  1605.78  1620.98
                             1637.93  1679.31  1692.55  1727.30  1749.80
                             1811.29  1827.64  1851.21  1940.49  1954.44
                             2030.24  2081.27  2119.07  2137.53  2161.22
                             2198.41  4312.33  4383.51  4402.84  4405.94
                             4424.87  4444.31  4486.97  4497.52  4512.48
                             4623.00

 Zero-point correction=                           0.161432 (Hartree/Particle)
 Thermal correction to Energy=                    0.168283
 Thermal correction to Enthalpy=                  0.169227
 Thermal correction to Gibbs Free Energy=         0.130711
 Sum of electronic and zero-point Energies=           -422.965981
 Sum of electronic and thermal Energies=              -422.959131
 Sum of electronic and thermal Enthalpies=            -422.958186
 Sum of electronic and thermal Free Energies=         -422.996702

                     E (Thermal)             CV                S
                      KCal/Mol        Cal/Mol-Kelvin    Cal/Mol-Kelvin
 Total                  105.599             28.942             81.064
 Electronic               0.000              0.000              0.000
 Translational            0.889              2.981             40.409
 Rotational               0.889              2.981             28.067
 Vibrational            103.822             22.980             12.588
 Vibration     1          0.633              1.854              2.234
 Vibration     2          0.669              1.745              1.658
 Vibration     3          0.704              1.640              1.324
 Vibration     4          0.746              1.522              1.057
 Vibration     5          0.752              1.507              1.029
 Vibration     6          0.771              1.457              0.940
 Vibration     7          0.817              1.342              0.770
 Vibration     8          0.887              1.180              0.583
 Vibration     9          0.959              1.030              0.449

 Optimization completed.
    -- Stationary point found.
 Normal termination of Gaussian 09 at Mon Jan 27 13:56:22 2020.
