 Gaussian 09, Revision D.01,
 Gaussian 09:  ES64L-G09RevD.01 24-Apr-2013

 -----------------------------
 # b3lyp 6-31G(2df,p) opt Freq
 -----------------------------

 -----
 titel
 -----
 Symbolic Z-matrix:
 Charge =  0 Multiplicity = 1

 SCF Done:  E(RB3LYP) =  -423.210863889     A.U. after   14 cycles
 Optimization completed.
    -- Stationary point found.
 Normal termination of Gaussian 09 at Mon Jan 27 18:52:18 2020.

 ----------------------------------------------------------------------
 #N Geom=AllCheck Guess=TCheck SCRF=Check GenChk RB3LYP/6-31G(2df,p) Fr
 eq
 ----------------------------------------------------------------------

 Structure from the checkpoint file:  "/scratch/puck/g09_6e390ecd-f295-46e2-93a3-50e4bc514630/Gau-64491.chk"
 -----
 titel
 -----
 Charge =  0 Multiplicity = 1

                         Standard orientation:
 ---------------------------------------------------------------------
 Center     Atomic      Atomic             Coordinates (Angstroms)
 Number     Number       Type             X           Y           Z
 ---------------------------------------------------------------------
      1          8           0       -0.544206   -1.710133    0.991475
      2          6           0       -0.026748   -0.705269    0.172280
      3          6           0        0.957723   -1.155223   -0.955540
      4          6           0        1.983916   -0.090764   -0.481531
      5          6           0        1.067352    0.266723    0.727635
      6          6           0        0.459217    1.685026    0.706079
      7          6           0       -0.615405    1.643821   -0.404166
      8          6           0       -1.147143    0.221888   -0.305056
      9          8           0       -2.287501   -0.152907   -0.439388
     10          1           0       -1.483790   -1.781142    0.762684
     11          1           0        1.276188   -2.181160   -0.759139
     12          1           0        0.601798   -1.089773   -1.987729
     13          1           0        2.966846   -0.484238   -0.216512
     14          1           0        2.131441    0.738369   -1.179302
     15          1           0        1.475936   -0.011495    1.699607
     16          1           0       -0.020979    1.900253    1.667274
     17          1           0        1.213671    2.458664    0.536339
     18          1           0       -1.417781    2.376298   -0.302808
     19          1           0       -0.163160    1.781322   -1.395314
 ---------------------------------------------------------------------

 SCF Done:  E(RB3LYP) =  -423.210863889     A.U. after    1 cycles

 The electronic state is 1-A.
 Alpha  occ. eigenvalues --  -19.14561 -19.13646 -10.27201 -10.23612 -10.19904
 Alpha  occ. eigenvalues --  -10.19661 -10.19212 -10.18786 -10.18596  -1.05963
 Alpha  occ. eigenvalues --   -1.01757  -0.86359  -0.78125  -0.69813  -0.66701
 Alpha  occ. eigenvalues --   -0.62336  -0.57178  -0.53471  -0.50772  -0.47832
 Alpha  occ. eigenvalues --   -0.46541  -0.46134  -0.43467  -0.42039  -0.39896
 Alpha  occ. eigenvalues --   -0.38695  -0.36997  -0.35598  -0.34800  -0.33510
 Alpha  occ. eigenvalues --   -0.32616  -0.31362  -0.25999  -0.24659
 Alpha virt. eigenvalues --   -0.02836   0.07725   0.08239   0.11554   0.12217
 Alpha virt. eigenvalues --    0.12508   0.14066   0.15437   0.16273   0.16787
 Alpha virt. eigenvalues --    0.18499   0.18989   0.20570   0.20906   0.23042

 Mulliken charges:
               1
     1  O   -0.486273
     2  C    0.344381
     3  C   -0.290911
     4  C   -0.231729
     5  C   -0.058438
     6  C   -0.239109
     7  C   -0.325104
     8  C    0.339961
     9  O   -0.337804
    10  H    0.286964
    11  H    0.122647
    12  H    0.101510
    13  H    0.108768
    14  H    0.097954
    15  H    0.084226
    16  H    0.114123
    17  H    0.106851
    18  H    0.129848
    19  H    0.132134
 Sum of Mulliken charges =   0.00000

 Dipole moment (field-independent basis, Debye):
    X=              1.8437    Y=              1.6985    Z=             -0.5308  Tot=              2.5624
 Quadrupole moment (field-independent basis, Debye-Ang):
   XX=            -57.0158   YY=            -52.5696   ZZ=            -53.3167
   XY=             -0.1670   XZ=             -1.5381   YZ=              1.4303

  Exact polarizability:  81.103   0.840  76.846  -0.291   0.536  64.965
 Approx polarizability: 120.982   5.241 107.418   0.402  -2.253  99.212

                      1                      2                      3
                      A                      A                      A
 Frequencies --     70.7645               148.4417               211.6920
 Red. masses --      3.4913                 2.3951                 2.4216
 Frc consts  --      0.0103                 0.0311                 0.0639
 IR Inten    --      0.7998                 0.8194                 2.2034

                      4                      5                      6
                      A                      A                      A
 Frequencies --    276.3072               313.3437               385.1227
 Red. masses --      3.3857                 5.1161                 2.2170
 Frc consts  --      0.1523                 0.2960                 0.1937
 IR Inten    --      6.3252                13.7331                26.1116

                      7                      8                      9
                      A                      A                      A
 Frequencies --    439.7633               477.7625               488.1053
 Red. masses --      1.2352                 2.7812                 3.5974
 Frc consts  --      0.1407                 0.3740                 0.5050
 IR Inten    --     31.3284                 7.3278                10.9576

                     10                     11                     12
                      A                      A                      A
 Frequencies --    577.5857               646.1794               688.8751
 Red. masses --      2.3694                 4.0579                 4.0038
 Frc consts  --      0.4657                 0.9983                 1.1195
 IR Inten    --      1.6613                 3.3008                 6.5712

                     13                     14                     15
                      A                      A                      A
 Frequencies --    718.8900               798.2832               814.0321
 Red. masses --      1.6572                 1.9334                 2.1297
 Frc consts  --      0.5046                 0.7259                 0.8315
 IR Inten    --      3.9569                 2.3776                 0.7684

                     16                     17                     18
                      A                      A                      A
 Frequencies --    827.1913               912.2716               940.6078
 Red. masses --      1.9332                 2.0859                 2.2078
 Frc consts  --      0.7794                 1.0228                 1.1509
 IR Inten    --      4.6644                 1.0317                 1.1060

                     19                     20                     21
                      A                      A                      A
 Frequencies --    947.1124               976.3088              1026.0963
 Red. masses --      2.3772                 2.1408                 2.1304
 Frc consts  --      1.2563                 1.2023                 1.3216
 IR Inten    --      0.3663                 3.1026                 6.5278

                     22                     23                     24
                      A                      A                      A
 Frequencies --   1050.0689              1059.4458              1105.2783
 Red. masses --      1.8585                 2.8419                 1.6588
 Frc consts  --      1.2074                 1.8794                 1.1939
 IR Inten    --      1.5587                27.9546                36.1862

                     25                     26                     27
                      A                      A                      A
 Frequencies --   1126.8903              1161.3159              1189.6494
 Red. masses --      2.1686                 1.9622                 1.7406
 Frc consts  --      1.6225                 1.5592                 1.4514
 IR Inten    --     44.1500                30.6663                38.5781

                     28                     29                     30
                      A                      A                      A
 Frequencies --   1217.0394              1231.7922              1238.1954
 Red. masses --      1.4982                 1.3996                 1.4498
 Frc consts  --      1.3075                 1.2512                 1.3096
 IR Inten    --      8.2048                 1.4060                 2.1726

                     31                     32                     33
                      A                      A                      A
 Frequencies --   1266.7894              1282.6144              1315.0941
 Red. masses --      1.4540                 1.3541                 1.6194
 Frc consts  --      1.3747                 1.3125                 1.6502
 IR Inten    --      0.1262                 9.1582                 0.5860

                     34                     35                     36
                      A                      A                      A
 Frequencies --   1326.1276              1350.8176              1402.2059
 Red. masses --      1.7790                 1.7698                 1.4405
 Frc consts  --      1.8433                 1.9027                 1.6687
 IR Inten    --      8.8883                19.4154                67.1377

                     37                     38                     39
                      A                      A                      A
 Frequencies --   1458.2487              1472.5977              1489.9668
 Red. masses --      1.0880                 1.0867                 1.1000
 Frc consts  --      1.3631                 1.3884                 1.4388
 IR Inten    --      9.4048                 1.6835                 3.7745

                     40                     41                     42
                      A                      A                      A
 Frequencies --   1496.4711              1829.2255              3031.4844
 Red. masses --      1.1096                12.3210                 1.0689
 Frc consts  --      1.4641                24.2902                 5.7878
 IR Inten    --      3.4819               190.1760                 3.3229

                     43                     44                     45
                      A                      A                      A
 Frequencies --   3042.7984              3055.4520              3063.1143
 Red. masses --      1.0607                 1.0598                 1.0624
 Frc consts  --      5.7862                 5.8296                 5.8731
 IR Inten    --     32.6705                29.3618                29.5584

                     46                     47                     48
                      A                      A                      A
 Frequencies --   3090.1230              3101.6323              3112.0803
 Red. masses --      1.1024                 1.0968                 1.0976
 Frc consts  --      6.2023                 6.2164                 6.2634
 IR Inten    --     21.7470                 7.3387                 9.4888

                     49                     50                     51
                      A                      A                      A
 Frequencies --   3123.2094              3126.4278              3705.8696
 Red. masses --      1.0956                 1.1039                 1.0651
 Frc consts  --      6.2965                 6.3573                 8.6182
 IR Inten    --     20.3329                27.1023                48.1903

 - Thermochemistry -
 -------------------
 Temperature   298.150 Kelvin.  Pressure   1.00000 Atm.
 Atom     1 has atomic number  8 and mass  15.99491

 Molecular mass:   126.06808 amu.
 Principal axes and moments of inertia in atomic units:
                           1         2         3
     Eigenvalues --   816.15311 961.333971328.74558
           X            0.99945  -0.02726  -0.01910
           Y            0.02779   0.99921   0.02835
           Z            0.01831  -0.02887   0.99942
 This molecule is an asymmetric top.
 Rotational symmetry number  1.
 Warning -- assumption of classical behavior for rotation
           may cause significant error
 Rotational temperatures (Kelvin)      0.10612     0.09010     0.06518
 Rotational constants (GHZ):           2.21128     1.87733     1.35823
 Zero-point vibrational energy     419929.7 (Joules/Mol)
                                  100.36560 (Kcal/Mol)
 Warning -- explicit consideration of  10 degrees of freedom as
           vibrations may cause significant error
 Vibrational temperatures:    101.81   213.57   304.58   397.54   450.83
          (Kelvin)            554.10   632.72   687.39   702.27   831.02
                              929.71   991.14  1034.32  1148.55  1171.21
                             1190.14  1312.55  1353.32  1362.68  1404.69
                             1476.32  1510.81  1524.30  1590.25  1621.34
                             1670.87  1711.64  1751.05  1772.27  1781.48
                             1822.63  1845.39  1892.12  1908.00  1943.52
                             2017.46  2098.09  2118.74  2143.73  2153.09
                             2631.84  4361.62  4377.90  4396.11  4407.13
                             4445.99  4462.55  4477.58  4493.60  4498.23
                             5331.91

 Zero-point correction=                           0.159943 (Hartree/Particle)
 Thermal correction to Energy=                    0.167927
 Thermal correction to Enthalpy=                  0.168871
 Thermal correction to Gibbs Free Energy=         0.127468
 Sum of electronic and zero-point Energies=           -423.050921
 Sum of electronic and thermal Energies=              -423.042937
 Sum of electronic and thermal Enthalpies=            -423.041993
 Sum of electronic and thermal Free Energies=         -423.083396

                     E (Thermal)             CV                S
                      KCal/Mol        Cal/Mol-Kelvin    Cal/Mol-Kelvin
 Total                  105.376             31.508             87.139
 Electronic               0.000              0.000              0.000
 Translational            0.889              2.981             40.409
 Rotational               0.889              2.981             28.435
 Vibrational            103.598             25.547             18.295
 Vibration     1          0.598              1.968              4.132
 Vibration     2          0.618              1.904              2.692
 Vibration     3          0.643              1.823              2.029
 Vibration     4          0.678              1.717              1.556
 Vibration     5          0.701              1.648              1.345
 Vibration     6          0.754              1.502              1.019
 Vibration     7          0.800              1.383              0.827
 Vibration     8          0.834              1.299              0.716
 Vibration     9          0.844              1.276              0.689
 Vibration    10          0.934              1.080              0.490

 Optimization completed.
    -- Stationary point found.
 Normal termination of Gaussian 09 at Mon Jan 27 19:37:45 2020.
