 Gaussian 09, Revision D.01,
 Gaussian 09:  ES64L-G09RevD.01 24-Apr-2013

 -----------------------------
 # b3lyp 6-31G(2df,p) opt Freq
 -----------------------------

 -----
 titel
 -----
 Symbolic Z-matrix:
 Charge =  0 Multiplicity = 1

 SCF Done:  E(RB3LYP) =  -423.167848083     A.U. after   13 cycles
 Optimization completed.
    -- Stationary point found.
 Normal termination of Gaussian 09 at Mon Jan 27 17:42:03 2020.

 ----------------------------------------------------------------------
 #N Geom=AllCheck Guess=TCheck SCRF=Check GenChk RB3LYP/6-31G(2df,p) Fr
 eq
 ----------------------------------------------------------------------

 Structure from the checkpoint file:  "/scratch/puck/g09_8e547e15-cd45-4f8b-8679-df54a518a6ab/Gau-167268.chk"
 -----
 titel
 -----
 Charge =  0 Multiplicity = 1

                         Standard orientation:
 ---------------------------------------------------------------------
 Center     Atomic      Atomic             Coordinates (Angstroms)
 Number     Number       Type             X           Y           Z
 ---------------------------------------------------------------------
      1          6           0       -2.658878   -0.802622   -0.226724
      2          6           0       -1.284251   -0.232874   -0.011381
      3          6           0       -0.047415   -1.110188   -0.150811
      4          6           0        1.116846   -0.118173   -0.185697
      5          6           0        2.515128   -0.521387   -0.358465
      6          8           0        2.016945   -0.138386    0.924815
      7          6           0        0.576510    1.249956   -0.612139
      8          6           0       -0.898259    1.164906   -0.277558
      9          8           0       -1.146496    0.715779    1.061280
     10          1           0       -2.876342   -1.579078    0.514915
     11          1           0       -3.417347   -0.021634   -0.131667
     12          1           0       -2.743111   -1.255840   -1.220244
     13          1           0        0.070173   -1.811912    0.679852
     14          1           0       -0.106533   -1.687906   -1.081946
     15          1           0        2.765138   -1.576481   -0.470721
     16          1           0        3.226583    0.168583   -0.812506
     17          1           0        1.094505    2.051032   -0.077826
     18          1           0        0.705096    1.414614   -1.689435
     19          1           0       -1.599844    1.901767   -0.662528
 ---------------------------------------------------------------------

 SCF Done:  E(RB3LYP) =  -423.167848083     A.U. after    1 cycles

 The electronic state is 1-A.
 Alpha  occ. eigenvalues --  -19.14433 -19.14349 -10.24280 -10.24013 -10.23303
 Alpha  occ. eigenvalues --  -10.22969 -10.18978 -10.18877 -10.18543  -1.07223
 Alpha  occ. eigenvalues --   -1.06255  -0.79984  -0.75529  -0.70943  -0.66211
 Alpha  occ. eigenvalues --   -0.62681  -0.56463  -0.56040  -0.50573  -0.47921
 Alpha  occ. eigenvalues --   -0.45834  -0.45015  -0.44112  -0.43066  -0.40543
 Alpha  occ. eigenvalues --   -0.39784  -0.36847  -0.36537  -0.35155  -0.34864
 Alpha  occ. eigenvalues --   -0.30504  -0.28054  -0.26077  -0.25874
 Alpha virt. eigenvalues --    0.08276   0.10040   0.10178   0.10953   0.12200
 Alpha virt. eigenvalues --    0.12784   0.13716   0.14592   0.15198   0.16582
 Alpha virt. eigenvalues --    0.17830   0.18150   0.19069   0.19589   0.20466

 Mulliken charges:
               1
     1  C   -0.486261
     2  C    0.413276
     3  C   -0.359568
     4  C    0.431703
     5  C   -0.254327
     6  O   -0.260649
     7  C   -0.325420
     8  C   -0.012715
     9  O   -0.293997
    10  H    0.130180
    11  H    0.130743
    12  H    0.119806
    13  H    0.124844
    14  H    0.103582
    15  H    0.108133
    16  H    0.108241
    17  H    0.128118
    18  H    0.105561
    19  H    0.088751
 Sum of Mulliken charges =   0.00000

 Dipole moment (field-independent basis, Debye):
    X=             -0.5217    Y=             -0.6887    Z=             -3.2876  Tot=              3.3993
 Quadrupole moment (field-independent basis, Debye-Ang):
   XX=            -51.5941   YY=            -49.9551   ZZ=            -56.4257
   XY=              0.4781   XZ=             -1.7825   YZ=             -1.7337

  Exact polarizability:  88.598   0.858  75.603  -2.127  -1.967  60.747
 Approx polarizability: 109.828   0.555 110.143  -2.371  -0.296 104.532

                      1                      2                      3
                      A                      A                      A
 Frequencies --     82.7241               182.2196               208.9405
 Red. masses --      3.7864                 1.3115                 1.8638
 Frc consts  --      0.0153                 0.0257                 0.0479
 IR Inten    --      0.1408                 0.5243                 0.1596

                      4                      5                      6
                      A                      A                      A
 Frequencies --    261.6241               317.0521               375.2471
 Red. masses --      2.4666                 2.7740                 2.2063
 Frc consts  --      0.0995                 0.1643                 0.1830
 IR Inten    --      0.3245                 1.1238                 2.7002

                      7                      8                      9
                      A                      A                      A
 Frequencies --    391.6217               408.5475               427.6740
 Red. masses --      2.5955                 3.2848                 2.8462
 Frc consts  --      0.2345                 0.3230                 0.3067
 IR Inten    --      1.8386                 8.6001                 9.3412

                     10                     11                     12
                      A                      A                      A
 Frequencies --    529.8107               620.6763               713.0040
 Red. masses --      3.8882                 4.1153                 4.8665
 Frc consts  --      0.6431                 0.9341                 1.4576
 IR Inten    --      6.2475                 1.7995                 5.8672

                     13                     14                     15
                      A                      A                      A
 Frequencies --    792.7832               822.1867               848.6835
 Red. masses --      5.1630                 3.3679                 2.8477
 Frc consts  --      1.9119                 1.3414                 1.2085
 IR Inten    --      5.3513                21.1742                11.5161

                     16                     17                     18
                      A                      A                      A
 Frequencies --    878.1727               902.0225               937.6977
 Red. masses --      1.6985                 3.2071                 1.4367
 Frc consts  --      0.7718                 1.5374                 0.7443
 IR Inten    --      5.1536                13.6970                 1.8761

                     19                     20                     21
                      A                      A                      A
 Frequencies --    960.5613               973.6353              1000.3681
 Red. masses --      1.8770                 3.0009                 1.7642
 Frc consts  --      1.0204                 1.6761                 1.0402
 IR Inten    --      3.5121                 8.8119                 9.5718

                     22                     23                     24
                      A                      A                      A
 Frequencies --   1031.3508              1085.2398              1113.9262
 Red. masses --      1.6944                 1.5235                 2.2055
 Frc consts  --      1.0619                 1.0572                 1.6124
 IR Inten    --      6.6111                 5.3266                11.8769

                     25                     26                     27
                      A                      A                      A
 Frequencies --   1127.8587              1162.5900              1178.5753
 Red. masses --      1.2862                 1.4207                 1.3434
 Frc consts  --      0.9640                 1.1314                 1.0995
 IR Inten    --      2.9462                 2.6735                 3.6047

                     28                     29                     30
                      A                      A                      A
 Frequencies --   1217.6495              1224.3033              1241.2983
 Red. masses --      1.5938                 2.0992                 1.5722
 Frc consts  --      1.3923                 1.8539                 1.4273
 IR Inten    --      7.4615                 2.9925                 8.3982

                     31                     32                     33
                      A                      A                      A
 Frequencies --   1286.7644              1307.1400              1321.6071
 Red. masses --      1.7660                 2.0702                 1.7641
 Frc consts  --      1.7228                 2.0841                 1.8154
 IR Inten    --      6.2146                 4.3360                18.3256

                     34                     35                     36
                      A                      A                      A
 Frequencies --   1410.9077              1425.2702              1451.4710
 Red. masses --      1.3922                 2.3381                 1.8886
 Frc consts  --      1.6329                 2.7983                 2.3443
 IR Inten    --     11.8124                 9.4868                12.6158

                     37                     38                     39
                      A                      A                      A
 Frequencies --   1463.0657              1472.7006              1487.4205
 Red. masses --      1.1651                 1.1434                 1.1263
 Frc consts  --      1.4695                 1.4611                 1.4681
 IR Inten    --      3.1140                 1.3122                 7.4940

                     40                     41                     42
                      A                      A                      A
 Frequencies --   1499.9803              1534.5572              3030.3030
 Red. masses --      1.2510                 1.4348                 1.0595
 Frc consts  --      1.6584                 1.9906                 5.7320
 IR Inten    --      1.8093                 3.3172                 9.7579

                     43                     44                     45
                      A                      A                      A
 Frequencies --   3033.8885              3036.5442              3071.1773
 Red. masses --      1.0576                 1.0482                 1.0504
 Frc consts  --      5.7357                 5.6943                 5.8373
 IR Inten    --     27.9726                26.4260                30.6450

                     46                     47                     48
                      A                      A                      A
 Frequencies --   3094.6380              3097.7496              3099.2721
 Red. masses --      1.0988                 1.0997                 1.0982
 Frc consts  --      6.2000                 6.2175                 6.2150
 IR Inten    --      0.8217                23.9011                11.5867

                     49                     50                     51
                      A                      A                      A
 Frequencies --   3122.3313              3138.0699              3153.6296
 Red. masses --      1.1010                 1.0909                 1.1190
 Frc consts  --      6.3242                 6.3293                 6.5572
 IR Inten    --     13.2588                32.7353                24.5632

 - Thermochemistry -
 -------------------
 Temperature   298.150 Kelvin.  Pressure   1.00000 Atm.
 Atom     1 has atomic number  6 and mass  12.00000

 Molecular mass:   126.06808 amu.
 Principal axes and moments of inertia in atomic units:
                           1         2         3
     Eigenvalues --   500.439991402.899291565.24387
           X            0.99983   0.01760  -0.00574
           Y           -0.01781   0.99906  -0.03963
           Z            0.00504   0.03972   0.99920
 This molecule is an asymmetric top.
 Rotational symmetry number  1.
 Warning -- assumption of classical behavior for rotation
           may cause significant error
 Rotational temperatures (Kelvin)      0.17308     0.06174     0.05534
 Rotational constants (GHZ):           3.60631     1.28644     1.15301
 Zero-point vibrational energy     416040.5 (Joules/Mol)
                                   99.43605 (Kcal/Mol)
 Warning -- explicit consideration of  11 degrees of freedom as
           vibrations may cause significant error
 Vibrational temperatures:    119.02   262.17   300.62   376.42   456.17
          (Kelvin)            539.90   563.46   587.81   615.33   762.28
                              893.01  1025.85  1140.64  1182.94  1221.06
                             1263.49  1297.81  1349.14  1382.03  1400.84
                             1439.30  1483.88  1561.42  1602.69  1622.74
                             1672.71  1695.70  1751.92  1761.50  1785.95
                             1851.36  1880.68  1901.50  2029.98  2050.64
                             2088.34  2105.02  2118.89  2140.06  2158.13
                             2207.88  4359.92  4365.08  4368.90  4418.73
                             4452.49  4456.97  4459.16  4492.33  4514.98
                             4537.36

 Zero-point correction=                           0.158461 (Hartree/Particle)
 Thermal correction to Energy=                    0.166527
 Thermal correction to Enthalpy=                  0.167472
 Thermal correction to Gibbs Free Energy=         0.126064
 Sum of electronic and zero-point Energies=           -423.009387
 Sum of electronic and thermal Energies=              -423.001321
 Sum of electronic and thermal Enthalpies=            -423.000376
 Sum of electronic and thermal Free Energies=         -423.041784

                     E (Thermal)             CV                S
                      KCal/Mol        Cal/Mol-Kelvin    Cal/Mol-Kelvin
 Total                  104.498             31.671             87.149
 Electronic               0.000              0.000              0.000
 Translational            0.889              2.981             40.409
 Rotational               0.889              2.981             28.487
 Vibrational            102.720             25.710             18.253
 Vibration     1          0.600              1.961              3.825
 Vibration     2          0.630              1.864              2.306
 Vibration     3          0.642              1.827              2.053
 Vibration     4          0.669              1.743              1.651
 Vibration     5          0.704              1.641              1.325
 Vibration     6          0.746              1.523              1.058
 Vibration     7          0.759              1.488              0.994
 Vibration     8          0.773              1.452              0.932
 Vibration     9          0.789              1.410              0.866
 Vibration    10          0.885              1.184              0.588
 Vibration    11          0.981              0.988              0.415

 Optimization completed.
    -- Stationary point found.
 Normal termination of Gaussian 09 at Mon Jan 27 18:28:17 2020.
