 Gaussian 09, Revision D.01,
 Gaussian 09:  ES64L-G09RevD.01 24-Apr-2013

 -----------------------------
 # b3lyp 6-31G(2df,p) opt Freq
 -----------------------------

 -----
 titel
 -----
 Symbolic Z-matrix:
 Charge =  0 Multiplicity = 1

 SCF Done:  E(RB3LYP) =  -423.180916140     A.U. after   13 cycles
 Optimization completed.
    -- Stationary point found.
 Normal termination of Gaussian 09 at Tue Jan 28 00:06:26 2020.

 ----------------------------------------------------------------------
 #N Geom=AllCheck Guess=TCheck SCRF=Check GenChk RB3LYP/6-31G(2df,p) Fr
 eq
 ----------------------------------------------------------------------

 Structure from the checkpoint file:  "/scratch/puck/g09_4bae07a8-be07-45f1-8699-214be2a84e4e/Gau-21337.chk"
 -----
 titel
 -----
 Charge =  0 Multiplicity = 1

                         Standard orientation:
 ---------------------------------------------------------------------
 Center     Atomic      Atomic             Coordinates (Angstroms)
 Number     Number       Type             X           Y           Z
 ---------------------------------------------------------------------
      1          8           0       -1.606573    1.451168    0.434048
      2          6           0       -0.657841    0.855992   -0.440230
      3          6           0        0.657262    1.584497   -0.310405
      4          6           0        1.747547    0.895495    0.023766
      5          6           0        1.599308   -0.589206    0.273290
      6          6           0        0.349298   -0.801240    1.189334
      7          6           0       -0.471409   -0.638023   -0.114752
      8          8           0       -1.746659   -1.223991   -0.237529
      9          6           0        0.751887   -1.202381   -0.887922
     10          1           0       -2.376381    0.869248    0.413953
     11          1           0       -1.020933    0.921536   -1.481572
     12          1           0        0.659435    2.654360   -0.489890
     13          1           0        2.721450    1.364817    0.121501
     14          1           0        2.530995   -1.081975    0.548698
     15          1           0        0.296783   -1.830314    1.562207
     16          1           0        0.171396   -0.090277    1.997301
     17          1           0       -1.710824   -2.113008    0.129015
     18          1           0        0.757244   -2.297446   -0.868642
     19          1           0        0.940370   -0.845158   -1.903207
 ---------------------------------------------------------------------

 SCF Done:  E(RB3LYP) =  -423.180916140     A.U. after    1 cycles

 The electronic state is 1-A.
 Alpha  occ. eigenvalues --  -19.14872 -19.12426 -10.23732 -10.22730 -10.19639
 Alpha  occ. eigenvalues --  -10.18340 -10.18289 -10.18179 -10.17559  -1.03709
 Alpha  occ. eigenvalues --   -1.00285  -0.87004  -0.75917  -0.71028  -0.66458
 Alpha  occ. eigenvalues --   -0.60210  -0.59606  -0.52716  -0.50413  -0.49452
 Alpha  occ. eigenvalues --   -0.47499  -0.42812  -0.42357  -0.41702  -0.40061
 Alpha  occ. eigenvalues --   -0.38922  -0.37556  -0.34533  -0.33362  -0.30794
 Alpha  occ. eigenvalues --   -0.30308  -0.26993  -0.25892  -0.24208
 Alpha virt. eigenvalues --    0.01155   0.06899   0.09182   0.12719   0.12860
 Alpha virt. eigenvalues --    0.13503   0.14861   0.16378   0.16768   0.17880
 Alpha virt. eigenvalues --    0.19180   0.19597   0.20977   0.21309   0.23214

 Mulliken charges:
               1
     1  O   -0.454577
     2  C    0.087750
     3  C   -0.080595
     4  C   -0.061005
     5  C   -0.073244
     6  C   -0.279002
     7  C    0.366958
     8  O   -0.508624
     9  C   -0.280718
    10  H    0.286877
    11  H    0.073178
    12  H    0.099461
    13  H    0.092041
    14  H    0.066965
    15  H    0.081340
    16  H    0.115706
    17  H    0.279307
    18  H    0.086968
    19  H    0.101215
 Sum of Mulliken charges =   0.00000

 Dipole moment (field-independent basis, Debye):
    X=              0.8839    Y=             -2.1738    Z=             -0.0013  Tot=              2.3466
 Quadrupole moment (field-independent basis, Debye-Ang):
   XX=            -51.8179   YY=            -50.8567   ZZ=            -54.2929
   XY=              2.9481   XZ=             -0.3517   YZ=             -3.0503

  Exact polarizability:  82.404  -1.234  80.456   1.585  -3.247  62.908
 Approx polarizability: 124.670  -7.234 117.141   4.631  -5.019  97.203

                      1                      2                      3
                      A                      A                      A
 Frequencies --    146.7888               256.7487               282.6023
 Red. masses --      4.5908                 2.9742                 1.3904
 Frc consts  --      0.0583                 0.1155                 0.0654
 IR Inten    --      1.8506                 7.1724                53.0647

                      4                      5                      6
                      A                      A                      A
 Frequencies --    328.1712               362.0887               384.7338
 Red. masses --      2.8406                 2.3618                 2.1908
 Frc consts  --      0.1802                 0.1824                 0.1911
 IR Inten    --     21.1108                 9.9604                14.1903

                      7                      8                      9
                      A                      A                      A
 Frequencies --    425.6273               437.8838               475.8239
 Red. masses --      1.4423                 2.4572                 3.0963
 Frc consts  --      0.1539                 0.2776                 0.4130
 IR Inten    --     67.0779                30.2126                 5.7526

                     10                     11                     12
                      A                      A                      A
 Frequencies --    510.2153               590.0339               666.6463
 Red. masses --      2.8197                 4.3665                 3.0135
 Frc consts  --      0.4325                 0.8957                 0.7891
 IR Inten    --      9.5991                 8.9947                 3.4928

                     13                     14                     15
                      A                      A                      A
 Frequencies --    712.3854               749.2676               849.1795
 Red. masses --      3.5214                 1.6487                 2.0747
 Frc consts  --      1.0529                 0.5453                 0.8815
 IR Inten    --      4.2083                13.4749                 0.7951

                     16                     17                     18
                      A                      A                      A
 Frequencies --    861.9168               898.5296               937.6729
 Red. masses --      2.4664                 3.0610                 2.2999
 Frc consts  --      1.0796                 1.4561                 1.1914
 IR Inten    --      2.4469                16.0507                 6.2731

                     19                     20                     21
                      A                      A                      A
 Frequencies --    945.0135               969.2995               986.6731
 Red. masses --      2.0890                 2.1884                 1.4920
 Frc consts  --      1.0992                 1.2114                 0.8558
 IR Inten    --      1.5160                14.2094                 1.8093

                     22                     23                     24
                      A                      A                      A
 Frequencies --   1011.0458              1066.9946              1068.3108
 Red. masses --      2.1091                 2.2970                 1.1624
 Frc consts  --      1.2702                 1.5408                 0.7817
 IR Inten    --      8.8208                25.1841                 1.5635

                     25                     26                     27
                      A                      A                      A
 Frequencies --   1098.0797              1103.2460              1146.3139
 Red. masses --      1.5703                 4.0258                 1.2192
 Frc consts  --      1.1156                 2.8870                 0.9439
 IR Inten    --      1.5016                79.9103                79.5495

                     28                     29                     30
                      A                      A                      A
 Frequencies --   1164.9244              1179.8497              1190.4901
 Red. masses --      1.4016                 1.2451                 2.9014
 Frc consts  --      1.1206                 1.0212                 2.4228
 IR Inten    --      6.3868                 3.5027                58.8962

                     31                     32                     33
                      A                      A                      A
 Frequencies --   1239.1349              1248.7619              1279.2422
 Red. masses --      1.3039                 1.4091                 1.6916
 Frc consts  --      1.1796                 1.2947                 1.6310
 IR Inten    --     31.1920                27.6943                34.3702

                     34                     35                     36
                      A                      A                      A
 Frequencies --   1335.7706              1364.0452              1370.6547
 Red. masses --      1.4566                 1.2973                 1.6861
 Frc consts  --      1.5312                 1.4222                 1.8663
 IR Inten    --      4.1828                31.8542                29.3926

                     37                     38                     39
                      A                      A                      A
 Frequencies --   1405.0775              1435.6718              1471.2895
 Red. masses --      1.7847                 1.7033                 1.0945
 Frc consts  --      2.0759                 2.0685                 1.3960
 IR Inten    --      9.9995                18.1166                 2.7127

                     40                     41                     42
                      A                      A                      A
 Frequencies --   1503.5475              1701.7350              2939.5115
 Red. masses --      1.1481                 6.5994                 1.0809
 Frc consts  --      1.5292                11.2600                 5.5027
 IR Inten    --      3.3541                 2.0565                53.5201

                     43                     44                     45
                      A                      A                      A
 Frequencies --   3039.0405              3047.1482              3109.0438
 Red. masses --      1.0603                 1.0610                 1.1061
 Frc consts  --      5.7699                 5.8041                 6.2996
 IR Inten    --     31.6949                45.2087                22.6498

                     46                     47                     48
                      A                      A                      A
 Frequencies --   3114.0760              3128.4156              3170.6155
 Red. masses --      1.0894                 1.1029                 1.0855
 Frc consts  --      6.2245                 6.3595                 6.4295
 IR Inten    --     42.3298                18.1431                10.3378

                     49                     50                     51
                      A                      A                      A
 Frequencies --   3195.9105              3786.0375              3823.0949
 Red. masses --      1.0996                 1.0651                 1.0660
 Frc consts  --      6.6173                 8.9949                 9.1803
 IR Inten    --     21.5268                31.0152                21.5022

 - Thermochemistry -
 -------------------
 Temperature   298.150 Kelvin.  Pressure   1.00000 Atm.
 Atom     1 has atomic number  8 and mass  15.99491

 Molecular mass:   126.06808 amu.
 Principal axes and moments of inertia in atomic units:
                           1         2         3
     Eigenvalues --   766.67443 903.412411322.28835
           X            0.99999   0.00479   0.00037
           Y           -0.00478   0.99978  -0.02062
           Z           -0.00047   0.02062   0.99979
 This molecule is an asymmetric top.
 Rotational symmetry number  1.
 Warning -- assumption of classical behavior for rotation
           may cause significant error
 Rotational temperatures (Kelvin)      0.11297     0.09587     0.06550
 Rotational constants (GHZ):           2.35399     1.99769     1.36486
 Zero-point vibrational energy     421769.7 (Joules/Mol)
                                  100.80537 (Kcal/Mol)
 Warning -- explicit consideration of  11 degrees of freedom as
           vibrations may cause significant error
 Vibrational temperatures:    211.20   369.40   406.60   472.16   520.96
          (Kelvin)            553.55   612.38   630.02   684.60   734.09
                              848.93   959.15  1024.96  1078.03  1221.78
                             1240.10  1292.78  1349.10  1359.66  1394.60
                             1419.60  1454.67  1535.17  1537.06  1579.89
                             1587.32  1649.29  1676.06  1697.54  1712.85
                             1782.84  1796.69  1840.54  1921.87  1962.55
                             1972.06  2021.59  2065.61  2116.85  2163.27
                             2448.41  4229.30  4372.50  4384.16  4473.21
                             4480.46  4501.09  4561.80  4598.20  5447.26
                             5500.57

 Zero-point correction=                           0.160644 (Hartree/Particle)
 Thermal correction to Energy=                    0.168281
 Thermal correction to Enthalpy=                  0.169226
 Thermal correction to Gibbs Free Energy=         0.129249
 Sum of electronic and zero-point Energies=           -423.020273
 Sum of electronic and thermal Energies=              -423.012635
 Sum of electronic and thermal Enthalpies=            -423.011690
 Sum of electronic and thermal Free Energies=         -423.051667

                     E (Thermal)             CV                S
                      KCal/Mol        Cal/Mol-Kelvin    Cal/Mol-Kelvin
 Total                  105.598             31.864             84.138
 Electronic               0.000              0.000              0.000
 Translational            0.889              2.981             40.409
 Rotational               0.889              2.981             28.306
 Vibrational            103.821             25.902             15.423
 Vibration     1          0.617              1.906              2.713
 Vibration     2          0.666              1.751              1.684
 Vibration     3          0.682              1.706              1.518
 Vibration     4          0.711              1.619              1.269
 Vibration     5          0.736              1.550              1.113
 Vibration     6          0.754              1.503              1.020
 Vibration     7          0.787              1.414              0.873
 Vibration     8          0.798              1.388              0.833
 Vibration     9          0.832              1.304              0.721
 Vibration    10          0.865              1.227              0.633
 Vibration    11          0.947              1.053              0.467

 Optimization completed.
    -- Stationary point found.
 Normal termination of Gaussian 09 at Tue Jan 28 00:59:31 2020.
