 Gaussian 09, Revision D.01,
 Gaussian 09:  ES64L-G09RevD.01 24-Apr-2013

 -----------------------------
 # b3lyp 6-31G(2df,p) opt Freq
 -----------------------------

 -----
 titel
 -----
 Symbolic Z-matrix:
 Charge =  0 Multiplicity = 1

 SCF Done:  E(RB3LYP) =  -423.203807887     A.U. after   14 cycles
 SCF Done:  E(RB3LYP) =  -423.203808360     A.U. after    7 cycles
 SCF Done:  E(RB3LYP) =  -423.203808161     A.U. after    8 cycles
 SCF Done:  E(RB3LYP) =  -423.203808608     A.U. after    7 cycles
 SCF Done:  E(RB3LYP) =  -423.203808722     A.U. after    7 cycles
 SCF Done:  E(RB3LYP) =  -423.203808835     A.U. after    8 cycles
 SCF Done:  E(RB3LYP) =  -423.203808854     A.U. after    7 cycles
 SCF Done:  E(RB3LYP) =  -423.203808851     A.U. after    7 cycles
 Optimization completed.
    -- Stationary point found.
 Normal termination of Gaussian 09 at Thu Jan 30 16:07:07 2020.

 ----------------------------------------------------------------------
 #N Geom=AllCheck Guess=TCheck SCRF=Check GenChk RB3LYP/6-31G(2df,p) Fr
 eq
 ----------------------------------------------------------------------

 Structure from the checkpoint file:  "/scratch/puck/g09_71497f83-cb35-48a9-af9a-0a1d538d996c/Gau-74174.chk"
 -----
 titel
 -----
 Charge =  0 Multiplicity = 1

                         Standard orientation:
 ---------------------------------------------------------------------
 Center     Atomic      Atomic             Coordinates (Angstroms)
 Number     Number       Type             X           Y           Z
 ---------------------------------------------------------------------
      1          6           0       -1.932128    1.147067   -0.622488
      2          6           0       -1.010705    0.168534    0.063907
      3          6           0       -1.567211   -0.995230    0.842654
      4          6           0       -0.811346   -1.266697   -0.433454
      5          6           0        0.656640   -1.654236   -0.324547
      6          6           0        1.361782   -0.346963    0.031038
      7          8           0        2.510302   -0.053783   -0.188281
      8          6           0        0.343164    0.676958    0.574857
      9          8           0        0.671756    1.967228    0.122548
     10          1           0       -1.419861    1.664125   -1.437739
     11          1           0       -2.803814    0.627193   -1.032632
     12          1           0       -2.292211    1.910514    0.075560
     13          1           0       -1.100367   -1.266792    1.787255
     14          1           0       -2.643243   -1.135052    0.827673
     15          1           0       -1.367469   -1.621508   -1.293900
     16          1           0        0.855982   -2.410354    0.445604
     17          1           0        1.072915   -2.036908   -1.260374
     18          1           0        0.376752    0.639377    1.678894
     19          1           0        1.623678    1.945247   -0.056273
 ---------------------------------------------------------------------

 SCF Done:  E(RB3LYP) =  -423.203808851     A.U. after    1 cycles

 The electronic state is 1-A.
 Alpha  occ. eigenvalues --  -19.14925 -19.13826 -10.27682 -10.23883 -10.20369
 Alpha  occ. eigenvalues --  -10.20149 -10.20042 -10.19206 -10.17734  -1.06326
 Alpha  occ. eigenvalues --   -1.01872  -0.88999  -0.75992  -0.72295  -0.69302
 Alpha  occ. eigenvalues --   -0.59633  -0.56257  -0.54853  -0.50565  -0.48515
 Alpha  occ. eigenvalues --   -0.47092  -0.45048  -0.44054  -0.43160  -0.40592
 Alpha  occ. eigenvalues --   -0.39236  -0.37321  -0.37036  -0.36804  -0.34247
 Alpha  occ. eigenvalues --   -0.29812  -0.28694  -0.26616  -0.25053
 Alpha virt. eigenvalues --   -0.02895   0.08853   0.09778   0.10192   0.10997
 Alpha virt. eigenvalues --    0.12914   0.14477   0.15155   0.16119   0.16949
 Alpha virt. eigenvalues --    0.17729   0.18935   0.19976   0.21166   0.23392

 Mulliken charges:
               1
     1  C   -0.467727
     2  C    0.307904
     3  C   -0.327179
     4  C   -0.084137
     5  C   -0.354216
     6  C    0.374445
     7  O   -0.319016
     8  C   -0.017872
     9  O   -0.440099
    10  H    0.132109
    11  H    0.107974
    12  H    0.125484
    13  H    0.105237
    14  H    0.114774
    15  H    0.092688
    16  H    0.132491
    17  H    0.137940
    18  H    0.086735
    19  H    0.292463
 Sum of Mulliken charges =   0.00000

 Dipole moment (field-independent basis, Debye):
    X=             -1.6168    Y=             -1.7419    Z=              0.2061  Tot=              2.3855
 Quadrupole moment (field-independent basis, Debye-Ang):
   XX=            -57.1811   YY=            -54.5793   ZZ=            -51.3402
   XY=              0.7531   XZ=              1.0573   YZ=             -0.2123

  Exact polarizability:  83.297   0.737  77.820  -2.143  -0.244  63.654
 Approx polarizability: 119.401   4.153 111.817  -5.728  -0.392  98.969

                      1                      2                      3
                      A                      A                      A
 Frequencies --     41.3087               173.6362               200.0134
 Red. masses --      5.2964                 1.5960                 1.4296
 Frc consts  --      0.0053                 0.0284                 0.0337
 IR Inten    --      1.1111                 1.5537                 0.9125

                      4                      5                      6
                      A                      A                      A
 Frequencies --    261.2388               275.3610               324.9542
 Red. masses --      2.9859                 4.0867                 2.7679
 Frc consts  --      0.1201                 0.1826                 0.1722
 IR Inten    --      6.7305                12.4771                 3.9611

                      7                      8                      9
                      A                      A                      A
 Frequencies --    385.3552               412.6587               437.6472
 Red. masses --      2.8222                 1.2901                 2.4731
 Frc consts  --      0.2469                 0.1294                 0.2791
 IR Inten    --      2.6314                57.4557                 7.3336

                     10                     11                     12
                      A                      A                      A
 Frequencies --    481.3369               519.0465               633.7328
 Red. masses --      2.6323                 3.9964                 3.9468
 Frc consts  --      0.3593                 0.6343                 0.9339
 IR Inten    --     16.6764                 1.3201                 6.2085

                     13                     14                     15
                      A                      A                      A
 Frequencies --    645.4383               755.6144               776.1169
 Red. masses --      4.3085                 2.8013                 3.2584
 Frc consts  --      1.0575                 0.9423                 1.1564
 IR Inten    --      1.0562                 2.9332                 2.7946

                     16                     17                     18
                      A                      A                      A
 Frequencies --    827.2614               875.6052               891.7329
 Red. masses --      2.1397                 1.5308                 2.6607
 Frc consts  --      0.8628                 0.6915                 1.2466
 IR Inten    --      5.0480                 3.3674                 3.4231

                     19                     20                     21
                      A                      A                      A
 Frequencies --    939.7876               981.0988              1026.5946
 Red. masses --      1.4839                 1.6197                 2.5317
 Frc consts  --      0.7722                 0.9185                 1.5720
 IR Inten    --      1.4455                 8.0246                 8.4533

                     22                     23                     24
                      A                      A                      A
 Frequencies --   1041.3707              1066.8527              1106.2891
 Red. masses --      1.5103                 1.2963                 2.3148
 Frc consts  --      0.9650                 0.8693                 1.6692
 IR Inten    --     25.3572                 0.1930                13.6946

                     25                     26                     27
                      A                      A                      A
 Frequencies --   1111.4006              1127.0033              1171.4682
 Red. masses --      1.7170                 2.2464                 2.3425
 Frc consts  --      1.2496                 1.6811                 1.8941
 IR Inten    --     28.9486                50.2650                22.1044

                     28                     29                     30
                      A                      A                      A
 Frequencies --   1192.2676              1242.8601              1264.3616
 Red. masses --      1.6837                 1.3304                 1.8950
 Frc consts  --      1.4102                 1.2108                 1.7849
 IR Inten    --     31.6374                17.7770                 0.8687

                     31                     32                     33
                      A                      A                      A
 Frequencies --   1280.1287              1309.3956              1354.2401
 Red. masses --      1.7658                 2.1045                 1.3160
 Frc consts  --      1.7049                 2.1259                 1.4220
 IR Inten    --      6.2483                 6.0616                20.4323

                     34                     35                     36
                      A                      A                      A
 Frequencies --   1384.6696              1415.6569              1420.7867
 Red. masses --      1.8213                 1.3235                 1.6624
 Frc consts  --      2.0575                 1.5628                 1.9771
 IR Inten    --      6.5585                19.0955                19.0851

                     37                     38                     39
                      A                      A                      A
 Frequencies --   1451.9543              1482.0913              1491.3179
 Red. masses --      1.0915                 1.0548                 1.2385
 Frc consts  --      1.3558                 1.3651                 1.6229
 IR Inten    --      7.4903                 3.8138                 3.1470

                     40                     41                     42
                      A                      A                      A
 Frequencies --   1501.8214              1834.3999              2930.6217
 Red. masses --      1.0898                12.5699                 1.0798
 Frc consts  --      1.4482                24.9213                 5.4638
 IR Inten    --      5.0542               194.6190                39.1667

                     43                     44                     45
                      A                      A                      A
 Frequencies --   3033.1305              3035.3157              3097.7310
 Red. masses --      1.0668                 1.0365                 1.0997
 Frc consts  --      5.7824                 5.6264                 6.2175
 IR Inten    --     19.4403                23.5249                22.1976

                     46                     47                     48
                      A                      A                      A
 Frequencies --   3098.0236              3106.7916              3118.6841
 Red. masses --      1.0957                 1.0571                 1.1000
 Frc consts  --      6.1962                 6.0114                 6.3037
 IR Inten    --      3.1638                14.3215                16.8767

                     49                     50                     51
                      A                      A                      A
 Frequencies --   3171.5306              3197.8859              3720.9937
 Red. masses --      1.0914                 1.1127                 1.0652
 Frc consts  --      6.4680                 6.7043                 8.6898
 IR Inten    --      8.7916                12.3778                47.6118

 - Thermochemistry -
 -------------------
 Temperature   298.150 Kelvin.  Pressure   1.00000 Atm.
 Atom     1 has atomic number  6 and mass  12.00000

 Molecular mass:   126.06808 amu.
 Principal axes and moments of inertia in atomic units:
                           1         2         3
     Eigenvalues --   751.716841056.696151559.19677
           X            0.99950  -0.03033   0.00874
           Y            0.03042   0.99948  -0.01101
           Z           -0.00840   0.01127   0.99990
 This molecule is an asymmetric top.
 Rotational symmetry number  1.
 Warning -- assumption of classical behavior for rotation
           may cause significant error
 Rotational temperatures (Kelvin)      0.11522     0.08197     0.05555
 Rotational constants (GHZ):           2.40083     1.70791     1.15748
 Zero-point vibrational energy     416459.5 (Joules/Mol)
                                   99.53620 (Kcal/Mol)
 Warning -- explicit consideration of  11 degrees of freedom as
           vibrations may cause significant error
 Vibrational temperatures:     59.43   249.82   287.77   375.86   396.18
          (Kelvin)            467.54   554.44   593.72   629.68   692.54
                              746.79   911.80   928.64  1087.16  1116.66
                             1190.24  1259.80  1283.00  1352.14  1411.58
                             1477.04  1498.30  1534.96  1591.70  1599.06
                             1621.50  1685.48  1715.41  1788.20  1819.13
                             1841.82  1883.93  1948.45  1992.23  2036.81
                             2044.19  2089.04  2132.40  2145.67  2160.78
                             2639.29  4216.51  4363.99  4367.14  4456.94
                             4457.36  4469.97  4487.09  4563.12  4601.04
                             5353.67

 Zero-point correction=                           0.158621 (Hartree/Particle)
 Thermal correction to Energy=                    0.167159
 Thermal correction to Enthalpy=                  0.168103
 Thermal correction to Gibbs Free Energy=         0.125327
 Sum of electronic and zero-point Energies=           -423.045188
 Sum of electronic and thermal Energies=              -423.036650
 Sum of electronic and thermal Enthalpies=            -423.035706
 Sum of electronic and thermal Free Energies=         -423.078482

                     E (Thermal)             CV                S
                      KCal/Mol        Cal/Mol-Kelvin    Cal/Mol-Kelvin
 Total                  104.894             33.045             90.029
 Electronic               0.000              0.000              0.000
 Translational            0.889              2.981             40.409
 Rotational               0.889              2.981             28.606
 Vibrational            103.116             27.083             21.015
 Vibration     1          0.594              1.981              5.195
 Vibration     2          0.627              1.875              2.396
 Vibration     3          0.638              1.840              2.133
 Vibration     4          0.669              1.744              1.653
 Vibration     5          0.677              1.719              1.562
 Vibration     6          0.709              1.626              1.285
 Vibration     7          0.754              1.501              1.018
 Vibration     8          0.776              1.443              0.917
 Vibration     9          0.798              1.388              0.834
 Vibration    10          0.838              1.291              0.706
 Vibration    11          0.874              1.208              0.612

 Optimization completed.
    -- Stationary point found.
 Normal termination of Gaussian 09 at Thu Jan 30 16:42:38 2020.
