 Gaussian 09, Revision D.01,
 Gaussian 09:  ES64L-G09RevD.01 24-Apr-2013

 -----------------------------
 # b3lyp 6-31G(2df,p) opt Freq
 -----------------------------

 -----
 titel
 -----
 Symbolic Z-matrix:
 Charge =  0 Multiplicity = 1

 SCF Done:  E(RB3LYP) =  -423.171082992     A.U. after   14 cycles
 Optimization completed.
    -- Stationary point found.
 Normal termination of Gaussian 09 at Tue Jan 28 14:05:41 2020.

 ----------------------------------------------------------------------
 #N Geom=AllCheck Guess=TCheck SCRF=Check GenChk RB3LYP/6-31G(2df,p) Fr
 eq
 ----------------------------------------------------------------------

 Structure from the checkpoint file:  "/scratch/puck/g09_9367c750-ec9c-4ba3-a8a8-61ce0190a9d8/Gau-43835.chk"
 -----
 titel
 -----
 Charge =  0 Multiplicity = 1

                         Standard orientation:
 ---------------------------------------------------------------------
 Center     Atomic      Atomic             Coordinates (Angstroms)
 Number     Number       Type             X           Y           Z
 ---------------------------------------------------------------------
      1          6           0       -3.135684   -0.516901    0.316787
      2          6           0       -1.939003    0.435508    0.409002
      3          6           0       -0.778621    0.035785   -0.504206
      4          6           0        0.145034   -1.109591   -0.045010
      5          8           0        1.194498   -1.176468   -1.003370
      6          6           0        1.347162   -0.237370    0.090977
      7          6           0        2.582552   -0.287832    0.924522
      8          6           0        0.473449    0.951656   -0.310034
      9          8           0        0.617990    2.138077   -0.264560
     10          1           0       -3.945609   -0.192888    0.977365
     11          1           0       -3.530655   -0.555109   -0.703950
     12          1           0       -2.862333   -1.538050    0.603409
     13          1           0       -2.245910    1.452386    0.140147
     14          1           0       -1.586036    0.491144    1.447164
     15          1           0       -1.109481   -0.083950   -1.540431
     16          1           0       -0.094376   -2.003550    0.519117
     17          1           0        2.448212    0.291127    1.843094
     18          1           0        2.826730   -1.320672    1.186134
     19          1           0        3.430224    0.139155    0.379158
 ---------------------------------------------------------------------

 SCF Done:  E(RB3LYP) =  -423.171082992     A.U. after    1 cycles

 The electronic state is 1-A.
 Alpha  occ. eigenvalues --  -19.16790 -19.14333 -10.27381 -10.25241 -10.25175
 Alpha  occ. eigenvalues --  -10.20235 -10.19639 -10.19560 -10.18415  -1.09405
 Alpha  occ. eigenvalues --   -1.04957  -0.82114  -0.76580  -0.74324  -0.65173
 Alpha  occ. eigenvalues --   -0.63163  -0.59411  -0.51154  -0.49504  -0.48131
 Alpha  occ. eigenvalues --   -0.46657  -0.44273  -0.43502  -0.42482  -0.41064
 Alpha  occ. eigenvalues --   -0.39727  -0.38318  -0.37633  -0.36642  -0.35207
 Alpha  occ. eigenvalues --   -0.34272  -0.31185  -0.27806  -0.23732
 Alpha virt. eigenvalues --   -0.02308   0.07811   0.08830   0.10748   0.11346
 Alpha virt. eigenvalues --    0.12374   0.13376   0.14492   0.14968   0.16648
 Alpha virt. eigenvalues --    0.16985   0.17946   0.18376   0.19587   0.21395

 Mulliken charges:
               1
     1  C   -0.389473
     2  C   -0.189214
     3  C   -0.154778
     4  C   -0.047482
     5  O   -0.275577
     6  C    0.274328
     7  C   -0.512942
     8  C    0.377267
     9  O   -0.310221
    10  H    0.119776
    11  H    0.122324
    12  H    0.116644
    13  H    0.123757
    14  H    0.098303
    15  H    0.105955
    16  H    0.117894
    17  H    0.138393
    18  H    0.138027
    19  H    0.147019
 Sum of Mulliken charges =   0.00000

 Dipole moment (field-independent basis, Debye):
    X=             -0.9744    Y=             -1.8972    Z=              1.7170  Tot=              2.7380
 Quadrupole moment (field-independent basis, Debye-Ang):
   XX=            -49.7154   YY=            -59.5759   ZZ=            -53.1962
   XY=             -0.5609   XZ=              2.8035   YZ=             -1.6199

  Exact polarizability:  91.735   2.141  76.055   3.030  -0.139  61.795
 Approx polarizability: 114.776   5.440 125.417   1.150   3.292  97.205

                      1                      2                      3
                      A                      A                      A
 Frequencies --     76.1231               103.2094               140.4449
 Red. masses --      3.1288                 2.1882                 3.9552
 Frc consts  --      0.0107                 0.0137                 0.0460
 IR Inten    --      1.5947                 1.5307                 1.5428

                      4                      5                      6
                      A                      A                      A
 Frequencies --    159.5296               197.2820               234.7965
 Red. masses --      1.0781                 1.8088                 2.3242
 Frc consts  --      0.0162                 0.0415                 0.0755
 IR Inten    --      0.1699                 1.7400                 1.8862

                      7                      8                      9
                      A                      A                      A
 Frequencies --    264.5984               322.0400               348.9526
 Red. masses --      2.0361                 3.2598                 2.8307
 Frc consts  --      0.0840                 0.1992                 0.2031
 IR Inten    --      0.3123                 0.7182                 3.3717

                     10                     11                     12
                      A                      A                      A
 Frequencies --    482.1940               522.4293               597.0512
 Red. masses --      4.5764                 3.8285                 5.0955
 Frc consts  --      0.6269                 0.6156                 1.0702
 IR Inten    --      4.8840                13.3650                 2.0701

                     13                     14                     15
                      A                      A                      A
 Frequencies --    699.5090               749.8582               772.6018
 Red. masses --      3.5616                 3.6838                 1.4774
 Frc consts  --      1.0268                 1.2204                 0.5196
 IR Inten    --      0.3141                 0.9800                 1.9043

                     16                     17                     18
                      A                      A                      A
 Frequencies --    812.8087               865.3420               898.6254
 Red. masses --      4.7911                 2.9263                 2.0659
 Frc consts  --      1.8649                 1.2910                 0.9829
 IR Inten    --      6.8566                32.0620                21.5638

                     19                     20                     21
                      A                      A                      A
 Frequencies --    940.2492               958.4047              1011.7335
 Red. masses --      2.3733                 1.3886                 2.6039
 Frc consts  --      1.2362                 0.7515                 1.5704
 IR Inten    --     10.9656                 6.1488                13.7965

                     22                     23                     24
                      A                      A                      A
 Frequencies --   1033.4618              1068.7343              1090.7915
 Red. masses --      2.1656                 1.8934                 1.6500
 Frc consts  --      1.3627                 1.2742                 1.1567
 IR Inten    --      2.1507                 2.5850                16.5291

                     25                     26                     27
                      A                      A                      A
 Frequencies --   1122.3320              1131.5100              1197.9449
 Red. masses --      1.7839                 2.1806                 1.6230
 Frc consts  --      1.3239                 1.6449                 1.3723
 IR Inten    --      6.1214                 0.9807                 6.8716

                     28                     29                     30
                      A                      A                      A
 Frequencies --   1229.3619              1243.3338              1277.0893
 Red. masses --      2.0306                 1.7973                 1.4029
 Frc consts  --      1.8082                 1.6370                 1.3481
 IR Inten    --      3.1965                 8.1031                 2.8494

                     31                     32                     33
                      A                      A                      A
 Frequencies --   1336.4155              1376.7121              1396.9742
 Red. masses --      1.3820                 1.5197                 1.3661
 Frc consts  --      1.4543                 1.6970                 1.5708
 IR Inten    --      1.4018                10.0783                 1.0461

                     34                     35                     36
                      A                      A                      A
 Frequencies --   1414.1832              1445.8321              1477.7570
 Red. masses --      1.2296                 3.7162                 1.1042
 Frc consts  --      1.4489                 4.5771                 1.4206
 IR Inten    --      1.2698                 9.5093                 7.8854

                     37                     38                     39
                      A                      A                      A
 Frequencies --   1485.5716              1488.9757              1499.2096
 Red. masses --      1.0632                 1.0541                 1.0397
 Frc consts  --      1.3825                 1.3769                 1.3769
 IR Inten    --      1.1551                 5.0019                 5.6271

                     40                     41                     42
                      A                      A                      A
 Frequencies --   1504.6696              1886.0046              3023.8612
 Red. masses --      1.0682                12.9332                 1.0646
 Frc consts  --      1.4249                27.1044                 5.7355
 IR Inten    --      4.1267               249.5337                14.4710

                     43                     44                     45
                      A                      A                      A
 Frequencies --   3033.8977              3043.1469              3062.7400
 Red. masses --      1.0355                 1.0349                 1.0888
 Frc consts  --      5.6157                 5.6469                 6.0174
 IR Inten    --     25.3550                15.1329                 4.8217

                     46                     47                     48
                      A                      A                      A
 Frequencies --   3072.5568              3102.8992              3106.9843
 Red. masses --      1.0919                 1.1018                 1.1014
 Frc consts  --      6.0735                 6.2502                 6.2642
 IR Inten    --     13.0258                41.9807                30.1198

                     49                     50                     51
                      A                      A                      A
 Frequencies --   3110.2642              3125.7964              3191.1721
 Red. masses --      1.1007                 1.1021                 1.0940
 Frc consts  --      6.2734                 6.3442                 6.5643
 IR Inten    --     10.0643                 8.5101                 7.4535

 - Thermochemistry -
 -------------------
 Temperature   298.150 Kelvin.  Pressure   1.00000 Atm.
 Atom     1 has atomic number  6 and mass  12.00000

 Molecular mass:   126.06808 amu.
 Principal axes and moments of inertia in atomic units:
                           1         2         3
     Eigenvalues --   661.958291505.081501836.07997
           X            0.99988   0.00458   0.01460
           Y           -0.00429   0.99980  -0.01936
           Z           -0.01468   0.01929   0.99971
 This molecule is an asymmetric top.
 Rotational symmetry number  1.
 Warning -- assumption of classical behavior for rotation
           may cause significant error
 Rotational temperatures (Kelvin)      0.13084     0.05755     0.04717
 Rotational constants (GHZ):           2.72637     1.19910     0.98293
 Zero-point vibrational energy     411144.3 (Joules/Mol)
                                   98.26586 (Kcal/Mol)
 Warning -- explicit consideration of  12 degrees of freedom as
           vibrations may cause significant error
 Vibrational temperatures:    109.52   148.50   202.07   229.53   283.84
          (Kelvin)            337.82   380.70   463.34   502.06   693.77
                              751.66   859.02  1006.44  1078.88  1111.60
                             1169.45  1245.03  1292.92  1352.81  1378.93
                             1455.66  1486.92  1537.67  1569.40  1614.78
                             1627.99  1723.57  1768.78  1788.88  1837.44
                             1922.80  1980.78  2009.93  2034.69  2080.23
                             2126.16  2137.40  2142.30  2157.03  2164.88
                             2713.54  4350.66  4365.10  4378.40  4406.59
                             4420.72  4464.37  4470.25  4474.97  4497.32
                             4591.38

 Zero-point correction=                           0.156597 (Hartree/Particle)
 Thermal correction to Energy=                    0.165992
 Thermal correction to Enthalpy=                  0.166936
 Thermal correction to Gibbs Free Energy=         0.122161
 Sum of electronic and zero-point Energies=           -423.014486
 Sum of electronic and thermal Energies=              -423.005091
 Sum of electronic and thermal Enthalpies=            -423.004147
 Sum of electronic and thermal Free Energies=         -423.048922

                     E (Thermal)             CV                S
                      KCal/Mol        Cal/Mol-Kelvin    Cal/Mol-Kelvin
 Total                  104.162             34.100             94.237
 Electronic               0.000              0.000              0.000
 Translational            0.889              2.981             40.409
 Rotational               0.889              2.981             28.994
 Vibrational            102.384             28.138             24.835
 Vibration     1          0.599              1.965              3.988
 Vibration     2          0.605              1.947              3.393
 Vibration     3          0.615              1.913              2.798
 Vibration     4          0.621              1.892              2.555
 Vibration     5          0.637              1.844              2.158
 Vibration     6          0.655              1.788              1.842
 Vibration     7          0.671              1.738              1.631
 Vibration     8          0.707              1.631              1.300
 Vibration     9          0.726              1.577              1.171
 Vibration    10          0.838              1.290              0.704
 Vibration    11          0.877              1.200              0.604
 Vibration    12          0.955              1.038              0.455

 Optimization completed.
    -- Stationary point found.
 Normal termination of Gaussian 09 at Tue Jan 28 14:49:24 2020.
