 Gaussian 09, Revision D.01,
 Gaussian 09:  ES64L-G09RevD.01 24-Apr-2013

 -----------------------------
 # b3lyp 6-31G(2df,p) opt Freq
 -----------------------------

 -----
 titel
 -----
 Symbolic Z-matrix:
 Charge =  0 Multiplicity = 1

 SCF Done:  E(RB3LYP) =  -423.187582149     A.U. after   12 cycles
 Optimization completed.
    -- Stationary point found.
 Normal termination of Gaussian 09 at Mon Jan 27 18:04:21 2020.

 ----------------------------------------------------------------------
 #N Geom=AllCheck Guess=TCheck SCRF=Check GenChk RB3LYP/6-31G(2df,p) Fr
 eq
 ----------------------------------------------------------------------

 Structure from the checkpoint file:  "/scratch/puck/g09_f595cb0a-e7fa-4fa1-9ddd-ed56f5476d44/Gau-88489.chk"
 -----
 titel
 -----
 Charge =  0 Multiplicity = 1

                         Standard orientation:
 ---------------------------------------------------------------------
 Center     Atomic      Atomic             Coordinates (Angstroms)
 Number     Number       Type             X           Y           Z
 ---------------------------------------------------------------------
      1          8           0       -2.350821   -0.034489    0.000038
      2          6           0       -0.940552   -0.050818    0.000016
      3          6           0       -0.282592   -0.750356   -1.212459
      4          6           0        1.166741   -0.850677   -0.769148
      5          6           0        1.166747   -0.850669    0.769150
      6          6           0       -0.282580   -0.750371    1.212479
      7          6           0        1.640797    0.352601   -0.000006
      8          8           0        0.916770    1.553823   -0.000041
      9          6           0       -0.503387    1.418959    0.000024
     10          1           0       -2.659524   -0.946630   -0.000426
     11          1           0       -0.716581   -1.748460   -1.359198
     12          1           0       -0.427050   -0.179715   -2.135498
     13          1           0        1.872772   -1.440042   -1.343380
     14          1           0        1.872797   -1.440023    1.343370
     15          1           0       -0.716562   -1.748477    1.359203
     16          1           0       -0.427044   -0.179742    2.135524
     17          1           0        2.701361    0.576576   -0.000004
     18          1           0       -0.909369    1.919899    0.888486
     19          1           0       -0.909438    1.919927   -0.888389
 ---------------------------------------------------------------------

 SCF Done:  E(RB3LYP) =  -423.187582149     A.U. after    1 cycles

 The electronic state is 1-A.
 Alpha  occ. eigenvalues --  -19.14233 -19.13825 -10.23921 -10.23230 -10.22210
 Alpha  occ. eigenvalues --  -10.18785 -10.18764 -10.18480 -10.18479  -1.03929
 Alpha  occ. eigenvalues --   -1.02305  -0.87312  -0.77627  -0.71737  -0.67499
 Alpha  occ. eigenvalues --   -0.62063  -0.55710  -0.54016  -0.52204  -0.48485
 Alpha  occ. eigenvalues --   -0.47152  -0.45734  -0.44770  -0.39726  -0.39092
 Alpha  occ. eigenvalues --   -0.38323  -0.37979  -0.36338  -0.35269  -0.33522
 Alpha  occ. eigenvalues --   -0.30656  -0.26682  -0.26311  -0.22236
 Alpha virt. eigenvalues --    0.06766   0.08726   0.11463   0.12511   0.13020
 Alpha virt. eigenvalues --    0.15056   0.15179   0.15915   0.17335   0.17745
 Alpha virt. eigenvalues --    0.17759   0.19800   0.20274   0.21545   0.22359

 Mulliken charges:
               1
     1  O   -0.495086
     2  C    0.317157
     3  C   -0.263901
     4  C   -0.108757
     5  C   -0.108757
     6  C   -0.263875
     7  C    0.132730
     8  O   -0.278194
     9  C   -0.066411
    10  H    0.276467
    11  H    0.085654
    12  H    0.106865
    13  H    0.083024
    14  H    0.083024
    15  H    0.085657
    16  H    0.106861
    17  H    0.101206
    18  H    0.103168
    19  H    0.103168
 Sum of Mulliken charges =   0.00000

 Dipole moment (field-independent basis, Debye):
    X=              0.0636    Y=             -2.4048    Z=             -0.0006  Tot=              2.4057
 Quadrupole moment (field-independent basis, Debye-Ang):
   XX=            -52.7608   YY=            -53.3430   ZZ=            -52.6236
   XY=              1.0621   XZ=              0.0021   YZ=              0.0010

  Exact polarizability:  77.787  -1.382  71.588   0.001   0.001  69.206
 Approx polarizability: 109.235   0.263 108.242   0.001   0.002 104.214

                      1                      2                      3
                      A                      A                      A
 Frequencies --    118.0550               248.8372               295.5738
 Red. masses --      3.0205                 1.0495                 2.8248
 Frc consts  --      0.0248                 0.0383                 0.1454
 IR Inten    --      7.4976                78.4056                 3.0597

                      4                      5                      6
                      A                      A                      A
 Frequencies --    317.8703               416.0450               436.3323
 Red. masses --      3.5111                 2.7756                 2.6577
 Frc consts  --      0.2090                 0.2831                 0.2981
 IR Inten    --      8.0365                 1.9178                 5.2431

                      7                      8                      9
                      A                      A                      A
 Frequencies --    483.2946               503.1133               559.4858
 Red. masses --      2.4806                 4.5012                 5.5217
 Frc consts  --      0.3414                 0.6713                 1.0184
 IR Inten    --      2.0203                 1.2567                 2.8399

                     10                     11                     12
                      A                      A                      A
 Frequencies --    668.4660               673.1616               769.0997
 Red. masses --      4.6988                 5.1189                 2.3720
 Frc consts  --      1.2371                 1.3667                 0.8267
 IR Inten    --      1.5559                 0.0008                13.2865

                     13                     14                     15
                      A                      A                      A
 Frequencies --    788.8035               822.8346               913.2184
 Red. masses --      2.1085                 2.1249                 3.9562
 Frc consts  --      0.7730                 0.8476                 1.9439
 IR Inten    --     22.8140                 0.9701                 6.8916

                     16                     17                     18
                      A                      A                      A
 Frequencies --    920.4440               955.0354               962.3098
 Red. masses --      1.6395                 1.4830                 2.6079
 Frc consts  --      0.8184                 0.7970                 1.4229
 IR Inten    --      1.8308                 1.7594                19.6559

                     19                     20                     21
                      A                      A                      A
 Frequencies --    983.7027              1029.2682              1043.2259
 Red. masses --      2.4308                 1.7990                 1.7070
 Frc consts  --      1.3859                 1.1229                 1.0946
 IR Inten    --     31.2292                 2.0823                 8.8157

                     22                     23                     24
                      A                      A                      A
 Frequencies --   1049.2442              1084.6352              1097.3436
 Red. masses --      1.5017                 1.8367                 1.2503
 Frc consts  --      0.9741                 1.2730                 0.8871
 IR Inten    --      0.4422                53.3919                 0.8878

                     25                     26                     27
                      A                      A                      A
 Frequencies --   1109.4583              1158.9191              1177.1131
 Red. masses --      1.8796                 1.8986                 1.4236
 Frc consts  --      1.3632                 1.5024                 1.1621
 IR Inten    --     32.3990                 2.5614                83.8888

                     28                     29                     30
                      A                      A                      A
 Frequencies --   1185.6244              1192.4481              1220.7171
 Red. masses --      1.3068                 4.2495                 1.9605
 Frc consts  --      1.0823                 3.5601                 1.7213
 IR Inten    --      0.1019                42.9916                31.3218

                     31                     32                     33
                      A                      A                      A
 Frequencies --   1260.3241              1289.8847              1304.2573
 Red. masses --      1.3443                 1.6445                 2.2023
 Frc consts  --      1.2581                 1.6120                 2.2073
 IR Inten    --      2.5185                 4.5629                12.6655

                     34                     35                     36
                      A                      A                      A
 Frequencies --   1330.4782              1341.5963              1394.9550
 Red. masses --      1.7137                 1.3118                 1.5795
 Frc consts  --      1.7873                 1.3911                 1.8108
 IR Inten    --      0.0006                 8.1964                35.5992

                     37                     38                     39
                      A                      A                      A
 Frequencies --   1417.4213              1438.7759              1485.5463
 Red. masses --      1.7647                 2.1898                 1.0972
 Frc consts  --      2.0889                 2.6708                 1.4266
 IR Inten    --     14.7036                14.3995                 1.8946

                     40                     41                     42
                      A                      A                      A
 Frequencies --   1502.7095              1527.1464              3007.8256
 Red. masses --      1.1223                 1.0916                 1.0559
 Frc consts  --      1.4932                 1.4999                 5.6282
 IR Inten    --      3.8804                 0.3331                66.1042

                     43                     44                     45
                      A                      A                      A
 Frequencies --   3013.6296              3021.0926              3045.0153
 Red. masses --      1.0646                 1.0648                 1.1089
 Frc consts  --      5.6967                 5.7259                 6.0582
 IR Inten    --     27.3395                57.6125                28.2000

                     46                     47                     48
                      A                      A                      A
 Frequencies --   3076.4642              3077.5303              3164.5270
 Red. masses --      1.0980                 1.0994                 1.0892
 Frc consts  --      6.1229                 6.1347                 6.4265
 IR Inten    --     34.4074                25.9030                15.0796

                     49                     50                     51
                      A                      A                      A
 Frequencies --   3169.0591              3184.3094              3811.1694
 Red. masses --      1.0905                 1.0933                 1.0660
 Frc consts  --      6.4523                 6.5317                 9.1224
 IR Inten    --     10.6120                31.5846                15.4321

 - Thermochemistry -
 -------------------
 Temperature   298.150 Kelvin.  Pressure   1.00000 Atm.
 Atom     1 has atomic number  8 and mass  15.99491

 Molecular mass:   126.06808 amu.
 Principal axes and moments of inertia in atomic units:
                           1         2         3
     Eigenvalues --   649.11191 980.905191147.03321
           X            0.99974  -0.02281   0.00001
           Y            0.02281   0.99974   0.00001
           Z           -0.00001  -0.00001   1.00000
 This molecule is an asymmetric top.
 Rotational symmetry number  1.
 Warning -- assumption of classical behavior for rotation
           may cause significant error
 Rotational temperatures (Kelvin)      0.13343     0.08830     0.07551
 Rotational constants (GHZ):           2.78032     1.83987     1.57340
 Zero-point vibrational energy     424957.8 (Joules/Mol)
                                  101.56735 (Kcal/Mol)
 Warning -- explicit consideration of   9 degrees of freedom as
           vibrations may cause significant error
 Vibrational temperatures:    169.85   358.02   425.26   457.34   598.60
          (Kelvin)            627.78   695.35   723.87   804.97   961.77
                              968.53  1106.56  1134.91  1183.87  1313.92
                             1324.31  1374.08  1384.55  1415.33  1480.89
                             1500.97  1509.63  1560.55  1578.83  1596.26
                             1667.42  1693.60  1705.85  1715.66  1756.34
                             1813.32  1855.85  1876.53  1914.26  1930.26
                             2007.03  2039.35  2070.08  2137.37  2162.06
                             2197.22  4327.58  4335.94  4346.67  4381.09
                             4426.34  4427.87  4553.04  4559.56  4581.51
                             5483.42

 Zero-point correction=                           0.161858 (Hartree/Particle)
 Thermal correction to Energy=                    0.168983
 Thermal correction to Enthalpy=                  0.169927
 Thermal correction to Gibbs Free Energy=         0.130720
 Sum of electronic and zero-point Energies=           -423.025724
 Sum of electronic and thermal Energies=              -423.018599
 Sum of electronic and thermal Enthalpies=            -423.017655
 Sum of electronic and thermal Free Energies=         -423.056862

                     E (Thermal)             CV                S
                      KCal/Mol        Cal/Mol-Kelvin    Cal/Mol-Kelvin
 Total                  106.038             29.591             82.517
 Electronic               0.000              0.000              0.000
 Translational            0.889              2.981             40.409
 Rotational               0.889              2.981             28.081
 Vibrational            104.261             23.629             14.027
 Vibration     1          0.608              1.934              3.132
 Vibration     2          0.662              1.765              1.739
 Vibration     3          0.690              1.682              1.442
 Vibration     4          0.704              1.639              1.321
 Vibration     5          0.779              1.435              0.906
 Vibration     6          0.797              1.391              0.838
 Vibration     7          0.839              1.287              0.701
 Vibration     8          0.858              1.243              0.650
 Vibration     9          0.915              1.119              0.525

 Optimization completed.
    -- Stationary point found.
 Normal termination of Gaussian 09 at Mon Jan 27 18:52:39 2020.
