 Gaussian 09, Revision D.01,
 Gaussian 09:  ES64L-G09RevD.01 24-Apr-2013

 -----------------------------
 # b3lyp 6-31G(2df,p) opt Freq
 -----------------------------

 -----
 titel
 -----
 Symbolic Z-matrix:
 Charge =  0 Multiplicity = 1

 SCF Done:  E(RB3LYP) =  -423.145078390     A.U. after   13 cycles
 Optimization completed.
    -- Stationary point found.
 Normal termination of Gaussian 09 at Mon Jan 27 11:30:45 2020.

 ----------------------------------------------------------------------
 #N Geom=AllCheck Guess=TCheck SCRF=Check GenChk RB3LYP/6-31G(2df,p) Fr
 eq
 ----------------------------------------------------------------------

 Structure from the checkpoint file:  "/scratch/puck/g09_6cd3258a-df66-4de0-af52-c65f806b39cb/Gau-61432.chk"
 -----
 titel
 -----
 Charge =  0 Multiplicity = 1

                         Standard orientation:
 ---------------------------------------------------------------------
 Center     Atomic      Atomic             Coordinates (Angstroms)
 Number     Number       Type             X           Y           Z
 ---------------------------------------------------------------------
      1          6           0       -0.763932   -1.091924    1.106642
      2          6           0       -0.429321   -1.259763   -0.410276
      3          8           0        0.918477   -1.114364   -0.791021
      4          6           0        1.774943   -0.413221    0.098545
      5          6           0        1.359965    1.038896    0.445446
      6          6           0       -0.126865    1.353516    0.308239
      7          8           0       -0.541153    1.166921   -1.076778
      8          6           0       -1.310451    0.033732   -0.694834
      9          6           0       -1.218823    0.346666    0.814342
     10          1           0       -1.624321   -1.715648    1.367245
     11          1           0        0.017281   -1.272474    1.846208
     12          1           0       -0.782964   -2.182727   -0.876753
     13          1           0        1.907619   -0.992970    1.021590
     14          1           0        2.744887   -0.404276   -0.405513
     15          1           0        1.697757    1.276123    1.462402
     16          1           0        1.870127    1.737440   -0.226973
     17          1           0       -0.312330    2.386669    0.622276
     18          1           0       -2.227193   -0.096273   -1.274053
     19          1           0       -2.022554    0.796265    1.397339
 ---------------------------------------------------------------------

 SCF Done:  E(RB3LYP) =  -423.145078390     A.U. after    1 cycles

 The electronic state is 1-A.
 Alpha  occ. eigenvalues --  -19.13695 -19.12899 -10.23845 -10.22970 -10.22777
 Alpha  occ. eigenvalues --  -10.22602 -10.19119 -10.18690 -10.18526  -1.04999
 Alpha  occ. eigenvalues --   -1.01858  -0.82280  -0.77861  -0.68046  -0.66827
 Alpha  occ. eigenvalues --   -0.64558  -0.55273  -0.53203  -0.52428  -0.50210
 Alpha  occ. eigenvalues --   -0.45178  -0.44192  -0.42774  -0.42384  -0.40779
 Alpha  occ. eigenvalues --   -0.40048  -0.38267  -0.36568  -0.33124  -0.30257
 Alpha  occ. eigenvalues --   -0.29810  -0.28123  -0.25566  -0.22935
 Alpha virt. eigenvalues --    0.06969   0.08030   0.10278   0.11839   0.11998
 Alpha virt. eigenvalues --    0.13323   0.14773   0.15778   0.16812   0.17455
 Alpha virt. eigenvalues --    0.18094   0.18353   0.20169   0.20756   0.21201

 Mulliken charges:
               1
     1  C   -0.290329
     2  C    0.065494
     3  O   -0.247839
     4  C   -0.072886
     5  C   -0.236911
     6  C    0.102781
     7  O   -0.290856
     8  C    0.124122
     9  C   -0.101485
    10  H    0.107710
    11  H    0.105105
    12  H    0.082530
    13  H    0.095138
    14  H    0.111065
    15  H    0.097598
    16  H    0.120377
    17  H    0.082093
    18  H    0.073535
    19  H    0.072757
 Sum of Mulliken charges =   0.00000

 Dipole moment (field-independent basis, Debye):
    X=             -0.4186    Y=             -0.1241    Z=              2.3817  Tot=              2.4213
 Quadrupole moment (field-independent basis, Debye-Ang):
   XX=            -49.4523   YY=            -53.5545   ZZ=            -55.4192
   XY=              2.9552   XZ=              1.1671   YZ=              1.4359

  Exact polarizability:  78.804   3.809  74.056   1.479   1.431  66.691
 Approx polarizability: 108.580   4.663 106.064   2.081   1.409 106.164

                      1                      2                      3
                      A                      A                      A
 Frequencies --    151.1073               267.8877               314.8229
 Red. masses --      1.9663                 4.9286                 3.6201
 Frc consts  --      0.0265                 0.2084                 0.2114
 IR Inten    --      0.2639                 1.8059                 4.5878

                      4                      5                      6
                      A                      A                      A
 Frequencies --    368.8609               406.6314               483.5928
 Red. masses --      2.7230                 3.5112                 2.5581
 Frc consts  --      0.2183                 0.3421                 0.3525
 IR Inten    --      1.2900                 1.9947                 1.6924

                      7                      8                      9
                      A                      A                      A
 Frequencies --    571.7549               668.2098               692.0509
 Red. masses --      5.1620                 4.2431                 2.3897
 Frc consts  --      0.9942                 1.1162                 0.6743
 IR Inten    --     14.3965                 2.5623                 2.2703

                     10                     11                     12
                      A                      A                      A
 Frequencies --    739.7391               793.4480               820.8061
 Red. masses --      2.6805                 2.5364                 2.5724
 Frc consts  --      0.8642                 0.9408                 1.0211
 IR Inten    --      1.5137                 8.0407                 2.2563

                     13                     14                     15
                      A                      A                      A
 Frequencies --    834.0140               861.5030               910.5717
 Red. masses --      2.4805                 2.0721                 2.1215
 Frc consts  --      1.0166                 0.9061                 1.0364
 IR Inten    --     11.8191                 4.7656                 6.5835

                     16                     17                     18
                      A                      A                      A
 Frequencies --    930.4505               950.1832               977.4137
 Red. masses --      2.8060                 2.3703                 2.3777
 Frc consts  --      1.4313                 1.2609                 1.3383
 IR Inten    --     14.1334                 4.0277                 6.0967

                     19                     20                     21
                      A                      A                      A
 Frequencies --   1021.8149              1042.2792              1062.4897
 Red. masses --      2.3926                 3.1970                 3.0949
 Frc consts  --      1.4718                 2.0462                 2.0585
 IR Inten    --      2.0918                35.6688                36.4277

                     22                     23                     24
                      A                      A                      A
 Frequencies --   1080.4966              1101.1537              1131.0470
 Red. masses --      2.0989                 1.6315                 1.8155
 Frc consts  --      1.4437                 1.1655                 1.3683
 IR Inten    --     19.2296                20.4939                21.1761

                     25                     26                     27
                      A                      A                      A
 Frequencies --   1146.4865              1196.5514              1208.6473
 Red. masses --      1.8380                 3.0381                 1.4080
 Frc consts  --      1.4235                 2.5628                 1.2119
 IR Inten    --      2.1554                64.2108                 0.5366

                     28                     29                     30
                      A                      A                      A
 Frequencies --   1233.9231              1252.5598              1266.8789
 Red. masses --      1.4227                 1.4309                 1.4980
 Frc consts  --      1.2762                 1.3227                 1.4166
 IR Inten    --     12.9371                12.2430                11.4664

                     31                     32                     33
                      A                      A                      A
 Frequencies --   1287.5227              1293.6772              1320.2642
 Red. masses --      1.3148                 1.3852                 1.4667
 Frc consts  --      1.2841                 1.3659                 1.5063
 IR Inten    --      2.9001                12.1353                 2.5578

                     34                     35                     36
                      A                      A                      A
 Frequencies --   1342.6023              1349.5590              1371.1417
 Red. masses --      1.5260                 1.4014                 1.3072
 Frc consts  --      1.6207                 1.5038                 1.4480
 IR Inten    --      5.2755                 5.6440                 5.8600

                     37                     38                     39
                      A                      A                      A
 Frequencies --   1392.7006              1423.9182              1470.5589
 Red. masses --      1.3604                 1.2870                 1.0840
 Frc consts  --      1.5546                 1.5374                 1.3812
 IR Inten    --      2.5782                 9.1049                 1.4559

                     40                     41                     42
                      A                      A                      A
 Frequencies --   1479.7891              1523.0527              3006.8769
 Red. masses --      1.1112                 1.0806                 1.0709
 Frc consts  --      1.4337                 1.4769                 5.7045
 IR Inten    --      8.0529                 3.2665                35.3396

                     43                     44                     45
                      A                      A                      A
 Frequencies --   3025.5644              3043.6693              3060.6325
 Red. masses --      1.0661                 1.0829                 1.0686
 Frc consts  --      5.7499                 5.9107                 5.8975
 IR Inten    --     14.9262                70.1658                15.4083

                     46                     47                     48
                      A                      A                      A
 Frequencies --   3068.8594              3073.8231              3088.6184
 Red. masses --      1.0972                 1.0842                 1.0886
 Frc consts  --      6.0881                 6.0357                 6.1186
 IR Inten    --     14.2371                40.2243                74.8973

                     49                     50                     51
                      A                      A                      A
 Frequencies --   3091.6024              3110.6734              3121.4940
 Red. masses --      1.0958                 1.0911                 1.1009
 Frc consts  --      6.1711                 6.2206                 6.3203
 IR Inten    --     40.3454                43.3875                25.7297

 - Thermochemistry -
 -------------------
 Temperature   298.150 Kelvin.  Pressure   1.00000 Atm.
 Atom     1 has atomic number  6 and mass  12.00000

 Molecular mass:   126.06808 amu.
 Principal axes and moments of inertia in atomic units:
                           1         2         3
     Eigenvalues --   750.04932 832.632191040.19312
           X            0.97823   0.20689   0.01615
           Y           -0.20706   0.97827   0.01035
           Z           -0.01365  -0.01347   0.99982
 This molecule is an asymmetric top.
 Rotational symmetry number  1.
 Warning -- assumption of classical behavior for rotation
           may cause significant error
 Rotational temperatures (Kelvin)      0.11548     0.10402     0.08327
 Rotational constants (GHZ):           2.40616     2.16751     1.73501
 Zero-point vibrational energy     427270.1 (Joules/Mol)
                                  102.12000 (Kcal/Mol)
 Warning -- explicit consideration of   7 degrees of freedom as
           vibrations may cause significant error
 Vibrational temperatures:    217.41   385.43   452.96   530.71   585.05
          (Kelvin)            695.78   822.63   961.40   995.71  1064.32
                             1141.59  1180.96  1199.96  1239.51  1310.11
                             1338.71  1367.10  1406.28  1470.16  1499.61
                             1528.68  1554.59  1584.31  1627.32  1649.54
                             1721.57  1738.97  1775.34  1802.15  1822.75
                             1852.46  1861.31  1899.56  1931.70  1941.71
                             1972.76  2003.78  2048.70  2115.80  2129.08
                             2191.33  4326.22  4353.11  4379.16  4403.56
                             4415.40  4422.54  4443.83  4448.12  4475.56
                             4491.13

 Zero-point correction=                           0.162739 (Hartree/Particle)
 Thermal correction to Energy=                    0.169295
 Thermal correction to Enthalpy=                  0.170239
 Thermal correction to Gibbs Free Energy=         0.132122
 Sum of electronic and zero-point Energies=           -422.982340
 Sum of electronic and thermal Energies=              -422.975783
 Sum of electronic and thermal Enthalpies=            -422.974839
 Sum of electronic and thermal Free Energies=         -423.012956

                     E (Thermal)             CV                S
                      KCal/Mol        Cal/Mol-Kelvin    Cal/Mol-Kelvin
 Total                  106.234             27.572             80.223
 Electronic               0.000              0.000              0.000
 Translational            0.889              2.981             40.409
 Rotational               0.889              2.981             27.965
 Vibrational            104.457             21.610             11.850
 Vibration     1          0.619              1.901              2.658
 Vibration     2          0.673              1.732              1.610
 Vibration     3          0.702              1.645              1.337
 Vibration     4          0.741              1.536              1.085
 Vibration     5          0.771              1.456              0.939
 Vibration     6          0.840              1.286              0.700
 Vibration     7          0.928              1.092              0.501

 Normal termination of Gaussian 09 at Mon Jan 27 13:45:16 2020.
