 Gaussian 09, Revision D.01,
 Gaussian 09:  ES64L-G09RevD.01 24-Apr-2013

 -----------------------------
 # b3lyp 6-31G(2df,p) opt Freq
 -----------------------------

 -----
 titel
 -----
 Symbolic Z-matrix:
 Charge =  0 Multiplicity = 1

 SCF Done:  E(RB3LYP) =  -423.154271873     A.U. after   13 cycles
 Optimization completed.
    -- Stationary point found.
 Normal termination of Gaussian 09 at Mon Jan 27 23:53:24 2020.

 ----------------------------------------------------------------------
 #N Geom=AllCheck Guess=TCheck SCRF=Check GenChk RB3LYP/6-31G(2df,p) Fr
 eq
 ----------------------------------------------------------------------

 Structure from the checkpoint file:  "/scratch/puck/g09_829c7b1f-ac77-4d2b-9e12-da342df48572/Gau-68291.chk"
 -----
 titel
 -----
 Charge =  0 Multiplicity = 1

                         Standard orientation:
 ---------------------------------------------------------------------
 Center     Atomic      Atomic             Coordinates (Angstroms)
 Number     Number       Type             X           Y           Z
 ---------------------------------------------------------------------
      1          8           0        3.069984   -0.331482    0.116017
      2          6           0        1.734474   -0.007764    0.376025
      3          6           0        0.878983    0.713301   -0.632056
      4          6           0       -0.249201    1.587267   -0.080507
      5          6           0       -1.227997    0.626730    0.636890
      6          6           0       -2.419711    0.101832   -0.195550
      7          8           0       -1.820682   -1.200616   -0.346002
      8          6           0       -0.693940   -0.827018    0.480599
      9          6           0        0.605642   -0.748743   -0.283276
     10          1           0        3.127057   -0.723405   -0.761025
     11          1           0        1.633816    0.271391    1.422609
     12          1           0        1.339678    0.980508   -1.577800
     13          1           0        0.134069    2.351289    0.605301
     14          1           0       -0.754767    2.120142   -0.892967
     15          1           0       -1.485563    0.950782    1.645357
     16          1           0       -3.376201    0.047532    0.339592
     17          1           0       -2.581117    0.597705   -1.161591
     18          1           0       -0.641070   -1.455886    1.377928
     19          1           0        0.840190   -1.556902   -0.970285
 ---------------------------------------------------------------------

 SCF Done:  E(RB3LYP) =  -423.154271873     A.U. after    1 cycles

 The electronic state is 1-A.
 Alpha  occ. eigenvalues --  -19.14459 -19.12840 -10.23753 -10.23369 -10.22849
 Alpha  occ. eigenvalues --  -10.19367 -10.18989 -10.18926 -10.18722  -1.03568
 Alpha  occ. eigenvalues --   -1.02904  -0.86882  -0.76368  -0.70156  -0.67690
 Alpha  occ. eigenvalues --   -0.61487  -0.57044  -0.54183  -0.51697  -0.51248
 Alpha  occ. eigenvalues --   -0.46153  -0.44580  -0.43195  -0.42161  -0.41315
 Alpha  occ. eigenvalues --   -0.37890  -0.37330  -0.36127  -0.34297  -0.32037
 Alpha  occ. eigenvalues --   -0.29771  -0.27034  -0.25365  -0.23537
 Alpha virt. eigenvalues --    0.07147   0.07748   0.09017   0.10145   0.10994
 Alpha virt. eigenvalues --    0.12687   0.13201   0.15027   0.16793   0.17253
 Alpha virt. eigenvalues --    0.17971   0.19110   0.20436   0.21284   0.23066

 Mulliken charges:
               1
     1  O   -0.437315
     2  C    0.144528
     3  C   -0.100608
     4  C   -0.256155
     5  C   -0.075819
     6  C   -0.076138
     7  O   -0.295140
     8  C    0.116131
     9  C   -0.139064
    10  H    0.283943
    11  H    0.100942
    12  H    0.082612
    13  H    0.103810
    14  H    0.103389
    15  H    0.078581
    16  H    0.099806
    17  H    0.098366
    18  H    0.077572
    19  H    0.090557
 Sum of Mulliken charges =   0.00000

 Dipole moment (field-independent basis, Debye):
    X=             -0.3820    Y=              1.1782    Z=             -0.3191  Tot=              1.2790
 Quadrupole moment (field-independent basis, Debye-Ang):
   XX=            -57.7403   YY=            -54.3421   ZZ=            -50.3324
   XY=             -4.9768   XZ=             -5.5951   YZ=              0.1505

  Exact polarizability:  86.484  -3.000  69.450  -1.059  -0.896  65.642
 Approx polarizability: 112.773  -2.586 105.483   1.680  -0.092 102.323

                      1                      2                      3
                      A                      A                      A
 Frequencies --     58.5554               111.3743               172.9962
 Red. masses --      2.6242                 1.0496                 4.6120
 Frc consts  --      0.0053                 0.0077                 0.0813
 IR Inten    --      0.5445                90.0881                 6.5946

                      4                      5                      6
                      A                      A                      A
 Frequencies --    225.4792               289.4724               364.6595
 Red. masses --      3.4605                 4.1050                 2.7140
 Frc consts  --      0.1037                 0.2027                 0.2126
 IR Inten    --      4.7765                 3.8044                 0.6592

                      7                      8                      9
                      A                      A                      A
 Frequencies --    399.2018               433.9649               656.9269
 Red. masses --      3.6190                 2.7626                 3.7433
 Frc consts  --      0.3398                 0.3065                 0.9518
 IR Inten    --      4.7513                 2.4717                 0.7993

                     10                     11                     12
                      A                      A                      A
 Frequencies --    699.2603               794.6899               833.0558
 Red. masses --      4.4698                 2.6327                 3.4192
 Frc consts  --      1.2877                 0.9796                 1.3980
 IR Inten    --      0.1490                 1.3829                 8.4611

                     13                     14                     15
                      A                      A                      A
 Frequencies --    847.5583               859.5566               885.8954
 Red. masses --      2.1571                 1.9595                 2.2023
 Frc consts  --      0.9130                 0.8530                 1.0183
 IR Inten    --      6.2828                 8.2908                 5.2554

                     16                     17                     18
                      A                      A                      A
 Frequencies --    924.6126               950.3672               987.4012
 Red. masses --      2.1354                 2.3159                 2.9190
 Frc consts  --      1.0756                 1.2324                 1.6768
 IR Inten    --     16.9089                14.8106                 8.8794

                     19                     20                     21
                      A                      A                      A
 Frequencies --   1001.4288              1014.7779              1031.0966
 Red. masses --      2.2308                 1.7784                 5.3382
 Frc consts  --      1.3181                 1.0790                 3.3438
 IR Inten    --     12.6796                 2.0802               138.2126

                     22                     23                     24
                      A                      A                      A
 Frequencies --   1067.0551              1084.9662              1091.4114
 Red. masses --      1.5838                 1.6853                 1.7626
 Frc consts  --      1.0625                 1.1689                 1.2370
 IR Inten    --     30.2899                 3.6830                 4.7619

                     25                     26                     27
                      A                      A                      A
 Frequencies --   1115.3910              1127.3406              1163.6298
 Red. masses --      1.5937                 1.8663                 1.1301
 Frc consts  --      1.1682                 1.3975                 0.9016
 IR Inten    --     41.2121                10.0372                 0.0721

                     28                     29                     30
                      A                      A                      A
 Frequencies --   1170.3179              1201.9408              1225.4226
 Red. masses --      2.2376                 1.3396                 1.6261
 Frc consts  --      1.8057                 1.1403                 1.4387
 IR Inten    --     26.8221                 0.6952                13.1795

                     31                     32                     33
                      A                      A                      A
 Frequencies --   1268.3114              1281.1000              1291.6704
 Red. masses --      1.3967                 1.4910                 1.5303
 Frc consts  --      1.3238                 1.4418                 1.5043
 IR Inten    --      9.4118                 4.5668                 1.2261

                     34                     35                     36
                      A                      A                      A
 Frequencies --   1309.5771              1335.3826              1342.8426
 Red. masses --      1.4176                 1.3346                 1.6538
 Frc consts  --      1.4324                 1.4023                 1.7570
 IR Inten    --      3.0945                 5.5782                18.5559

                     37                     38                     39
                      A                      A                      A
 Frequencies --   1362.6652              1379.5083              1459.5472
 Red. masses --      1.5313                 1.4522                 1.9334
 Frc consts  --      1.6752                 1.6283                 2.4267
 IR Inten    --      7.4174                 9.8606                81.6376

                     40                     41                     42
                      A                      A                      A
 Frequencies --   1496.8125              1523.8060              3005.0353
 Red. masses --      1.0917                 1.0989                 1.0551
 Frc consts  --      1.4410                 1.5034                 5.6136
 IR Inten    --      3.9558                 0.4052                87.4142

                     43                     44                     45
                      A                      A                      A
 Frequencies --   3028.3666              3034.6415              3047.1415
 Red. masses --      1.0851                 1.0617                 1.1102
 Frc consts  --      5.8632                 5.7607                 6.0735
 IR Inten    --     52.3711                31.4672                41.9042

                     46                     47                     48
                      A                      A                      A
 Frequencies --   3069.5106              3108.0943              3133.9932
 Red. masses --      1.1028                 1.0890                 1.0894
 Frc consts  --      6.1219                 6.1982                 6.3040
 IR Inten    --     17.6958                36.6888                14.9714

                     49                     50                     51
                      A                      A                      A
 Frequencies --   3152.1008              3164.8156              3823.9610
 Red. masses --      1.0884                 1.0912                 1.0660
 Frc consts  --      6.3712                 6.4395                 9.1839
 IR Inten    --      8.5601                18.6374                22.9774

 - Thermochemistry -
 -------------------
 Temperature   298.150 Kelvin.  Pressure   1.00000 Atm.
 Atom     1 has atomic number  8 and mass  15.99491

 Molecular mass:   126.06808 amu.
 Principal axes and moments of inertia in atomic units:
                           1         2         3
     Eigenvalues --   461.907091485.995501725.87004
           X            0.99978  -0.01854  -0.01024
           Y            0.01845   0.99979  -0.00933
           Z            0.01041   0.00914   0.99990
 This molecule is an asymmetric top.
 Rotational symmetry number  1.
 Warning -- assumption of classical behavior for rotation
           may cause significant error
 Rotational temperatures (Kelvin)      0.18751     0.05829     0.05019
 Rotational constants (GHZ):           3.90715     1.21450     1.04570
 Zero-point vibrational energy     421137.5 (Joules/Mol)
                                  100.65428 (Kcal/Mol)
 Warning -- explicit consideration of   8 degrees of freedom as
           vibrations may cause significant error
 Vibrational temperatures:     84.25   160.24   248.90   324.41   416.49
          (Kelvin)            524.66   574.36   624.38   945.17  1006.08
                             1143.38  1198.58  1219.45  1236.71  1274.60
                             1330.31  1367.36  1420.65  1440.83  1460.04
                             1483.52  1535.25  1561.02  1570.30  1604.80
                             1621.99  1674.20  1683.82  1729.32  1763.11
                             1824.81  1843.21  1858.42  1884.19  1921.32
                             1932.05  1960.57  1984.80  2099.96  2153.58
                             2192.41  4323.57  4357.14  4366.17  4384.15
                             4416.34  4471.85  4509.11  4535.16  4553.46
                             5501.82

 Zero-point correction=                           0.160403 (Hartree/Particle)
 Thermal correction to Energy=                    0.168369
 Thermal correction to Enthalpy=                  0.169313
 Thermal correction to Gibbs Free Energy=         0.127356
 Sum of electronic and zero-point Energies=           -422.993869
 Sum of electronic and thermal Energies=              -422.985903
 Sum of electronic and thermal Enthalpies=            -422.984959
 Sum of electronic and thermal Free Energies=         -423.026916

                     E (Thermal)             CV                S
                      KCal/Mol        Cal/Mol-Kelvin    Cal/Mol-Kelvin
 Total                  105.653             30.294             88.305
 Electronic               0.000              0.000              0.000
 Translational            0.889              2.981             40.409
 Rotational               0.889              2.981             28.562
 Vibrational            103.876             24.333             19.335
 Vibration     1          0.596              1.974              4.505
 Vibration     2          0.607              1.940              3.245
 Vibration     3          0.627              1.876              2.403
 Vibration     4          0.650              1.802              1.915
 Vibration     5          0.686              1.693              1.477
 Vibration     6          0.738              1.545              1.102
 Vibration     7          0.765              1.472              0.966
 Vibration     8          0.795              1.396              0.846

 Optimization completed.
    -- Stationary point found.
 Normal termination of Gaussian 09 at Tue Jan 28 00:37:46 2020.
