 Gaussian 09, Revision D.01,
 Gaussian 09:  ES64L-G09RevD.01 24-Apr-2013

 -----------------------------
 # b3lyp 6-31G(2df,p) opt Freq
 -----------------------------

 -----
 titel
 -----
 Symbolic Z-matrix:
 Charge =  0 Multiplicity = 1

 SCF Done:  E(RB3LYP) =  -423.062043658     A.U. after   13 cycles
 Optimization completed.
    -- Stationary point found.
 Normal termination of Gaussian 09 at Tue Jan 28 02:54:18 2020.

 ----------------------------------------------------------------------
 #N Geom=AllCheck Guess=TCheck SCRF=Check GenChk RB3LYP/6-31G(2df,p) Fr
 eq
 ----------------------------------------------------------------------

 Structure from the checkpoint file:  "/scratch/puck/g09_afd04660-74f6-43a9-a9a9-f7fa32cd111f/Gau-67032.chk"
 -----
 titel
 -----
 Charge =  0 Multiplicity = 1

                         Standard orientation:
 ---------------------------------------------------------------------
 Center     Atomic      Atomic             Coordinates (Angstroms)
 Number     Number       Type             X           Y           Z
 ---------------------------------------------------------------------
      1          6           0        2.387473   -1.267251   -0.131290
      2          6           0        1.291403   -0.264620    0.070007
      3          6           0        1.363017    1.143708    0.811674
      4          6           0        0.016763    1.001090    0.068177
      5          6           0       -1.458539    1.160110   -0.302844
      6          6           0       -1.490266   -0.434727   -0.312626
      7          8           0       -2.620451   -1.071636    0.211064
      8          6           0       -0.180037   -0.423751    0.575555
      9          8           0        0.773664    0.447989   -1.107397
     10          1           0        3.265187   -0.791783   -0.580115
     11          1           0        2.680319   -1.709199    0.825955
     12          1           0        2.047036   -2.068452   -0.793978
     13          1           0        1.331649    1.157214    1.904689
     14          1           0        2.094812    1.837386    0.393303
     15          1           0       -2.056212    1.544456    0.530737
     16          1           0       -1.703386    1.700076   -1.220070
     17          1           0       -1.339554   -0.834292   -1.312597
     18          1           0       -2.766140   -0.749984    1.107213
     19          1           0       -0.358294   -0.583605    1.643600
 ---------------------------------------------------------------------

 SCF Done:  E(RB3LYP) =  -423.062043658     A.U. after    1 cycles

 The electronic state is 1-A.
 Alpha  occ. eigenvalues --  -19.14272 -19.12361 -10.25951 -10.24437 -10.24113
 Alpha  occ. eigenvalues --  -10.20007 -10.19595 -10.18258 -10.18129  -1.05629
 Alpha  occ. eigenvalues --   -1.02538  -0.81935  -0.77113  -0.72944  -0.66924
 Alpha  occ. eigenvalues --   -0.62184  -0.56366  -0.53754  -0.49617  -0.47652
 Alpha  occ. eigenvalues --   -0.44929  -0.44613  -0.43089  -0.41885  -0.39995
 Alpha  occ. eigenvalues --   -0.39339  -0.38180  -0.35612  -0.34055  -0.32182
 Alpha  occ. eigenvalues --   -0.30746  -0.26451  -0.25619  -0.22810
 Alpha virt. eigenvalues --    0.07229   0.07814   0.08807   0.10311   0.11993
 Alpha virt. eigenvalues --    0.12740   0.13465   0.14219   0.14924   0.15863
 Alpha virt. eigenvalues --    0.16563   0.18038   0.18740   0.19195   0.20780

 Mulliken charges:
               1
     1  C   -0.505830
     2  C    0.386448
     3  C   -0.347562
     4  C    0.374904
     5  C   -0.376330
     6  C    0.129443
     7  O   -0.430185
     8  C   -0.146267
     9  O   -0.367679
    10  H    0.132219
    11  H    0.125536
    12  H    0.135904
    13  H    0.096435
    14  H    0.109281
    15  H    0.101865
    16  H    0.119088
    17  H    0.122112
    18  H    0.278123
    19  H    0.062497
 Sum of Mulliken charges =   0.00000

 Dipole moment (field-independent basis, Debye):
    X=              0.5332    Y=              0.5698    Z=              2.3996  Tot=              2.5233
 Quadrupole moment (field-independent basis, Debye-Ang):
   XX=            -53.0874   YY=            -54.4855   ZZ=            -52.0865
   XY=             -4.4252   XZ=             -1.4171   YZ=              0.6294

  Exact polarizability:  91.519  -1.819  71.494   0.667   0.446  68.677
 Approx polarizability: 122.104   0.307 106.816  -1.007  -1.291 113.220

                      1                      2                      3
                      A                      A                      A
 Frequencies --    160.0101               183.4351               207.2350
 Red. masses --      3.0223                 1.2670                 2.1757
 Frc consts  --      0.0456                 0.0251                 0.0551
 IR Inten    --      1.7177                 0.3385                 1.1437

                      4                      5                      6
                      A                      A                      A
 Frequencies --    241.7873               319.7625               357.6602
 Red. masses --      2.2918                 1.3419                 2.9914
 Frc consts  --      0.0789                 0.0808                 0.2255
 IR Inten    --      7.2939                40.5660                 6.8546

                      7                      8                      9
                      A                      A                      A
 Frequencies --    374.9492               414.2537               488.9485
 Red. masses --      2.5778                 3.4927                 2.4798
 Frc consts  --      0.2135                 0.3531                 0.3493
 IR Inten    --     30.2422                10.4955                12.2598

                     10                     11                     12
                      A                      A                      A
 Frequencies --    516.3009               595.8537               655.0402
 Red. masses --      2.3321                 3.8577                 3.4174
 Frc consts  --      0.3663                 0.8070                 0.8639
 IR Inten    --      4.3763                 3.3118                 7.5242

                     13                     14                     15
                      A                      A                      A
 Frequencies --    678.2504               722.3106               759.8856
 Red. masses --      5.0254                 3.5666                 2.6689
 Frc consts  --      1.3621                 1.0963                 0.9080
 IR Inten    --     31.2297                 1.0600                 0.3845

                     16                     17                     18
                      A                      A                      A
 Frequencies --    850.7723               859.0906               929.9946
 Red. masses --      2.8170                 2.4018                 2.2693
 Frc consts  --      1.2013                 1.0444                 1.1564
 IR Inten    --      8.9609                 4.1802                 7.0381

                     19                     20                     21
                      A                      A                      A
 Frequencies --    938.8870               956.4838               988.7379
 Red. masses --      2.6997                 3.7797                 1.8754
 Frc consts  --      1.4021                 2.0373                 1.0802
 IR Inten    --      0.1564                 7.6305                 4.0185

                     22                     23                     24
                      A                      A                      A
 Frequencies --   1013.4203              1061.5200              1096.4289
 Red. masses --      1.3821                 1.4148                 1.8911
 Frc consts  --      0.8363                 0.9393                 1.3394
 IR Inten    --      6.3221                 3.5277                21.5907

                     25                     26                     27
                      A                      A                      A
 Frequencies --   1105.8401              1118.1323              1134.5286
 Red. masses --      2.0913                 2.1380                 1.8062
 Frc consts  --      1.5068                 1.5749                 1.3697
 IR Inten    --     79.5172                37.6880                99.9743

                     28                     29                     30
                      A                      A                      A
 Frequencies --   1172.9947              1175.4992              1195.3558
 Red. masses --      1.6816                 1.8574                 1.5625
 Frc consts  --      1.3632                 1.5121                 1.3154
 IR Inten    --     20.9087                20.0143                25.4443

                     31                     32                     33
                      A                      A                      A
 Frequencies --   1211.5769              1234.0094              1270.5949
 Red. masses --      1.5697                 1.8502                 1.5762
 Frc consts  --      1.3576                 1.6600                 1.4992
 IR Inten    --      0.7131                10.1346                14.5953

                     34                     35                     36
                      A                      A                      A
 Frequencies --   1308.8739              1363.6747              1406.8507
 Red. masses --      2.0919                 1.8780                 1.5407
 Frc consts  --      2.1115                 2.0576                 1.7967
 IR Inten    --     11.0573                 4.1855                13.6241

                     37                     38                     39
                      A                      A                      A
 Frequencies --   1416.0832              1460.4489              1474.8920
 Red. masses --      1.2508                 1.1279                 1.0461
 Frc consts  --      1.4779                 1.4175                 1.3408
 IR Inten    --     74.1276                 2.8264                 3.1812

                     40                     41                     42
                      A                      A                      A
 Frequencies --   1485.2007              1486.1045              3038.8466
 Red. masses --      1.1423                 1.1407                 1.0345
 Frc consts  --      1.4846                 1.4843                 5.6283
 IR Inten    --      3.8151                 3.8907                16.2200

                     43                     44                     45
                      A                      A                      A
 Frequencies --   3050.5797              3053.0812              3064.7639
 Red. masses --      1.0611                 1.0605                 1.0777
 Frc consts  --      5.8181                 5.8242                 5.9639
 IR Inten    --     26.2665                38.4070                42.1442

                     46                     47                     48
                      A                      A                      A
 Frequencies --   3114.2285              3116.8505              3120.2811
 Red. masses --      1.1017                 1.1015                 1.1059
 Frc consts  --      6.2951                 6.3045                 6.3436
 IR Inten    --     10.7005                11.6200                13.5393

                     49                     50                     51
                      A                      A                      A
 Frequencies --   3138.5268              3150.6406              3802.1185
 Red. masses --      1.1115                 1.0888                 1.0658
 Frc consts  --      6.4508                 6.3680                 9.0778
 IR Inten    --     27.7371                16.3568                13.2578

 - Thermochemistry -
 -------------------
 Temperature   298.150 Kelvin.  Pressure   1.00000 Atm.
 Atom     1 has atomic number  6 and mass  12.00000

 Molecular mass:   126.06808 amu.
 Principal axes and moments of inertia in atomic units:
                           1         2         3
     Eigenvalues --   560.354801342.233311562.18989
           X            0.99921  -0.03948   0.00346
           Y            0.03938   0.99889   0.02603
           Z           -0.00448  -0.02587   0.99966
 This molecule is an asymmetric top.
 Rotational symmetry number  1.
 Warning -- assumption of classical behavior for rotation
           may cause significant error
 Rotational temperatures (Kelvin)      0.15457     0.06453     0.05544
 Rotational constants (GHZ):           3.22071     1.34458     1.15526
 Zero-point vibrational energy     412960.4 (Joules/Mol)
                                   98.69992 (Kcal/Mol)
 Warning -- explicit consideration of  11 degrees of freedom as
           vibrations may cause significant error
 Vibrational temperatures:    230.22   263.92   298.16   347.88   460.07
          (Kelvin)            514.59   539.47   596.02   703.49   742.84
                              857.30   942.46   975.85  1039.24  1093.30
                             1224.07  1236.04  1338.05  1350.85  1376.17
                             1422.57  1458.08  1527.29  1577.51  1591.06
                             1608.74  1632.33  1687.68  1691.28  1719.85
                             1743.19  1775.46  1828.10  1883.18  1962.02
                             2024.14  2037.43  2101.26  2122.04  2136.87
                             2138.17  4372.22  4389.10  4392.70  4409.51
                             4480.67  4484.45  4489.38  4515.63  4533.06
                             5470.39

 Zero-point correction=                           0.157288 (Hartree/Particle)
 Thermal correction to Energy=                    0.165433
 Thermal correction to Enthalpy=                  0.166377
 Thermal correction to Gibbs Free Energy=         0.125222
 Sum of electronic and zero-point Energies=           -422.904755
 Sum of electronic and thermal Energies=              -422.896611
 Sum of electronic and thermal Enthalpies=            -422.895667
 Sum of electronic and thermal Free Energies=         -422.936822

                     E (Thermal)             CV                S
                      KCal/Mol        Cal/Mol-Kelvin    Cal/Mol-Kelvin
 Total                  103.811             32.901             86.618
 Electronic               0.000              0.000              0.000
 Translational            0.889              2.981             40.409
 Rotational               0.889              2.981             28.554
 Vibrational            102.033             26.940             17.656
 Vibration     1          0.622              1.891              2.550
 Vibration     2          0.631              1.862              2.293
 Vibration     3          0.641              1.830              2.068
 Vibration     4          0.658              1.776              1.790
 Vibration     5          0.706              1.636              1.311
 Vibration     6          0.733              1.560              1.132
 Vibration     7          0.746              1.523              1.059
 Vibration     8          0.778              1.439              0.912
 Vibration     9          0.845              1.275              0.686
 Vibration    10          0.871              1.214              0.619
 Vibration    11          0.954              1.041              0.457

 Normal termination of Gaussian 09 at Tue Jan 28 03:40:56 2020.
