 Gaussian 09, Revision D.01,
 Gaussian 09:  ES64L-G09RevD.01 24-Apr-2013

 -----------------------------
 # b3lyp 6-31G(2df,p) opt Freq
 -----------------------------

 -----
 titel
 -----
 Symbolic Z-matrix:
 Charge =  0 Multiplicity = 1

 SCF Done:  E(RB3LYP) =  -423.116446863     A.U. after   14 cycles
 Optimization completed.
    -- Stationary point found.
 Normal termination of Gaussian 09 at Tue Jan 28 14:03:34 2020.

 ----------------------------------------------------------------------
 #N Geom=AllCheck Guess=TCheck SCRF=Check GenChk RB3LYP/6-31G(2df,p) Fr
 eq
 ----------------------------------------------------------------------

 Structure from the checkpoint file:  "/scratch/puck/g09_bd4e99b0-ea71-4362-a3ef-eb537ecc6406/Gau-71017.chk"
 -----
 titel
 -----
 Charge =  0 Multiplicity = 1

                         Standard orientation:
 ---------------------------------------------------------------------
 Center     Atomic      Atomic             Coordinates (Angstroms)
 Number     Number       Type             X           Y           Z
 ---------------------------------------------------------------------
      1          6           0        2.722094   -0.073355    0.245878
      2          8           0        1.579600   -0.222411   -0.564098
      3          6           0        0.563466    0.669236   -0.243874
      4          6           0       -0.777218    0.606630   -1.010858
      5          6           0       -1.317402    1.492192    0.176242
      6          6           0       -0.362433    0.569360    1.022662
      7          6           0       -1.115685   -0.763217    0.844855
      8          8           0       -0.524438   -1.725473   -0.035669
      9          6           0       -1.404270   -0.741272   -0.590547
     10          1           0        2.516680   -0.324914    1.296958
     11          1           0        3.481901   -0.758467   -0.136508
     12          1           0        3.118372    0.955055    0.208500
     13          1           0        0.957051    1.697287   -0.286570
     14          1           0       -0.854331    0.911645   -2.053486
     15          1           0       -1.011445    2.540049    0.131210
     16          1           0       -2.384374    1.415857    0.394121
     17          1           0       -0.022105    0.847522    2.019174
     18          1           0       -1.780018   -1.149147    1.611534
     19          1           0       -2.314336   -1.109257   -1.052958
 ---------------------------------------------------------------------

 SCF Done:  E(RB3LYP) =  -423.116446863     A.U. after    1 cycles

 The electronic state is 1-A.
 Alpha  occ. eigenvalues --  -19.14091 -19.13437 -10.23670 -10.22934 -10.22895
 Alpha  occ. eigenvalues --  -10.22028 -10.19837 -10.19772 -10.19655  -1.06781
 Alpha  occ. eigenvalues --   -1.03105  -0.87240  -0.70585  -0.68998  -0.66491
 Alpha  occ. eigenvalues --   -0.62887  -0.56350  -0.55735  -0.52610  -0.50059
 Alpha  occ. eigenvalues --   -0.45785  -0.44793  -0.44708  -0.39919  -0.39690
 Alpha  occ. eigenvalues --   -0.38892  -0.36403  -0.35756  -0.33604  -0.32742
 Alpha  occ. eigenvalues --   -0.30420  -0.28015  -0.26278  -0.23009
 Alpha virt. eigenvalues --    0.08482   0.09107   0.09611   0.12538   0.13102
 Alpha virt. eigenvalues --    0.13581   0.15012   0.15809   0.15906   0.16878
 Alpha virt. eigenvalues --    0.17261   0.17981   0.19614   0.19969   0.20855

 Mulliken charges:
               1
     1  C   -0.244846
     2  O   -0.232577
     3  C    0.207759
     4  C   -0.148914
     5  C   -0.230181
     6  C   -0.154709
     7  C    0.049356
     8  O   -0.237939
     9  C    0.051539
    10  H    0.108614
    11  H    0.129152
    12  H    0.097679
    13  H    0.066926
    14  H    0.070008
    15  H    0.101996
    16  H    0.102620
    17  H    0.065156
    18  H    0.098458
    19  H    0.099900
 Sum of Mulliken charges =   0.00000

 Dipole moment (field-independent basis, Debye):
    X=             -0.7781    Y=              2.1732    Z=              1.0092  Tot=              2.5192
 Quadrupole moment (field-independent basis, Debye-Ang):
   XX=            -47.8759   YY=            -56.1819   ZZ=            -51.6936
   XY=              1.0503   XZ=              1.8077   YZ=             -0.9184

  Exact polarizability:  81.667  -0.071  72.416   1.759  -0.747  69.321
 Approx polarizability: 107.980  -3.133 110.705   2.277   0.984 110.563

                      1                      2                      3
                      A                      A                      A
 Frequencies --     63.3104               173.5340               187.2871
 Red. masses --      2.8380                 1.7596                 1.5991
 Frc consts  --      0.0067                 0.0312                 0.0330
 IR Inten    --      3.2465                 1.3596                 1.0670

                      4                      5                      6
                      A                      A                      A
 Frequencies --    284.6971               341.9034               416.4630
 Red. masses --      4.9664                 3.3610                 4.6610
 Frc consts  --      0.2372                 0.2315                 0.4763
 IR Inten    --      0.7006                 0.5430                11.0814

                      7                      8                      9
                      A                      A                      A
 Frequencies --    473.4165               515.9992               647.4356
 Red. masses --      3.0953                 2.8927                 5.1217
 Frc consts  --      0.4087                 0.4538                 1.2649
 IR Inten    --      0.6166                 2.4616                 8.8278

                     10                     11                     12
                      A                      A                      A
 Frequencies --    712.8137               793.6552               817.0474
 Red. masses --      4.7912                 3.2877                 2.3311
 Frc consts  --      1.4343                 1.2201                 0.9169
 IR Inten    --      1.0161                 8.2529                 7.5298

                     13                     14                     15
                      A                      A                      A
 Frequencies --    820.5489               835.6259               897.7481
 Red. masses --      2.6717                 2.0127                 3.5434
 Frc consts  --      1.0598                 0.8281                 1.6826
 IR Inten    --      0.0660                 3.0109                 9.5170

                     16                     17                     18
                      A                      A                      A
 Frequencies --    907.2613               930.7313               966.4315
 Red. masses --      2.8761                 2.4915                 2.0425
 Frc consts  --      1.3948                 1.2716                 1.1240
 IR Inten    --      9.7230                 4.2829                 2.5597

                     19                     20                     21
                      A                      A                      A
 Frequencies --    988.2877              1021.2285              1038.9437
 Red. masses --      2.1902                 2.3582                 2.1184
 Frc consts  --      1.2604                 1.4490                 1.3472
 IR Inten    --      5.6576                10.3485                11.9272

                     22                     23                     24
                      A                      A                      A
 Frequencies --   1065.1098              1075.2044              1092.6853
 Red. masses --      1.2152                 3.2114                 1.2662
 Frc consts  --      0.8123                 2.1874                 0.8907
 IR Inten    --      0.2490                28.0008                 1.5790

                     25                     26                     27
                      A                      A                      A
 Frequencies --   1111.5208              1160.8110              1181.0000
 Red. masses --      1.3774                 1.7945                 1.3294
 Frc consts  --      1.0027                 1.4247                 1.0924
 IR Inten    --      4.6409                70.2585                 7.1170

                     28                     29                     30
                      A                      A                      A
 Frequencies --   1198.6965              1209.8653              1215.8678
 Red. masses --      1.9392                 1.6288                 1.3595
 Frc consts  --      1.6417                 1.4048                 1.1841
 IR Inten    --     17.1918                36.3528                 1.3777

                     31                     32                     33
                      A                      A                      A
 Frequencies --   1239.9948              1266.2624              1281.2183
 Red. masses --      1.8946                 1.8217                 1.3199
 Frc consts  --      1.7164                 1.7210                 1.2766
 IR Inten    --     99.9182                27.4408                 1.8168

                     34                     35                     36
                      A                      A                      A
 Frequencies --   1295.9614              1326.0286              1409.4483
 Red. masses --      2.0129                 1.5468                 2.5641
 Frc consts  --      1.9918                 1.6025                 3.0011
 IR Inten    --     25.1128                 2.1949                22.1912

                     37                     38                     39
                      A                      A                      A
 Frequencies --   1443.9792              1482.9593              1489.3888
 Red. masses --      1.1602                 1.1044                 1.0917
 Frc consts  --      1.4253                 1.4310                 1.4269
 IR Inten    --     25.4524                 4.6423                 2.0286

                     40                     41                     42
                      A                      A                      A
 Frequencies --   1503.8228              1514.9282              2963.4040
 Red. masses --      1.0805                 1.1371                 1.0527
 Frc consts  --      1.4396                 1.5375                 5.4468
 IR Inten    --     14.4012                 1.0381                32.4989

                     43                     44                     45
                      A                      A                      A
 Frequencies --   2971.7342              3019.0827              3068.0871
 Red. masses --      1.0715                 1.0974                 1.0565
 Frc consts  --      5.5752                 5.8931                 5.8597
 IR Inten    --     82.5294                48.0249                38.2179

                     46                     47                     48
                      A                      A                      A
 Frequencies --   3118.8636              3124.3908              3127.3055
 Red. masses --      1.0955                 1.0896                 1.0924
 Frc consts  --      6.2784                 6.2668                 6.2945
 IR Inten    --     27.1072                39.2402                19.4474

                     49                     50                     51
                      A                      A                      A
 Frequencies --   3130.5472              3160.0245              3172.9536
 Red. masses --      1.1073                 1.0875                 1.0973
 Frc consts  --      6.3938                 6.3982                 6.5088
 IR Inten    --     36.4932                24.0880                25.5364

 - Thermochemistry -
 -------------------
 Temperature   298.150 Kelvin.  Pressure   1.00000 Atm.
 Atom     1 has atomic number  6 and mass  12.00000

 Molecular mass:   126.06808 amu.
 Principal axes and moments of inertia in atomic units:
                           1         2         3
     Eigenvalues --   635.363921104.309751321.90136
           X            0.99982  -0.00671   0.01756
           Y            0.00685   0.99994  -0.00797
           Z           -0.01750   0.00809   0.99981
 This molecule is an asymmetric top.
 Rotational symmetry number  1.
 Warning -- assumption of classical behavior for rotation
           may cause significant error
 Rotational temperatures (Kelvin)      0.13632     0.07843     0.06552
 Rotational constants (GHZ):           2.84048     1.63427     1.36526
 Zero-point vibrational energy     420221.3 (Joules/Mol)
                                  100.43530 (Kcal/Mol)
 Warning -- explicit consideration of   8 degrees of freedom as
           vibrations may cause significant error
 Vibrational temperatures:     91.09   249.68   269.46   409.62   491.92
          (Kelvin)            599.20   681.14   742.41   931.51  1025.58
                             1141.89  1175.55  1180.59  1202.28  1291.66
                             1305.35  1339.11  1390.48  1421.92  1469.32
                             1494.81  1532.45  1546.98  1572.13  1599.23
                             1670.15  1699.19  1724.65  1740.72  1749.36
                             1784.07  1821.87  1843.39  1864.60  1907.86
                             2027.88  2077.56  2133.65  2142.90  2163.66
                             2179.64  4263.67  4275.66  4343.78  4414.29
                             4487.34  4495.30  4499.49  4504.15  4546.56
                             4565.17

 Zero-point correction=                           0.160054 (Hartree/Particle)
 Thermal correction to Energy=                    0.167564
 Thermal correction to Enthalpy=                  0.168508
 Thermal correction to Gibbs Free Energy=         0.127832
 Sum of electronic and zero-point Energies=           -422.956393
 Sum of electronic and thermal Energies=              -422.948883
 Sum of electronic and thermal Enthalpies=            -422.947938
 Sum of electronic and thermal Free Energies=         -422.988615

                     E (Thermal)             CV                S
                      KCal/Mol        Cal/Mol-Kelvin    Cal/Mol-Kelvin
 Total                  105.148             29.605             85.611
 Electronic               0.000              0.000              0.000
 Translational            0.889              2.981             40.409
 Rotational               0.889              2.981             28.319
 Vibrational            103.371             23.643             16.884
 Vibration     1          0.597              1.972              4.351
 Vibration     2          0.627              1.875              2.397
 Vibration     3          0.632              1.857              2.255
 Vibration     4          0.683              1.702              1.505
 Vibration     5          0.721              1.592              1.203
 Vibration     6          0.780              1.434              0.904
 Vibration     7          0.830              1.309              0.728
 Vibration     8          0.871              1.215              0.619

 Normal termination of Gaussian 09 at Tue Jan 28 14:51:39 2020.
