 Gaussian 09, Revision D.01,
 Gaussian 09:  ES64L-G09RevD.01 24-Apr-2013

 -----------------------------
 # b3lyp 6-31G(2df,p) opt Freq
 -----------------------------

 -----
 titel
 -----
 Symbolic Z-matrix:
 Charge =  0 Multiplicity = 1

 SCF Done:  E(RB3LYP) =  -423.084724462     A.U. after   13 cycles
 Optimization completed.
    -- Stationary point found.
 Normal termination of Gaussian 09 at Tue Jan 28 12:46:10 2020.

 ----------------------------------------------------------------------
 #N Geom=AllCheck Guess=TCheck SCRF=Check GenChk RB3LYP/6-31G(2df,p) Fr
 eq
 ----------------------------------------------------------------------

 Structure from the checkpoint file:  "/scratch/puck/g09_73a69fac-f5ba-42f7-b908-c266e05b58b3/Gau-92388.chk"
 -----
 titel
 -----
 Charge =  0 Multiplicity = 1

                         Standard orientation:
 ---------------------------------------------------------------------
 Center     Atomic      Atomic             Coordinates (Angstroms)
 Number     Number       Type             X           Y           Z
 ---------------------------------------------------------------------
      1          6           0       -3.080762    0.646452    0.407729
      2          8           0       -2.302165   -0.300750   -0.297071
      3          6           0       -1.000457   -0.400492    0.189291
      4          6           0       -0.031203   -0.907926   -0.832226
      5          6           0        1.420922   -1.093200   -0.316651
      6          6           0        1.629985   -0.656348    1.128520
      7          6           0        1.460932    0.382313    0.074111
      8          8           0        2.426364    1.355812   -0.088975
      9          6           0       -0.001944    0.561087   -0.429930
     10          1           0       -2.656243    1.657680    0.333065
     11          1           0       -4.077155    0.640112   -0.039838
     12          1           0       -3.167169    0.385514    1.473330
     13          1           0       -0.951386   -0.685498    1.239748
     14          1           0       -0.393979   -1.332951   -1.759077
     15          1           0        2.153134   -1.707694   -0.824796
     16          1           0        0.923289   -0.844035    1.929537
     17          1           0        2.667043   -0.755162    1.436484
     18          1           0        2.460257    1.592112   -1.023268
     19          1           0       -0.336220    1.418111   -1.001882
 ---------------------------------------------------------------------

 SCF Done:  E(RB3LYP) =  -423.084724462     A.U. after    1 cycles

 The electronic state is 1-A.
 Alpha  occ. eigenvalues --  -19.15026 -19.14601 -10.24253 -10.23677 -10.22488
 Alpha  occ. eigenvalues --  -10.19070 -10.18952 -10.18662 -10.18584  -1.04219
 Alpha  occ. eigenvalues --   -1.03548  -0.90663  -0.79562  -0.69251  -0.63460
 Alpha  occ. eigenvalues --   -0.61989  -0.56085  -0.55695  -0.52841  -0.49744
 Alpha  occ. eigenvalues --   -0.48390  -0.44622  -0.43879  -0.42528  -0.41719
 Alpha  occ. eigenvalues --   -0.37991  -0.37113  -0.35627  -0.33738  -0.30735
 Alpha  occ. eigenvalues --   -0.28833  -0.27488  -0.25284  -0.20398
 Alpha virt. eigenvalues --    0.07907   0.08223   0.09079   0.10217   0.11409
 Alpha virt. eigenvalues --    0.12856   0.15024   0.15765   0.16305   0.17147
 Alpha virt. eigenvalues --    0.18374   0.18790   0.20934   0.21602   0.22516

 Mulliken charges:
               1
     1  C   -0.236830
     2  O   -0.251324
     3  C    0.097339
     4  C   -0.090784
     5  C   -0.165623
     6  C   -0.337222
     7  C    0.402171
     8  O   -0.450416
     9  C   -0.197992
    10  H    0.109829
    11  H    0.127620
    12  H    0.107636
    13  H    0.084991
    14  H    0.098224
    15  H    0.094024
    16  H    0.113460
    17  H    0.119416
    18  H    0.284943
    19  H    0.090540
 Sum of Mulliken charges =   0.00000

 Dipole moment (field-independent basis, Debye):
    X=             -0.2030    Y=              0.4373    Z=             -0.5783  Tot=              0.7529
 Quadrupole moment (field-independent basis, Debye-Ang):
   XX=            -52.8024   YY=            -53.8501   ZZ=            -50.2069
   XY=             -4.0894   XZ=             -5.2109   YZ=             -2.7160

  Exact polarizability:  90.257  -3.133  68.461  -0.158  -1.322  68.214
 Approx polarizability: 113.212   0.586 109.470   0.312   0.491 105.312

                      1                      2                      3
                      A                      A                      A
 Frequencies --     92.9612               157.6133               170.0688
 Red. masses --      2.8014                 3.2491                 1.2399
 Frc consts  --      0.0143                 0.0476                 0.0211
 IR Inten    --      3.1094                 1.7005                 0.2418

                      4                      5                      6
                      A                      A                      A
 Frequencies --    224.0088               256.6512               345.1068
 Red. masses --      2.8974                 2.8959                 1.2500
 Frc consts  --      0.0857                 0.1124                 0.0877
 IR Inten    --      2.6589                 6.5860                73.3650

                      7                      8                      9
                      A                      A                      A
 Frequencies --    380.9428               399.2230               417.6412
 Red. masses --      4.3171                 3.8661                 2.4499
 Frc consts  --      0.3691                 0.3630                 0.2518
 IR Inten    --      1.4753                 3.2566                16.3184

                     10                     11                     12
                      A                      A                      A
 Frequencies --    466.9915               512.5146               628.8432
 Red. masses --      2.6286                 2.6716                 3.9169
 Frc consts  --      0.3377                 0.4135                 0.9126
 IR Inten    --     13.0425                 1.4413                16.1833

                     13                     14                     15
                      A                      A                      A
 Frequencies --    741.1516               786.8407               860.0729
 Red. masses --      2.1801                 1.6405                 3.2958
 Frc consts  --      0.7056                 0.5984                 1.4364
 IR Inten    --      2.2053                 5.5912                11.5070

                     16                     17                     18
                      A                      A                      A
 Frequencies --    872.3870               882.5069               901.5083
 Red. masses --      2.7170                 1.8977                 3.5327
 Frc consts  --      1.2183                 0.8708                 1.6916
 IR Inten    --      2.9583                 9.1373                 3.2920

                     19                     20                     21
                      A                      A                      A
 Frequencies --    944.6189               974.1811               984.9525
 Red. masses --      1.6247                 1.9411                 1.5999
 Frc consts  --      0.8542                 1.0854                 0.9145
 IR Inten    --     11.4820                13.6903                 3.5597

                     22                     23                     24
                      A                      A                      A
 Frequencies --   1013.5132              1034.2325              1067.0681
 Red. masses --      1.6877                 2.1499                 1.4279
 Frc consts  --      1.0214                 1.3549                 0.9579
 IR Inten    --      6.4601                16.4848                 7.7694

                     25                     26                     27
                      A                      A                      A
 Frequencies --   1078.2179              1104.4612              1138.5398
 Red. masses --      1.9647                 1.5094                 1.7388
 Frc consts  --      1.3457                 1.0848                 1.3280
 IR Inten    --      7.9144                24.6458                49.2924

                     28                     29                     30
                      A                      A                      A
 Frequencies --   1169.7555              1171.9099              1183.2140
 Red. masses --      2.2987                 1.8651                 1.2945
 Frc consts  --      1.8532                 1.5092                 1.0678
 IR Inten    --     39.6501                55.5030                 6.1487

                     31                     32                     33
                      A                      A                      A
 Frequencies --   1230.3328              1241.2435              1265.3896
 Red. masses --      1.9936                 1.8875                 1.9034
 Frc consts  --      1.7780                 1.7134                 1.7957
 IR Inten    --     37.8452                20.4179                15.7738

                     34                     35                     36
                      A                      A                      A
 Frequencies --   1287.1159              1313.3260              1393.0995
 Red. masses --      1.7922                 2.0317                 1.8076
 Frc consts  --      1.7494                 2.0647                 2.0669
 IR Inten    --     18.2671               179.2873                40.9206

                     37                     38                     39
                      A                      A                      A
 Frequencies --   1440.4527              1482.6059              1485.1262
 Red. masses --      1.8434                 1.1828                 1.0765
 Frc consts  --      2.2536                 1.5319                 1.3989
 IR Inten    --     28.7834                 1.2733                 6.0956

                     40                     41                     42
                      A                      A                      A
 Frequencies --   1506.8132              1511.1150              2984.5066
 Red. masses --      1.2162                 1.2524                 1.0365
 Frc consts  --      1.6269                 1.6849                 5.4394
 IR Inten    --     13.8979                 9.7857                56.7996

                     43                     44                     45
                      A                      A                      A
 Frequencies --   3035.9531              3092.6161              3120.5523
 Red. masses --      1.1024                 1.0843                 1.0977
 Frc consts  --      5.9865                 6.1102                 6.2977
 IR Inten    --     48.6484                14.5540                30.0515

                     46                     47                     48
                      A                      A                      A
 Frequencies --   3129.6403              3185.7513              3191.1624
 Red. masses --      1.0569                 1.0899                 1.0939
 Frc consts  --      6.0991                 6.5170                 6.5636
 IR Inten    --     26.8319                 5.2237                12.1417

                     49                     50                     51
                      A                      A                      A
 Frequencies --   3201.4508              3205.5845              3782.9338
 Red. masses --      1.0974                 1.1109                 1.0658
 Frc consts  --      6.6270                 6.7256                 8.9864
 IR Inten    --      6.5291                16.6508                18.0028

 - Thermochemistry -
 -------------------
 Temperature   298.150 Kelvin.  Pressure   1.00000 Atm.
 Atom     1 has atomic number  6 and mass  12.00000

 Molecular mass:   126.06808 amu.
 Principal axes and moments of inertia in atomic units:
                           1         2         3
     Eigenvalues --   476.291701739.944921884.40535
           X            0.99954  -0.02873  -0.00970
           Y            0.02831   0.99878  -0.04052
           Z            0.01085   0.04023   0.99913
 This molecule is an asymmetric top.
 Rotational symmetry number  1.
 Warning -- assumption of classical behavior for rotation
           may cause significant error
 Rotational temperatures (Kelvin)      0.18185     0.04978     0.04596
 Rotational constants (GHZ):           3.78915     1.03724     0.95772
 Zero-point vibrational energy     413001.6 (Joules/Mol)
                                   98.70974 (Kcal/Mol)
 Warning -- explicit consideration of  11 degrees of freedom as
           vibrations may cause significant error
 Vibrational temperatures:    133.75   226.77   244.69   322.30   369.26
          (Kelvin)            496.53   548.09   574.39   600.89   671.90
                              737.39   904.76  1066.35  1132.09  1237.45
                             1255.17  1269.73  1297.07  1359.09  1401.63
                             1417.13  1458.22  1488.03  1535.27  1551.31
                             1589.07  1638.10  1683.02  1686.11  1702.38
                             1770.17  1785.87  1820.61  1851.87  1889.58
                             2004.36  2072.49  2133.14  2136.76  2167.97
                             2174.15  4294.03  4368.05  4449.58  4489.77
                             4502.85  4583.58  4591.37  4606.17  4612.12
                             5442.79

 Zero-point correction=                           0.157304 (Hartree/Particle)
 Thermal correction to Energy=                    0.165894
 Thermal correction to Enthalpy=                  0.166838
 Thermal correction to Gibbs Free Energy=         0.124295
 Sum of electronic and zero-point Energies=           -422.927420
 Sum of electronic and thermal Energies=              -422.918831
 Sum of electronic and thermal Enthalpies=            -422.917886
 Sum of electronic and thermal Free Energies=         -422.960429

                     E (Thermal)             CV                S
                      KCal/Mol        Cal/Mol-Kelvin    Cal/Mol-Kelvin
 Total                  104.100             33.383             89.539
 Electronic               0.000              0.000              0.000
 Translational            0.889              2.981             40.409
 Rotational               0.889              2.981             28.837
 Vibrational            102.323             27.421             20.294
 Vibration     1          0.602              1.954              3.597
 Vibration     2          0.621              1.894              2.578
 Vibration     3          0.625              1.879              2.435
 Vibration     4          0.649              1.804              1.926
 Vibration     5          0.666              1.752              1.684
 Vibration     6          0.723              1.585              1.188
 Vibration     7          0.751              1.511              1.035
 Vibration     8          0.765              1.472              0.966
 Vibration     9          0.781              1.432              0.900
 Vibration    10          0.824              1.323              0.746
 Vibration    11          0.868              1.222              0.628

 Normal termination of Gaussian 09 at Tue Jan 28 14:14:28 2020.
 Normal termination of Gaussian 09 at Tue Jan 28 12:36:23 2020.
