 Gaussian 09, Revision D.01,
 Gaussian 09:  ES64L-G09RevD.01 24-Apr-2013

 -----------------------------
 # b3lyp 6-31G(2df,p) opt Freq
 -----------------------------

 -----
 titel
 -----
 Symbolic Z-matrix:
 Charge =  0 Multiplicity = 1

 SCF Done:  E(RB3LYP) =  -423.125906339     A.U. after   14 cycles
 Optimization completed.
    -- Stationary point found.
 Normal termination of Gaussian 09 at Tue Jan 28 10:11:19 2020.

 ----------------------------------------------------------------------
 #N Geom=AllCheck Guess=TCheck SCRF=Check GenChk RB3LYP/6-31G(2df,p) Fr
 eq
 ----------------------------------------------------------------------

 Structure from the checkpoint file:  "/scratch/puck/g09_e52c1a67-b9ec-4375-a655-3c0dcaff4391/Gau-84550.chk"
 -----
 titel
 -----
 Charge =  0 Multiplicity = 1

                         Standard orientation:
 ---------------------------------------------------------------------
 Center     Atomic      Atomic             Coordinates (Angstroms)
 Number     Number       Type             X           Y           Z
 ---------------------------------------------------------------------
      1          6           0       -2.772239   -0.465158    0.323370
      2          6           0       -1.615804   -0.612071   -0.672882
      3          6           0       -0.388384    0.132912   -0.245315
      4          8           0       -0.477927    1.588621   -0.023478
      5          6           0        0.924455    1.276451    0.250288
      6          6           0        1.000466    0.295647   -0.956862
      7          6           0        1.863444   -0.878860   -0.528545
      8          8           0        1.467512   -1.033752    0.855311
      9          6           0        0.520775   -0.009740    1.021766
     10          1           0       -2.510357   -0.890385    1.297465
     11          1           0       -3.018122    0.589481    0.473036
     12          1           0       -3.666443   -0.979862   -0.039165
     13          1           0       -1.346628   -1.668718   -0.795493
     14          1           0       -1.920177   -0.247086   -1.661733
     15          1           0        1.589930    2.093485    0.526446
     16          1           0        1.049229    0.681737   -1.973569
     17          1           0        1.652324   -1.802923   -1.079936
     18          1           0        2.939638   -0.676050   -0.584068
     19          1           0        0.117647    0.026266    2.031428
 ---------------------------------------------------------------------

 SCF Done:  E(RB3LYP) =  -423.125906339     A.U. after    1 cycles

 The electronic state is 1-A.
 Alpha  occ. eigenvalues --  -19.14450 -19.13180 -10.24468 -10.24197 -10.23796
 Alpha  occ. eigenvalues --  -10.23405 -10.20021 -10.19071 -10.17678  -1.07416
 Alpha  occ. eigenvalues --   -1.02691  -0.79308  -0.77639  -0.72872  -0.66380
 Alpha  occ. eigenvalues --   -0.60558  -0.59825  -0.55726  -0.49468  -0.48260
 Alpha  occ. eigenvalues --   -0.47826  -0.44736  -0.42796  -0.40215  -0.39224
 Alpha  occ. eigenvalues --   -0.38279  -0.37755  -0.35346  -0.34730  -0.34492
 Alpha  occ. eigenvalues --   -0.32824  -0.30412  -0.24390  -0.23245
 Alpha virt. eigenvalues --    0.07685   0.09340   0.11384   0.12143   0.12399
 Alpha virt. eigenvalues --    0.13039   0.14372   0.14946   0.15525   0.16722
 Alpha virt. eigenvalues --    0.17071   0.18281   0.18908   0.19232   0.20011

 Mulliken charges:
               1
     1  C   -0.381037
     2  C   -0.334771
     3  C    0.425166
     4  O   -0.352269
     5  C    0.021302
     6  C   -0.143920
     7  C   -0.113182
     8  O   -0.277840
     9  C    0.060024
    10  H    0.120165
    11  H    0.140573
    12  H    0.113465
    13  H    0.112082
    14  H    0.111916
    15  H    0.092542
    16  H    0.085245
    17  H    0.110065
    18  H    0.110101
    19  H    0.100373
 Sum of Mulliken charges =   0.00000

 Dipole moment (field-independent basis, Debye):
    X=              0.3894    Y=             -0.6606    Z=             -1.1055  Tot=              1.3454
 Quadrupole moment (field-independent basis, Debye-Ang):
   XX=            -51.4288   YY=            -56.4395   ZZ=            -51.7503
   XY=              4.2395   XZ=             -2.1723   YZ=              2.5028

  Exact polarizability:  84.250   1.494  69.997  -2.403   2.835  68.828
 Approx polarizability: 112.151  -1.654 109.251  -0.987   2.207 105.805

                      1                      2                      3
                      A                      A                      A
 Frequencies --     77.2912               160.5639               181.9854
 Red. masses --      2.4299                 2.5993                 1.6721
 Frc consts  --      0.0086                 0.0395                 0.0326
 IR Inten    --      0.1105                 1.3247                 0.3509

                      4                      5                      6
                      A                      A                      A
 Frequencies --    255.1130               275.8714               389.6556
 Red. masses --      1.5892                 2.4073                 3.0442
 Frc consts  --      0.0609                 0.1079                 0.2723
 IR Inten    --      0.2406                 0.9130                 4.5442

                      7                      8                      9
                      A                      A                      A
 Frequencies --    476.0723               503.3045               641.2476
 Red. masses --      3.6430                 4.2870                 3.0367
 Frc consts  --      0.4865                 0.6398                 0.7357
 IR Inten    --      6.9142                 3.7068                 0.2831

                     10                     11                     12
                      A                      A                      A
 Frequencies --    677.2806               736.5413               756.5745
 Red. masses --      3.9998                 4.3973                 2.4315
 Frc consts  --      1.0810                 1.4055                 0.8200
 IR Inten    --      0.9355                 6.1109                16.5971

                     13                     14                     15
                      A                      A                      A
 Frequencies --    796.7578               815.3358               895.1882
 Red. masses --      4.0740                 1.8375                 2.3124
 Frc consts  --      1.5238                 0.7197                 1.0918
 IR Inten    --      1.4056                11.9646                 5.6943

                     16                     17                     18
                      A                      A                      A
 Frequencies --    923.0358               941.7838               945.8649
 Red. masses --      2.5707                 2.6800                 1.7846
 Frc consts  --      1.2904                 1.4005                 0.9407
 IR Inten    --     11.4611                 4.6870                10.5490

                     19                     20                     21
                      A                      A                      A
 Frequencies --    973.7990               985.9598              1016.8031
 Red. masses --      2.2239                 2.2656                 1.5816
 Frc consts  --      1.2425                 1.2976                 0.9634
 IR Inten    --     16.7281                 3.6985                 0.6883

                     22                     23                     24
                      A                      A                      A
 Frequencies --   1031.5693              1072.5509              1096.7802
 Red. masses --      2.6285                 1.7611                 5.6634
 Frc consts  --      1.6480                 1.1936                 4.0139
 IR Inten    --     26.2005                 3.4931                84.9126

                     25                     26                     27
                      A                      A                      A
 Frequencies --   1120.3593              1141.0486              1168.2804
 Red. masses --      1.8443                 1.5739                 1.4911
 Frc consts  --      1.3639                 1.2074                 1.1991
 IR Inten    --      7.8878                 0.8626                11.8780

                     28                     29                     30
                      A                      A                      A
 Frequencies --   1199.6575              1213.3591              1230.8275
 Red. masses --      1.7972                 1.4245                 1.4819
 Frc consts  --      1.5239                 1.2356                 1.3227
 IR Inten    --     10.0584                 1.2184                 8.4785

                     31                     32                     33
                      A                      A                      A
 Frequencies --   1264.7380              1277.1606              1297.4812
 Red. masses --      1.7461                 1.9098                 1.2978
 Frc consts  --      1.6455                 1.8354                 1.2872
 IR Inten    --     14.4278                14.4395                 1.7915

                     34                     35                     36
                      A                      A                      A
 Frequencies --   1342.2215              1372.0232              1408.8484
 Red. masses --      1.5655                 1.6389                 1.3277
 Frc consts  --      1.6617                 1.8177                 1.5527
 IR Inten    --      4.7943                 4.8271                 2.6718

                     37                     38                     39
                      A                      A                      A
 Frequencies --   1420.7409              1469.7037              1497.9019
 Red. masses --      2.3449                 1.0776                 1.0386
 Frc consts  --      2.7887                 1.3715                 1.3730
 IR Inten    --      6.9721                 2.0130                 5.7800

                     40                     41                     42
                      A                      A                      A
 Frequencies --   1507.4864              1519.0635              3023.6953
 Red. masses --      1.0729                 1.0984                 1.0565
 Frc consts  --      1.4366                 1.4934                 5.6910
 IR Inten    --      5.3913                 0.7234                46.6086

                     43                     44                     45
                      A                      A                      A
 Frequencies --   3026.4296              3043.4500              3061.1153
 Red. masses --      1.0592                 1.0356                 1.1054
 Frc consts  --      5.7158                 5.6514                 6.1030
 IR Inten    --     31.7420                22.9642                20.5457

                     46                     47                     48
                      A                      A                      A
 Frequencies --   3063.0806              3111.6631              3124.6556
 Red. masses --      1.1053                 1.1017                 1.1021
 Frc consts  --      6.1101                 6.2846                 6.3396
 IR Inten    --     22.4240                31.8773                21.1713

                     49                     50                     51
                      A                      A                      A
 Frequencies --   3125.8611              3145.0098              3160.2113
 Red. masses --      1.0904                 1.0906                 1.0937
 Frc consts  --      6.2775                 6.3556                 6.4354
 IR Inten    --     39.8486                27.2364                16.7304

 - Thermochemistry -
 -------------------
 Temperature   298.150 Kelvin.  Pressure   1.00000 Atm.
 Atom     1 has atomic number  6 and mass  12.00000

 Molecular mass:   126.06808 amu.
 Principal axes and moments of inertia in atomic units:
                           1         2         3
     Eigenvalues --   606.410351221.901021387.95739
           X            0.99916   0.03594  -0.01956
           Y           -0.03464   0.99740   0.06323
           Z            0.02179  -0.06250   0.99781
 This molecule is an asymmetric top.
 Rotational symmetry number  1.
 Warning -- assumption of classical behavior for rotation
           may cause significant error
 Rotational temperatures (Kelvin)      0.14283     0.07088     0.06240
 Rotational constants (GHZ):           2.97611     1.47699     1.30029
 Zero-point vibrational energy     418471.7 (Joules/Mol)
                                  100.01713 (Kcal/Mol)
 Warning -- explicit consideration of   8 degrees of freedom as
           vibrations may cause significant error
 Vibrational temperatures:    111.20   231.02   261.84   367.05   396.92
          (Kelvin)            560.63   684.96   724.14   922.61   974.45
                             1059.72  1088.54  1146.36  1173.08  1287.97
                             1328.04  1355.02  1360.89  1401.08  1418.57
                             1462.95  1484.20  1543.16  1578.02  1611.95
                             1641.71  1680.89  1726.04  1745.75  1770.88
                             1819.67  1837.55  1866.78  1931.15  1974.03
                             2027.02  2044.13  2114.57  2155.14  2168.93
                             2185.59  4350.42  4354.35  4378.84  4404.26
                             4407.08  4476.98  4495.68  4497.41  4524.96
                             4546.83

 Zero-point correction=                           0.159387 (Hartree/Particle)
 Thermal correction to Energy=                    0.167127
 Thermal correction to Enthalpy=                  0.168072
 Thermal correction to Gibbs Free Energy=         0.127021
 Sum of electronic and zero-point Energies=           -422.966519
 Sum of electronic and thermal Energies=              -422.958779
 Sum of electronic and thermal Enthalpies=            -422.957835
 Sum of electronic and thermal Free Energies=         -422.998885

                     E (Thermal)             CV                S
                      KCal/Mol        Cal/Mol-Kelvin    Cal/Mol-Kelvin
 Total                  104.874             30.277             86.398
 Electronic               0.000              0.000              0.000
 Translational            0.889              2.981             40.409
 Rotational               0.889              2.981             28.421
 Vibrational            103.097             24.316             17.568
 Vibration     1          0.599              1.964              3.959
 Vibration     2          0.622              1.891              2.543
 Vibration     3          0.630              1.864              2.308
 Vibration     4          0.665              1.754              1.695
 Vibration     5          0.678              1.718              1.559
 Vibration     6          0.758              1.492              1.001
 Vibration     7          0.833              1.303              0.721
 Vibration     8          0.859              1.243              0.650

 Optimization completed.
    -- Stationary point found.
 Normal termination of Gaussian 09 at Tue Jan 28 11:13:20 2020.
