 Gaussian 09, Revision D.01,
 Gaussian 09:  ES64L-G09RevD.01 24-Apr-2013

 -----------------------------
 # b3lyp 6-31G(2df,p) opt Freq
 -----------------------------

 -----
 titel
 -----
 Symbolic Z-matrix:
 Charge =  0 Multiplicity = 1

 SCF Done:  E(RB3LYP) =  -423.154804942     A.U. after   13 cycles
 Optimization completed.
    -- Stationary point found.
 Normal termination of Gaussian 09 at Mon Jan 27 18:09:17 2020.

 ----------------------------------------------------------------------
 #N Geom=AllCheck Guess=TCheck SCRF=Check GenChk RB3LYP/6-31G(2df,p) Fr
 eq
 ----------------------------------------------------------------------

 Structure from the checkpoint file:  "/scratch/puck/g09_692009e9-0a2f-4dda-9a99-7e510e11f107/Gau-62884.chk"
 -----
 titel
 -----
 Charge =  0 Multiplicity = 1

                         Standard orientation:
 ---------------------------------------------------------------------
 Center     Atomic      Atomic             Coordinates (Angstroms)
 Number     Number       Type             X           Y           Z
 ---------------------------------------------------------------------
      1          8           0        2.305005   -0.044844   -0.491479
      2          6           0        0.967960   -0.009646   -0.073073
      3          6           0        0.686154   -0.642165    1.306658
      4          6           0       -0.661442   -1.084853    0.714542
      5          6           0       -1.566261    0.129092    0.253740
      6          6           0       -1.371442   -0.322435   -1.221219
      7          6           0       -0.082205   -1.005770   -0.731818
      8          8           0       -0.929166    1.372824    0.505474
      9          6           0        0.378392    1.405940   -0.063174
     10          1           0        2.362433    0.358180   -1.365585
     11          1           0        1.336117   -1.504645    1.477493
     12          1           0        0.700317    0.018886    2.177443
     13          1           0       -1.193495   -1.953900    1.102129
     14          1           0       -2.575268    0.210327    0.659844
     15          1           0       -2.118949   -1.068167   -1.508142
     16          1           0       -1.336043    0.457739   -1.988102
     17          1           0        0.368708   -1.851815   -1.252776
     18          1           0        0.351256    1.820588   -1.084979
     19          1           0        0.991273    2.067990    0.556783
 ---------------------------------------------------------------------

 SCF Done:  E(RB3LYP) =  -423.154804942     A.U. after    1 cycles

 The electronic state is 1-A.
 Alpha  occ. eigenvalues --  -19.14450 -19.13975 -10.23881 -10.23342 -10.22524
 Alpha  occ. eigenvalues --  -10.18593 -10.18547 -10.18156 -10.17724  -1.04203
 Alpha  occ. eigenvalues --   -1.02419  -0.86598  -0.76736  -0.70912  -0.62543
 Alpha  occ. eigenvalues --   -0.61902  -0.60245  -0.53734  -0.51423  -0.48470
 Alpha  occ. eigenvalues --   -0.47155  -0.45682  -0.42447  -0.40721  -0.39610
 Alpha  occ. eigenvalues --   -0.38811  -0.36977  -0.35860  -0.33594  -0.31670
 Alpha  occ. eigenvalues --   -0.29117  -0.27906  -0.25799  -0.24039
 Alpha virt. eigenvalues --    0.06534   0.08927   0.10882   0.12328   0.12739
 Alpha virt. eigenvalues --    0.13425   0.14418   0.16092   0.16525   0.18364
 Alpha virt. eigenvalues --    0.18563   0.19806   0.20363   0.20756   0.21388

 Mulliken charges:
               1
     1  O   -0.487165
     2  C    0.372137
     3  C   -0.263023
     4  C   -0.046289
     5  C    0.107904
     6  C   -0.266725
     7  C   -0.100075
     8  O   -0.264847
     9  C   -0.144860
    10  H    0.276713
    11  H    0.107984
    12  H    0.103128
    13  H    0.067041
    14  H    0.079748
    15  H    0.102523
    16  H    0.096136
    17  H    0.066402
    18  H    0.079970
    19  H    0.113299
 Sum of Mulliken charges =   0.00000

 Dipole moment (field-independent basis, Debye):
    X=             -0.3343    Y=             -0.5610    Z=             -1.3734  Tot=              1.5208
 Quadrupole moment (field-independent basis, Debye-Ang):
   XX=            -55.1984   YY=            -53.8248   ZZ=            -50.6620
   XY=              4.1325   XZ=             -1.7155   YZ=             -2.2135

  Exact polarizability:  77.956   3.396  70.987   1.126  -2.143  72.110
 Approx polarizability: 111.952   3.052 105.167  -1.392  -1.800 108.310

                      1                      2                      3
                      A                      A                      A
 Frequencies --    246.0022               254.9932               304.4245
 Red. masses --      1.1555                 3.1396                 2.5899
 Frc consts  --      0.0412                 0.1203                 0.1414
 IR Inten    --     58.8393                 3.4061                19.6808

                      4                      5                      6
                      A                      A                      A
 Frequencies --    333.3524               403.9659               437.6966
 Red. masses --      3.3099                 2.4550                 2.8727
 Frc consts  --      0.2167                 0.2360                 0.3243
 IR Inten    --     22.5586                 4.9961                 7.0737

                      7                      8                      9
                      A                      A                      A
 Frequencies --    442.1578               499.5827               585.3640
 Red. masses --      2.0506                 4.9366                 3.7769
 Frc consts  --      0.2362                 0.7259                 0.7625
 IR Inten    --      1.6901                 3.2267                 1.6124

                     10                     11                     12
                      A                      A                      A
 Frequencies --    637.3309               705.3471               774.6825
 Red. masses --      4.6748                 3.5560                 2.5518
 Frc consts  --      1.1188                 1.0423                 0.9023
 IR Inten    --      0.6169                 8.4807                 4.7664

                     13                     14                     15
                      A                      A                      A
 Frequencies --    826.7781               866.0723               897.3439
 Red. masses --      1.9319                 2.0856                 2.6475
 Frc consts  --      0.7781                 0.9217                 1.2560
 IR Inten    --      6.5860                 6.6530                 3.0053

                     16                     17                     18
                      A                      A                      A
 Frequencies --    917.6185               946.3610               960.4990
 Red. masses --      2.3626                 2.1711                 1.8827
 Frc consts  --      1.1721                 1.1456                 1.0233
 IR Inten    --      7.2723                 0.2681                 4.3231

                     19                     20                     21
                      A                      A                      A
 Frequencies --    984.6747               992.5856              1018.6843
 Red. masses --      1.8696                 1.9269                 2.1243
 Frc consts  --      1.0680                 1.1185                 1.2988
 IR Inten    --     14.3433                 1.8348                16.5855

                     22                     23                     24
                      A                      A                      A
 Frequencies --   1057.6592              1063.7104              1105.7667
 Red. masses --      1.4198                 1.7615                 2.0622
 Frc consts  --      0.9358                 1.1743                 1.4856
 IR Inten    --      9.7361                30.5895                26.9149

                     25                     26                     27
                      A                      A                      A
 Frequencies --   1121.8980              1144.6447              1184.8127
 Red. masses --      1.9123                 2.5635                 3.3370
 Frc consts  --      1.4181                 1.9789                 2.7600
 IR Inten    --      9.8768                24.7937               135.2101

                     28                     29                     30
                      A                      A                      A
 Frequencies --   1203.7399              1212.3295              1225.4424
 Red. masses --      1.6407                 1.4661                 1.2476
 Frc consts  --      1.4007                 1.2695                 1.1039
 IR Inten    --      8.4931                 1.5027                 1.2948

                     31                     32                     33
                      A                      A                      A
 Frequencies --   1246.9218              1266.2383              1269.0095
 Red. masses --      1.4512                 1.9160                 1.6928
 Frc consts  --      1.3294                 1.8100                 1.6062
 IR Inten    --      4.0747                 2.4372                 6.1896

                     34                     35                     36
                      A                      A                      A
 Frequencies --   1289.1752              1300.7114              1354.5201
 Red. masses --      1.6390                 1.5924                 1.4536
 Frc consts  --      1.6049                 1.5873                 1.5713
 IR Inten    --      9.8717                17.3865                32.6605

                     37                     38                     39
                      A                      A                      A
 Frequencies --   1370.0237              1406.0351              1478.8910
 Red. masses --      1.7306                 1.4799                 1.1461
 Frc consts  --      1.9138                 1.7238                 1.4769
 IR Inten    --     16.3330                 3.1452                 2.8157

                     40                     41                     42
                      A                      A                      A
 Frequencies --   1484.0979              1518.6996              2961.0546
 Red. masses --      1.1188                 1.0903                 1.0705
 Frc consts  --      1.4519                 1.4816                 5.5299
 IR Inten    --      3.0541                 0.5364                68.6565

                     43                     44                     45
                      A                      A                      A
 Frequencies --   3046.3163              3055.5515              3074.4978
 Red. masses --      1.0576                 1.0568                 1.0918
 Frc consts  --      5.7826                 5.8135                 6.0808
 IR Inten    --     40.0102                28.4690                36.1916

                     46                     47                     48
                      A                      A                      A
 Frequencies --   3095.7799              3099.0584              3102.5907
 Red. masses --      1.0999                 1.0948                 1.0902
 Frc consts  --      6.2109                 6.1948                 6.1830
 IR Inten    --     20.9180                21.4734                43.4292

                     49                     50                     51
                      A                      A                      A
 Frequencies --   3112.7159              3115.6832              3789.8519
 Red. masses --      1.0963                 1.1035                 1.0657
 Frc consts  --      6.2583                 6.3116                 9.0185
 IR Inten    --     42.5115                33.5545                13.8183

 - Thermochemistry -
 -------------------
 Temperature   298.150 Kelvin.  Pressure   1.00000 Atm.
 Atom     1 has atomic number  8 and mass  15.99491

 Molecular mass:   126.06808 amu.
 Principal axes and moments of inertia in atomic units:
                           1         2         3
     Eigenvalues --   659.51439 992.651251085.37729
           X            0.99863   0.04836   0.02017
           Y           -0.04634   0.99479  -0.09075
           Z           -0.02445   0.08969   0.99567
 This molecule is an asymmetric top.
 Rotational symmetry number  1.
 Warning -- assumption of classical behavior for rotation
           may cause significant error
 Rotational temperatures (Kelvin)      0.13133     0.08726     0.07980
 Rotational constants (GHZ):           2.73647     1.81810     1.66278
 Zero-point vibrational energy     423435.8 (Joules/Mol)
                                  101.20359 (Kcal/Mol)
 Warning -- explicit consideration of   9 degrees of freedom as
           vibrations may cause significant error
 Vibrational temperatures:    353.94   366.88   438.00   479.62   581.22
          (Kelvin)            629.75   636.17   718.79   842.21   916.98
                             1014.84  1114.59  1189.55  1246.08  1291.08
                             1320.25  1361.60  1381.94  1416.73  1428.11
                             1465.66  1521.73  1530.44  1590.95  1614.16
                             1646.89  1704.68  1731.91  1744.27  1763.14
                             1794.04  1821.83  1825.82  1854.83  1871.43
                             1948.85  1971.16  2022.97  2127.79  2135.28
                             2185.07  4260.29  4382.96  4396.25  4423.51
                             4454.13  4458.85  4463.93  4478.50  4482.77
                             5452.74

 Zero-point correction=                           0.161278 (Hartree/Particle)
 Thermal correction to Energy=                    0.168188
 Thermal correction to Enthalpy=                  0.169132
 Thermal correction to Gibbs Free Energy=         0.130618
 Sum of electronic and zero-point Energies=           -422.993527
 Sum of electronic and thermal Energies=              -422.986617
 Sum of electronic and thermal Enthalpies=            -422.985673
 Sum of electronic and thermal Free Energies=         -423.024187

                     E (Thermal)             CV                S
                      KCal/Mol        Cal/Mol-Kelvin    Cal/Mol-Kelvin
 Total                  105.540             29.499             81.061
 Electronic               0.000              0.000              0.000
 Translational            0.889              2.981             40.409
 Rotational               0.889              2.981             28.054
 Vibrational            103.762             23.538             12.598
 Vibration     1          0.660              1.769              1.759
 Vibration     2          0.665              1.754              1.696
 Vibration     3          0.695              1.665              1.392
 Vibration     4          0.715              1.609              1.244
 Vibration     5          0.769              1.462              0.948
 Vibration     6          0.798              1.388              0.834
 Vibration     7          0.802              1.378              0.820
 Vibration     8          0.855              1.251              0.659
 Vibration     9          0.942              1.063              0.476

 Optimization completed.
    -- Stationary point found.
 Normal termination of Gaussian 09 at Mon Jan 27 18:56:57 2020.
