 Gaussian 09, Revision D.01,
 Gaussian 09:  ES64L-G09RevD.01 24-Apr-2013

 -----------------------------
 # b3lyp 6-31G(2df,p) opt Freq
 -----------------------------

 -----
 titel
 -----
 Symbolic Z-matrix:
 Charge =  0 Multiplicity = 1

 SCF Done:  E(RB3LYP) =  -423.173849893     A.U. after   14 cycles
 Optimization completed.
    -- Stationary point found.
 Normal termination of Gaussian 09 at Tue Jan 28 12:36:57 2020.

 ----------------------------------------------------------------------
 #N Geom=AllCheck Guess=TCheck SCRF=Check GenChk RB3LYP/6-31G(2df,p) Fr
 eq
 ----------------------------------------------------------------------

 Structure from the checkpoint file:  "/scratch/puck/g09_8957ea3a-6a56-4090-a9cf-072f399fc12b/Gau-142083.chk"
 -----
 titel
 -----
 Charge =  0 Multiplicity = 1

                         Standard orientation:
 ---------------------------------------------------------------------
 Center     Atomic      Atomic             Coordinates (Angstroms)
 Number     Number       Type             X           Y           Z
 ---------------------------------------------------------------------
      1          6           0        2.822801   -0.543651    0.204024
      2          6           0        1.418209   -0.994880   -0.207561
      3          6           0        0.320360   -0.214843    0.524481
      4          6           0        0.102339    1.202067   -0.081586
      5          8           0        0.869271    2.095408   -0.324504
      6          6           0       -1.308780    0.931122   -0.474620
      7          6           0       -2.082144    0.374962    0.735130
      8          6           0       -1.118213   -0.531613    0.084776
      9          8           0       -1.404787   -1.749944   -0.481823
     10          1           0        2.960221    0.522022    0.003747
     11          1           0        2.992115   -0.710643    1.273783
     12          1           0        3.587585   -1.101101   -0.345244
     13          1           0        1.288588   -0.874709   -1.290117
     14          1           0        1.280609   -2.062377   -0.000988
     15          1           0        0.485817   -0.256438    1.608594
     16          1           0       -1.839450    1.332982   -1.329388
     17          1           0       -1.919870    0.771578    1.735127
     18          1           0       -3.129735    0.196218    0.500577
     19          1           0       -2.349187   -1.920237   -0.413335
 ---------------------------------------------------------------------

 SCF Done:  E(RB3LYP) =  -423.173849893     A.U. after    1 cycles

 The electronic state is 1-A.
 Alpha  occ. eigenvalues --  -19.17185 -19.12475 -10.26638 -10.26321 -10.21377
 Alpha  occ. eigenvalues --  -10.20153 -10.19503 -10.18349 -10.16650  -1.06043
 Alpha  occ. eigenvalues --   -1.03407  -0.89997  -0.78401  -0.70900  -0.65119
 Alpha  occ. eigenvalues --   -0.61064  -0.59839  -0.52997  -0.51949  -0.48897
 Alpha  occ. eigenvalues --   -0.46032  -0.43162  -0.42472  -0.41538  -0.40487
 Alpha  occ. eigenvalues --   -0.39051  -0.37563  -0.36658  -0.34365  -0.34113
 Alpha  occ. eigenvalues --   -0.33762  -0.30375  -0.24954  -0.23345
 Alpha virt. eigenvalues --   -0.00659   0.06040   0.09738   0.10429   0.11390
 Alpha virt. eigenvalues --    0.11897   0.14709   0.15124   0.16377   0.16798
 Alpha virt. eigenvalues --    0.17572   0.18698   0.19940   0.21055   0.22960

 Mulliken charges:
               1
     1  C   -0.394716
     2  C   -0.185462
     3  C   -0.184135
     4  C    0.443651
     5  O   -0.333902
     6  C   -0.262148
     7  C   -0.361027
     8  C    0.419769
     9  O   -0.451905
    10  H    0.148674
    11  H    0.109476
    12  H    0.109982
    13  H    0.105653
    14  H    0.108132
    15  H    0.081663
    16  H    0.109858
    17  H    0.125096
    18  H    0.116448
    19  H    0.294894
 Sum of Mulliken charges =   0.00000

 Dipole moment (field-independent basis, Debye):
    X=             -3.2008    Y=             -2.1336    Z=              0.8402  Tot=              3.9375
 Quadrupole moment (field-independent basis, Debye-Ang):
   XX=            -46.1372   YY=            -60.2021   ZZ=            -52.2769
   XY=             -1.3304   XZ=              0.6928   YZ=              0.4780

  Exact polarizability:  91.997   1.302  75.811  -0.404  -1.871  63.205
 Approx polarizability: 121.539  10.223 122.308  -1.621  -5.379  99.047

                      1                      2                      3
                      A                      A                      A
 Frequencies --     84.8968               114.7089               133.0906
 Red. masses --      3.9178                 2.0974                 1.4665
 Frc consts  --      0.0166                 0.0163                 0.0153
 IR Inten    --      0.4234                 8.6382                70.3892

                      4                      5                      6
                      A                      A                      A
 Frequencies --    161.5480               202.6884               266.3240
 Red. masses --      2.7826                 2.1346                 1.3602
 Frc consts  --      0.0428                 0.0517                 0.0568
 IR Inten    --      8.5710                10.3102                 1.3076

                      7                      8                      9
                      A                      A                      A
 Frequencies --    306.9875               362.0209               403.2610
 Red. masses --      2.9965                 3.0186                 3.0937
 Frc consts  --      0.1664                 0.2331                 0.2964
 IR Inten    --      3.8115                 1.2475                 3.2256

                     10                     11                     12
                      A                      A                      A
 Frequencies --    462.4414               494.1535               596.6809
 Red. masses --      4.6756                 3.1252                 4.2591
 Frc consts  --      0.5891                 0.4496                 0.8934
 IR Inten    --      2.3456                 1.0479                 0.1834

                     13                     14                     15
                      A                      A                      A
 Frequencies --    673.7972               716.9581               763.0796
 Red. masses --      3.8166                 3.0503                 2.2757
 Frc consts  --      1.0209                 0.9238                 0.7807
 IR Inten    --     19.5373                 5.0536                15.3228

                     16                     17                     18
                      A                      A                      A
 Frequencies --    813.2652               861.6537               888.3645
 Red. masses --      2.0719                 2.1358                 2.2265
 Frc consts  --      0.8074                 0.9343                 1.0353
 IR Inten    --     37.4577                18.5823                 9.9981

                     19                     20                     21
                      A                      A                      A
 Frequencies --    923.7368               959.5453               985.5663
 Red. masses --      1.4429                 1.4007                 1.6777
 Frc consts  --      0.7254                 0.7598                 0.9602
 IR Inten    --     40.7209                 6.6432                 2.4153

                     22                     23                     24
                      A                      A                      A
 Frequencies --   1035.1281              1066.5558              1074.7642
 Red. masses --      2.3172                 1.8411                 1.5509
 Frc consts  --      1.4629                 1.2340                 1.0555
 IR Inten    --      3.9982                 9.8979                25.8578

                     25                     26                     27
                      A                      A                      A
 Frequencies --   1094.3459              1122.8785              1137.2980
 Red. masses --      1.5850                 1.7093                 2.3990
 Frc consts  --      1.1184                 1.2698                 1.8282
 IR Inten    --      8.7124                 6.3352                 7.9129

                     28                     29                     30
                      A                      A                      A
 Frequencies --   1164.3770              1223.4670              1242.7126
 Red. masses --      2.0241                 1.5710                 2.1260
 Frc consts  --      1.6169                 1.3855                 1.9344
 IR Inten    --     74.7197                12.1615                19.3176

                     31                     32                     33
                      A                      A                      A
 Frequencies --   1275.5514              1322.8958              1370.2426
 Red. masses --      1.3101                 1.2599                 1.4346
 Frc consts  --      1.2559                 1.2991                 1.5870
 IR Inten    --      3.3010                 8.2914                 4.0957

                     34                     35                     36
                      A                      A                      A
 Frequencies --   1386.5507              1408.4447              1413.3945
 Red. masses --      2.9394                 2.1262                 1.2609
 Frc consts  --      3.3295                 2.4850                 1.4841
 IR Inten    --    123.9296                17.8390                 3.6209

                     37                     38                     39
                      A                      A                      A
 Frequencies --   1489.0095              1499.6875              1502.8747
 Red. masses --      1.0685                 1.0452                 1.3482
 Frc consts  --      1.3958                 1.3850                 1.7941
 IR Inten    --      1.6078                 6.2870                24.4672

                     40                     41                     42
                      A                      A                      A
 Frequencies --   1513.9306              1863.0989              3022.9536
 Red. masses --      1.0602                12.2013                 1.0806
 Frc consts  --      1.4316                24.9533                 5.8178
 IR Inten    --      3.4040               287.0636                10.9869

                     43                     44                     45
                      A                      A                      A
 Frequencies --   3032.0307              3035.9894              3066.9636
 Red. masses --      1.0594                 1.0409                 1.1010
 Frc consts  --      5.7384                 5.6526                 6.1017
 IR Inten    --     18.7665                39.9144                18.0070

                     46                     47                     48
                      A                      A                      A
 Frequencies --   3094.0258              3100.5689              3127.4437
 Red. masses --      1.0546                 1.1006                 1.1012
 Frc consts  --      5.9482                 6.2339                 6.3460
 IR Inten    --     23.3617                38.2577                14.6897

                     49                     50                     51
                      A                      A                      A
 Frequencies --   3174.2011              3193.2974              3830.2199
 Red. masses --      1.1155                 1.0939                 1.0662
 Frc consts  --      6.6221                 6.5721                 9.2163
 IR Inten    --      7.9630                 7.3543                40.7377

 - Thermochemistry -
 -------------------
 Temperature   298.150 Kelvin.  Pressure   1.00000 Atm.
 Atom     1 has atomic number  6 and mass  12.00000

 Molecular mass:   126.06808 amu.
 Principal axes and moments of inertia in atomic units:
                           1         2         3
     Eigenvalues --   753.214421214.483301751.12104
           X            0.99783  -0.06580   0.00084
           Y            0.06580   0.99783   0.00389
           Z           -0.00109  -0.00383   0.99999
 This molecule is an asymmetric top.
 Rotational symmetry number  1.
 Warning -- assumption of classical behavior for rotation
           may cause significant error
 Rotational temperatures (Kelvin)      0.11499     0.07132     0.04946
 Rotational constants (GHZ):           2.39605     1.48602     1.03062
 Zero-point vibrational energy     413068.6 (Joules/Mol)
                                   98.72575 (Kcal/Mol)
 Warning -- explicit consideration of  12 degrees of freedom as
           vibrations may cause significant error
 Vibrational temperatures:    122.15   165.04   191.49   232.43   291.62
          (Kelvin)            383.18   441.69   520.87   580.20   665.35
                              710.98   858.49   969.44  1031.54  1097.90
                             1170.11  1239.73  1278.16  1329.05  1380.57
                             1418.01  1489.32  1534.53  1546.34  1574.52
                             1615.57  1636.32  1675.28  1760.29  1787.98
                             1835.23  1903.35  1971.47  1994.93  2026.44
                             2033.56  2142.35  2157.71  2162.30  2178.21
                             2680.58  4349.35  4362.41  4368.11  4412.67
                             4451.61  4461.02  4499.69  4566.96  4594.44
                             5510.83

 Zero-point correction=                           0.157330 (Hartree/Particle)
 Thermal correction to Energy=                    0.166584
 Thermal correction to Enthalpy=                  0.167528
 Thermal correction to Gibbs Free Energy=         0.123282
 Sum of electronic and zero-point Energies=           -423.016520
 Sum of electronic and thermal Energies=              -423.007266
 Sum of electronic and thermal Enthalpies=            -423.006322
 Sum of electronic and thermal Free Energies=         -423.050568

                     E (Thermal)             CV                S
                      KCal/Mol        Cal/Mol-Kelvin    Cal/Mol-Kelvin
 Total                  104.533             34.319             93.124
 Electronic               0.000              0.000              0.000
 Translational            0.889              2.981             40.409
 Rotational               0.889              2.981             28.862
 Vibrational            102.756             28.358             23.854
 Vibration     1          0.601              1.960              3.774
 Vibration     2          0.608              1.937              3.188
 Vibration     3          0.613              1.920              2.901
 Vibration     4          0.622              1.890              2.532
 Vibration     5          0.639              1.836              2.109
 Vibration     6          0.672              1.735              1.620
 Vibration     7          0.697              1.660              1.379
 Vibration     8          0.736              1.550              1.113
 Vibration     9          0.769              1.463              0.951
 Vibration    10          0.820              1.333              0.759
 Vibration    11          0.850              1.263              0.673
 Vibration    12          0.955              1.039              0.455

 Optimization completed.
    -- Stationary point found.
 Normal termination of Gaussian 09 at Tue Jan 28 13:19:18 2020.
