 Gaussian 09, Revision D.01,
 Gaussian 09:  ES64L-G09RevD.01 24-Apr-2013

 -----------------------------
 # b3lyp 6-31G(2df,p) opt Freq
 -----------------------------

 -----
 titel
 -----
 Symbolic Z-matrix:
 Charge =  0 Multiplicity = 1

 SCF Done:  E(RB3LYP) =  -423.090518075     A.U. after   14 cycles
 Optimization completed.
    -- Stationary point found.
 Normal termination of Gaussian 09 at Tue Jan 28 14:05:59 2020.

 ----------------------------------------------------------------------
 #N Geom=AllCheck Guess=TCheck SCRF=Check GenChk RB3LYP/6-31G(2df,p) Fr
 eq
 ----------------------------------------------------------------------

 Structure from the checkpoint file:  "/scratch/puck/g09_a459ddfd-e032-4d29-9537-d35e950ff241/Gau-98227.chk"
 -----
 titel
 -----
 Charge =  0 Multiplicity = 1

                         Standard orientation:
 ---------------------------------------------------------------------
 Center     Atomic      Atomic             Coordinates (Angstroms)
 Number     Number       Type             X           Y           Z
 ---------------------------------------------------------------------
      1          6           0       -3.017890   -0.623354   -0.319599
      2          8           0       -2.096268    0.093008    0.474244
      3          6           0       -0.781292   -0.349784    0.324071
      4          6           0        0.066377    0.146193   -0.905852
      5          6           0        0.043168    1.562340   -0.236182
      6          6           0        0.299709    0.569646    0.950468
      7          6           0        1.271518   -0.139054   -0.003195
      8          6           0        2.286911   -1.175094    0.106884
      9          8           0        2.611354    0.194886   -0.247981
     10          1           0       -2.989728   -1.701499   -0.098113
     11          1           0       -4.013582   -0.240671   -0.084407
     12          1           0       -2.827460   -0.486392   -1.394088
     13          1           0       -0.702930   -1.423738    0.549159
     14          1           0       -0.054518   -0.104671   -1.959148
     15          1           0        0.867624    2.228384   -0.493082
     16          1           0       -0.919185    2.070330   -0.226223
     17          1           0        0.435913    0.800984    2.006044
     18          1           0        2.647102   -1.491656    1.084587
     19          1           0        2.425066   -1.899580   -0.694398
 ---------------------------------------------------------------------

 SCF Done:  E(RB3LYP) =  -423.090518074     A.U. after    1 cycles

 The electronic state is 1-A.
 Alpha  occ. eigenvalues --  -19.14901 -19.14699 -10.24666 -10.24267 -10.23223
 Alpha  occ. eigenvalues --  -10.22883 -10.20075 -10.20003 -10.18800  -1.07184
 Alpha  occ. eigenvalues --   -1.04384  -0.90616  -0.70733  -0.67972  -0.64283
 Alpha  occ. eigenvalues --   -0.63880  -0.60352  -0.53381  -0.50508  -0.49878
 Alpha  occ. eigenvalues --   -0.48112  -0.47584  -0.45030  -0.43212  -0.39369
 Alpha  occ. eigenvalues --   -0.38394  -0.35297  -0.34039  -0.33245  -0.32582
 Alpha  occ. eigenvalues --   -0.30788  -0.28989  -0.26421  -0.24995
 Alpha virt. eigenvalues --    0.09169   0.09669   0.11053   0.12122   0.12746
 Alpha virt. eigenvalues --    0.13208   0.13863   0.14769   0.15462   0.16382
 Alpha virt. eigenvalues --    0.16663   0.17538   0.18615   0.19652   0.20366

 Mulliken charges:
               1
     1  C   -0.245709
     2  O   -0.256751
     3  C    0.194342
     4  C   -0.214077
     5  C   -0.234695
     6  C   -0.211553
     7  C    0.556048
     8  C   -0.322561
     9  O   -0.300398
    10  H    0.106823
    11  H    0.130070
    12  H    0.110345
    13  H    0.063368
    14  H    0.077718
    15  H    0.111983
    16  H    0.113172
    17  H    0.083322
    18  H    0.119912
    19  H    0.118639
 Sum of Mulliken charges =   0.00000

 Dipole moment (field-independent basis, Debye):
    X=             -1.3176    Y=             -1.7639    Z=             -0.3196  Tot=              2.2248
 Quadrupole moment (field-independent basis, Debye-Ang):
   XX=            -56.0989   YY=            -51.2067   ZZ=            -52.2902
   XY=             -1.4998   XZ=              3.6536   YZ=              0.1267

  Exact polarizability:  89.435  -3.903  74.357   2.481  -0.579  65.961
 Approx polarizability: 115.209  -3.301 111.486   0.775  -0.780 102.516

                      1                      2                      3
                      A                      A                      A
 Frequencies --     88.5179               141.1922               169.7323
 Red. masses --      2.7810                 3.1142                 1.3285
 Frc consts  --      0.0128                 0.0366                 0.0226
 IR Inten    --      1.2886                 0.4783                 0.4857

                      4                      5                      6
                      A                      A                      A
 Frequencies --    226.4480               285.3771               337.7758
 Red. masses --      2.6705                 2.8594                 3.5541
 Frc consts  --      0.0807                 0.1372                 0.2389
 IR Inten    --      4.2290                 2.8801                 6.0607

                      7                      8                      9
                      A                      A                      A
 Frequencies --    366.6297               445.9588               501.3727
 Red. masses --      3.5169                 4.3009                 3.3171
 Frc consts  --      0.2785                 0.5040                 0.4913
 IR Inten    --      2.6789                 1.1327                 1.2531

                     10                     11                     12
                      A                      A                      A
 Frequencies --    606.2127               667.5091               738.5882
 Red. masses --      3.9564                 2.7427                 2.6403
 Frc consts  --      0.8566                 0.7200                 0.8486
 IR Inten    --      6.7358                 1.9059                 0.8176

                     13                     14                     15
                      A                      A                      A
 Frequencies --    808.3527               882.8720               885.7335
 Red. masses --      3.0631                 2.5386                 2.6118
 Frc consts  --      1.1793                 1.1658                 1.2073
 IR Inten    --      0.7544                21.4738                24.7394

                     16                     17                     18
                      A                      A                      A
 Frequencies --    904.6201               926.1955               990.6740
 Red. masses --      2.5357                 1.9254                 5.1143
 Frc consts  --      1.2226                 0.9732                 2.9573
 IR Inten    --     11.8304                 4.9165                36.8356

                     19                     20                     21
                      A                      A                      A
 Frequencies --   1014.4579              1040.7423              1065.2460
 Red. masses --      1.0726                 2.8315                 1.4253
 Frc consts  --      0.6504                 1.8070                 0.9529
 IR Inten    --      0.5511                23.4597                 6.3366

                     22                     23                     24
                      A                      A                      A
 Frequencies --   1076.7644              1109.8057              1119.6898
 Red. masses --      2.2468                 1.2437                 2.2198
 Frc consts  --      1.5348                 0.9026                 1.6397
 IR Inten    --     24.1171                 2.9538                 3.5593

                     25                     26                     27
                      A                      A                      A
 Frequencies --   1124.5259              1141.2679              1155.8442
 Red. masses --      2.6671                 1.9600                 1.4506
 Frc consts  --      1.9872                 1.5041                 1.1418
 IR Inten    --      3.8808                79.3482                11.8624

                     28                     29                     30
                      A                      A                      A
 Frequencies --   1171.3664              1184.2604              1203.6855
 Red. masses --      1.8782                 1.2954                 1.4720
 Frc consts  --      1.5183                 1.0704                 1.2565
 IR Inten    --     46.5864                 2.3016                 5.3211

                     31                     32                     33
                      A                      A                      A
 Frequencies --   1211.6518              1231.9541              1256.3313
 Red. masses --      1.5183                 1.7238                 1.9785
 Frc consts  --      1.3133                 1.5414                 1.8399
 IR Inten    --      0.6431                22.3643                48.1308

                     34                     35                     36
                      A                      A                      A
 Frequencies --   1262.8952              1405.0392              1457.7948
 Red. masses --      2.0215                 1.2266                 1.5609
 Frc consts  --      1.8996                 1.4267                 1.9544
 IR Inten    --     32.4480                48.4479                26.9416

                     37                     38                     39
                      A                      A                      A
 Frequencies --   1482.2941              1487.8832              1504.4787
 Red. masses --      1.1353                 1.0627                 1.0816
 Frc consts  --      1.4697                 1.3861                 1.4424
 IR Inten    --      1.1868                 4.5350                10.7141

                     40                     41                     42
                      A                      A                      A
 Frequencies --   1511.4537              1561.4530              2978.7468
 Red. masses --      1.1068                 2.3832                 1.0393
 Frc consts  --      1.4897                 3.4234                 5.4334
 IR Inten    --      1.5995                22.2048                45.3214

                     43                     44                     45
                      A                      A                      A
 Frequencies --   2996.6974              3029.7869              3084.1915
 Red. masses --      1.0811                 1.1023                 1.0509
 Frc consts  --      5.7200                 5.9617                 5.8897
 IR Inten    --     70.3341                45.5580                24.5674

                     46                     47                     48
                      A                      A                      A
 Frequencies --   3091.5161              3119.3173              3122.7963
 Red. masses --      1.0556                 1.0965                 1.0916
 Frc consts  --      5.9443                 6.2862                 6.2722
 IR Inten    --     29.3584                27.5182                55.7006

                     49                     50                     51
                      A                      A                      A
 Frequencies --   3129.8680              3169.8531              3170.3721
 Red. masses --      1.0937                 1.1189                 1.1109
 Frc consts  --      6.3127                 6.6241                 6.5787
 IR Inten    --     15.5562                19.9963                16.6527

 - Thermochemistry -
 -------------------
 Temperature   298.150 Kelvin.  Pressure   1.00000 Atm.
 Atom     1 has atomic number  6 and mass  12.00000

 Molecular mass:   126.06808 amu.
 Principal axes and moments of inertia in atomic units:
                           1         2         3
     Eigenvalues --   424.318431672.672361806.86304
           X            0.99987   0.00097   0.01584
           Y           -0.00099   1.00000   0.00153
           Z           -0.01584  -0.00155   0.99987
 This molecule is an asymmetric top.
 Rotational symmetry number  1.
 Rotational temperatures (Kelvin)      0.20412     0.05178     0.04794
 Rotational constants (GHZ):           4.25327     1.07896     0.99883
 Zero-point vibrational energy     416586.3 (Joules/Mol)
                                   99.56652 (Kcal/Mol)
 Warning -- explicit consideration of  10 degrees of freedom as
           vibrations may cause significant error
 Vibrational temperatures:    127.36   203.14   244.21   325.81   410.59
          (Kelvin)            485.98   527.50   641.63   721.36   872.20
                              960.40  1062.66  1163.04  1270.25  1274.37
                             1301.54  1332.59  1425.36  1459.58  1497.39
                             1532.65  1549.22  1596.76  1610.98  1617.94
                             1642.03  1663.00  1685.33  1703.88  1731.83
                             1743.29  1772.50  1807.58  1817.02  2021.54
                             2097.44  2132.69  2140.73  2164.61  2174.64
                             2246.58  4285.75  4311.57  4359.18  4437.46
                             4448.00  4488.00  4493.00  4503.18  4560.71
                             4561.45

 Zero-point correction=                           0.158669 (Hartree/Particle)
 Thermal correction to Energy=                    0.166787
 Thermal correction to Enthalpy=                  0.167731
 Thermal correction to Gibbs Free Energy=         0.125916
 Sum of electronic and zero-point Energies=           -422.931849
 Sum of electronic and thermal Energies=              -422.923731
 Sum of electronic and thermal Enthalpies=            -422.922787
 Sum of electronic and thermal Free Energies=         -422.964602

                     E (Thermal)             CV                S
                      KCal/Mol        Cal/Mol-Kelvin    Cal/Mol-Kelvin
 Total                  104.661             31.169             88.007
 Electronic               0.000              0.000              0.000
 Translational            0.889              2.981             40.409
 Rotational               0.889              2.981             28.641
 Vibrational            102.883             25.208             18.958
 Vibration     1          0.601              1.957              3.693
 Vibration     2          0.615              1.912              2.788
 Vibration     3          0.625              1.880              2.438
 Vibration     4          0.650              1.801              1.907
 Vibration     5          0.683              1.701              1.501
 Vibration     6          0.718              1.600              1.223
 Vibration     7          0.740              1.541              1.094
 Vibration     8          0.805              1.370              0.808
 Vibration     9          0.857              1.247              0.655
 Vibration    10          0.965              1.019              0.439

 Normal termination of Gaussian 09 at Tue Jan 28 14:52:08 2020.
