 Gaussian 09, Revision D.01,
 Gaussian 09:  ES64L-G09RevD.01 24-Apr-2013

 -----------------------------
 # b3lyp 6-31G(2df,p) opt Freq
 -----------------------------

 -----
 titel
 -----
 Symbolic Z-matrix:
 Charge =  0 Multiplicity = 1

 SCF Done:  E(RB3LYP) =  -423.084985934     A.U. after   14 cycles
 Optimization completed.
    -- Stationary point found.
 Normal termination of Gaussian 09 at Mon Jan 27 23:07:46 2020.

 ----------------------------------------------------------------------
 #N Geom=AllCheck Guess=TCheck SCRF=Check GenChk RB3LYP/6-31G(2df,p) Fr
 eq
 ----------------------------------------------------------------------

 Structure from the checkpoint file:  "/scratch/puck/g09_3de45001-83bd-4ac3-95ee-851dabbfef02/Gau-196140.chk"
 -----
 titel
 -----
 Charge =  0 Multiplicity = 1

                         Standard orientation:
 ---------------------------------------------------------------------
 Center     Atomic      Atomic             Coordinates (Angstroms)
 Number     Number       Type             X           Y           Z
 ---------------------------------------------------------------------
      1          6           0        2.325259   -1.009074   -0.496435
      2          6           0        1.026965   -0.244901   -0.672994
      3          6           0        0.934883    1.217536   -0.199560
      4          8           0        1.016708    0.739160    1.228997
      5          6           0        0.038036   -0.127550    0.532102
      6          6           0       -1.092292   -1.049748    0.892424
      7          8           0       -2.024940   -0.771380   -0.174130
      8          6           0       -1.710695    0.457975   -0.904502
      9          6           0       -0.620002    1.110190   -0.072836
     10          1           0        3.042450   -0.737829   -1.278716
     11          1           0        2.771662   -0.793007    0.475778
     12          1           0        2.153241   -2.088129   -0.572528
     13          1           0        0.559547   -0.449885   -1.639110
     14          1           0        1.554149    2.082997   -0.439439
     15          1           0       -0.853090   -2.116961    0.858376
     16          1           0       -1.523288   -0.803995    1.872524
     17          1           0       -1.422203    0.193103   -1.927069
     18          1           0       -2.624052    1.058048   -0.949516
     19          1           0       -1.005490    1.786849    0.691568
 ---------------------------------------------------------------------

 SCF Done:  E(RB3LYP) =  -423.084985934     A.U. after    1 cycles

 The electronic state is 1-A.
 Alpha  occ. eigenvalues --  -19.14192 -19.13864 -10.25958 -10.24954 -10.23777
 Alpha  occ. eigenvalues --  -10.23610 -10.20122 -10.19340 -10.17614  -1.06219
 Alpha  occ. eigenvalues --   -1.01990  -0.81048  -0.75315  -0.73753  -0.67828
 Alpha  occ. eigenvalues --   -0.62660  -0.59621  -0.52220  -0.50858  -0.48792
 Alpha  occ. eigenvalues --   -0.47412  -0.45631  -0.42150  -0.41772  -0.40897
 Alpha  occ. eigenvalues --   -0.40296  -0.37858  -0.34645  -0.33489  -0.32515
 Alpha  occ. eigenvalues --   -0.31092  -0.28700  -0.25417  -0.24439
 Alpha virt. eigenvalues --    0.06592   0.08709   0.09754   0.11141   0.11465
 Alpha virt. eigenvalues --    0.12179   0.12502   0.14547   0.15022   0.15818
 Alpha virt. eigenvalues --    0.17205   0.17720   0.18235   0.19000   0.21573

 Mulliken charges:
               1
     1  C   -0.439836
     2  C   -0.004091
     3  C   -0.018131
     4  O   -0.369768
     5  C    0.385123
     6  C   -0.189969
     7  O   -0.290680
     8  C   -0.118837
     9  C   -0.043200
    10  H    0.116299
    11  H    0.140272
    12  H    0.117804
    13  H    0.080455
    14  H    0.094862
    15  H    0.113194
    16  H    0.112225
    17  H    0.109704
    18  H    0.108956
    19  H    0.095619
 Sum of Mulliken charges =   0.00000

 Dipole moment (field-independent basis, Debye):
    X=              0.3730    Y=              0.3723    Z=             -1.2834  Tot=              1.3874
 Quadrupole moment (field-independent basis, Debye-Ang):
   XX=            -56.4129   YY=            -51.7046   ZZ=            -53.7136
   XY=             -2.7934   XZ=             -3.1105   YZ=             -2.8446

  Exact polarizability:  83.751  -1.280  73.867  -1.662  -1.780  68.190
 Approx polarizability: 114.944   3.400 111.445   2.138  -1.766 109.125

                      1                      2                      3
                      A                      A                      A
 Frequencies --     98.9210               200.4092               214.9578
 Red. masses --      4.4743                 1.5003                 1.4093
 Frc consts  --      0.0258                 0.0355                 0.0384
 IR Inten    --      5.9750                 0.3463                 0.1909

                      4                      5                      6
                      A                      A                      A
 Frequencies --    239.4577               331.0816               356.3842
 Red. masses --      2.5487                 2.5475                 3.2643
 Frc consts  --      0.0861                 0.1645                 0.2443
 IR Inten    --      1.6673                 1.4101                 4.0494

                      7                      8                      9
                      A                      A                      A
 Frequencies --    445.0989               537.6048               619.8695
 Red. masses --      3.4588                 5.9973                 3.5668
 Frc consts  --      0.4037                 1.0212                 0.8075
 IR Inten    --      3.4320                 2.2520                 1.9275

                     10                     11                     12
                      A                      A                      A
 Frequencies --    661.1910               699.5065               742.1708
 Red. masses --      4.0653                 3.3352                 4.1138
 Frc consts  --      1.0471                 0.9615                 1.3351
 IR Inten    --      4.9484                 7.5146                16.7058

                     13                     14                     15
                      A                      A                      A
 Frequencies --    790.7377               833.2527               852.2913
 Red. masses --      2.7661                 2.6131                 5.1265
 Frc consts  --      1.0190                 1.0689                 2.1941
 IR Inten    --      4.6548                 2.8336                18.6868

                     16                     17                     18
                      A                      A                      A
 Frequencies --    890.9351               926.5609               975.7502
 Red. masses --      2.6723                 3.3133                 2.5810
 Frc consts  --      1.2498                 1.6759                 1.4478
 IR Inten    --     18.4124                 0.9008                58.2740

                     19                     20                     21
                      A                      A                      A
 Frequencies --    996.4726              1022.3874              1047.2352
 Red. masses --      2.4400                 1.4681                 2.1286
 Frc consts  --      1.4275                 0.9042                 1.3754
 IR Inten    --     24.1400                 0.0519                34.4653

                     22                     23                     24
                      A                      A                      A
 Frequencies --   1072.4500              1081.8355              1104.3878
 Red. masses --      1.6877                 1.7690                 3.0411
 Frc consts  --      1.1437                 1.2198                 2.1853
 IR Inten    --      7.5576                 7.3394                 3.1298

                     25                     26                     27
                      A                      A                      A
 Frequencies --   1133.2066              1157.6544              1189.8128
 Red. masses --      1.6621                 1.8620                 1.3407
 Frc consts  --      1.2575                 1.4703                 1.1182
 IR Inten    --      9.7015                 3.1884                 6.6530

                     28                     29                     30
                      A                      A                      A
 Frequencies --   1193.3110              1199.9925              1207.8226
 Red. masses --      1.6331                 1.3772                 1.2649
 Frc consts  --      1.3701                 1.1684                 1.0872
 IR Inten    --      7.5597                10.3393                 1.0251

                     31                     32                     33
                      A                      A                      A
 Frequencies --   1253.7697              1288.9061              1339.9892
 Red. masses --      1.5963                 1.8323                 1.7055
 Frc consts  --      1.4784                 1.7934                 1.8042
 IR Inten    --      2.8061                 4.5311                 1.6853

                     34                     35                     36
                      A                      A                      A
 Frequencies --   1362.0487              1380.4581              1399.0506
 Red. masses --      1.3632                 1.4061                 1.2929
 Frc consts  --      1.4900                 1.5788                 1.4910
 IR Inten    --      1.9747                 1.1715                 4.7807

                     37                     38                     39
                      A                      A                      A
 Frequencies --   1424.9522              1493.6741              1505.5928
 Red. masses --      1.9402                 1.0675                 1.0482
 Frc consts  --      2.3211                 1.4033                 1.3999
 IR Inten    --      2.3893                 3.8198                 4.1110

                     40                     41                     42
                      A                      A                      A
 Frequencies --   1512.3534              1524.7877              3011.6591
 Red. masses --      1.0920                 1.0903                 1.0631
 Frc consts  --      1.4716                 1.4935                 5.6811
 IR Inten    --      0.4017                 1.7526                60.6823

                     43                     44                     45
                      A                      A                      A
 Frequencies --   3036.9378              3039.5739              3077.4435
 Red. masses --      1.0387                 1.0605                 1.0954
 Frc consts  --      5.6443                 5.7727                 6.1123
 IR Inten    --     26.8617                38.2786                28.4730

                     46                     47                     48
                      A                      A                      A
 Frequencies --   3078.6679              3084.2858              3093.1072
 Red. masses --      1.1007                 1.0892                 1.1005
 Frc consts  --      6.1469                 6.1046                 6.2033
 IR Inten    --     21.6597                21.9993                21.4282

                     49                     50                     51
                      A                      A                      A
 Frequencies --   3103.8270              3111.6135              3138.8095
 Red. masses --      1.0897                 1.0932                 1.0989
 Frc consts  --      6.1852                 6.2362                 6.3785
 IR Inten    --     45.3014                49.1036                12.8732

 - Thermochemistry -
 -------------------
 Temperature   298.150 Kelvin.  Pressure   1.00000 Atm.
 Atom     1 has atomic number  6 and mass  12.00000

 Molecular mass:   126.06808 amu.
 Principal axes and moments of inertia in atomic units:
                           1         2         3
     Eigenvalues --   606.061391188.444971290.24100
           X            0.99858  -0.04899  -0.02102
           Y            0.04772   0.99721  -0.05738
           Z            0.02377   0.05629   0.99813
 This molecule is an asymmetric top.
 Rotational symmetry number  1.
 Warning -- assumption of classical behavior for rotation
           may cause significant error
 Rotational temperatures (Kelvin)      0.14291     0.07288     0.06713
 Rotational constants (GHZ):           2.97782     1.51857     1.39876
 Zero-point vibrational energy     419196.9 (Joules/Mol)
                                  100.19048 (Kcal/Mol)
 Warning -- explicit consideration of   9 degrees of freedom as
           vibrations may cause significant error
 Vibrational temperatures:    142.33   288.34   309.28   344.53   476.35
          (Kelvin)            512.76   640.40   773.49   891.85   951.31
                             1006.43  1067.82  1137.69  1198.86  1226.26
                             1281.86  1333.11  1403.89  1433.70  1470.99
                             1506.74  1543.01  1556.52  1588.97  1630.43
                             1665.60  1711.87  1716.91  1726.52  1737.79
                             1803.89  1854.45  1927.94  1959.68  1986.17
                             2012.92  2050.19  2149.06  2166.21  2175.94
                             2193.83  4333.10  4369.47  4373.26  4427.75
                             4429.51  4437.59  4450.29  4465.71  4476.91
                             4516.04

 Zero-point correction=                           0.159664 (Hartree/Particle)
 Thermal correction to Energy=                    0.167258
 Thermal correction to Enthalpy=                  0.168202
 Thermal correction to Gibbs Free Energy=         0.127757
 Sum of electronic and zero-point Energies=           -422.925322
 Sum of electronic and thermal Energies=              -422.917728
 Sum of electronic and thermal Enthalpies=            -422.916783
 Sum of electronic and thermal Free Energies=         -422.957229

                     E (Thermal)             CV                S
                      KCal/Mol        Cal/Mol-Kelvin    Cal/Mol-Kelvin
 Total                  104.956             30.189             85.125
 Electronic               0.000              0.000              0.000
 Translational            0.889              2.981             40.409
 Rotational               0.889              2.981             28.321
 Vibrational            103.179             24.228             16.396
 Vibration     1          0.604              1.950              3.475
 Vibration     2          0.638              1.839              2.129
 Vibration     3          0.645              1.818              2.001
 Vibration     4          0.657              1.780              1.807
 Vibration     5          0.713              1.613              1.255
 Vibration     6          0.732              1.562              1.138
 Vibration     7          0.804              1.372              0.811
 Vibration     8          0.893              1.167              0.570
 Vibration     9          0.980              0.990              0.417

 Optimization completed.
    -- Stationary point found.
 Normal termination of Gaussian 09 at Mon Jan 27 23:57:04 2020.
