 Gaussian 09, Revision D.01,
 Gaussian 09:  ES64L-G09RevD.01 24-Apr-2013

 -----------------------------
 # b3lyp 6-31G(2df,p) opt Freq
 -----------------------------

 -----
 titel
 -----
 Symbolic Z-matrix:
 Charge =  0 Multiplicity = 1

 SCF Done:  E(RB3LYP) =  -423.127562998     A.U. after   13 cycles
 Optimization completed.
    -- Stationary point found.
 Normal termination of Gaussian 09 at Tue Jan 28 03:50:45 2020.

 ----------------------------------------------------------------------
 #N Geom=AllCheck Guess=TCheck SCRF=Check GenChk RB3LYP/6-31G(2df,p) Fr
 eq
 ----------------------------------------------------------------------

 Structure from the checkpoint file:  "/scratch/puck/g09_1bc2c657-bee7-4a57-a653-4b77fd9fa97a/Gau-2858.chk"
 -----
 titel
 -----
 Charge =  0 Multiplicity = 1

                         Standard orientation:
 ---------------------------------------------------------------------
 Center     Atomic      Atomic             Coordinates (Angstroms)
 Number     Number       Type             X           Y           Z
 ---------------------------------------------------------------------
      1          8           0        2.340732   -1.122163    0.025647
      2          6           0        1.394755   -0.216639    0.560166
      3          6           0        1.434270    1.231643   -0.038356
      4          6           0        0.063057    0.993727   -0.733685
      5          8           0       -1.074014    1.567621   -0.053370
      6          6           0       -1.251610    0.349981    0.697368
      7          6           0       -2.179179   -0.710546    0.035488
      8          6           0       -0.920817   -1.534118   -0.403115
      9          6           0       -0.040412   -0.358332    0.031044
     10          1           0        2.263706   -1.111158   -0.934686
     11          1           0        1.508941   -0.294525    1.645058
     12          1           0        1.413891    2.047584    0.687269
     13          1           0        2.276023    1.379458   -0.721483
     14          1           0        0.010842    1.125503   -1.818598
     15          1           0       -1.366160    0.525250    1.771070
     16          1           0       -2.860621   -1.226562    0.715454
     17          1           0       -2.753953   -0.283380   -0.788598
     18          1           0       -0.764171   -2.417219    0.223290
     19          1           0       -0.862616   -1.842904   -1.450455
 ---------------------------------------------------------------------

 SCF Done:  E(RB3LYP) =  -423.127562998     A.U. after    1 cycles

 The electronic state is 1-A.
 Alpha  occ. eigenvalues --  -19.14027 -19.13331 -10.23501 -10.23471 -10.23415
 Alpha  occ. eigenvalues --  -10.18938 -10.18910 -10.18599 -10.18209  -1.04325
 Alpha  occ. eigenvalues --   -1.02091  -0.83684  -0.79726  -0.66591  -0.65599
 Alpha  occ. eigenvalues --   -0.63409  -0.59114  -0.53098  -0.51180  -0.49233
 Alpha  occ. eigenvalues --   -0.47173  -0.44603  -0.42624  -0.40842  -0.39455
 Alpha  occ. eigenvalues --   -0.37989  -0.37173  -0.35744  -0.34758  -0.32528
 Alpha  occ. eigenvalues --   -0.29067  -0.27567  -0.25635  -0.23751
 Alpha virt. eigenvalues --    0.04678   0.08478   0.09401   0.09818   0.11313
 Alpha virt. eigenvalues --    0.13433   0.13849   0.15781   0.16726   0.17177
 Alpha virt. eigenvalues --    0.17630   0.18103   0.20250   0.20539   0.21231

 Mulliken charges:
               1
     1  O   -0.427061
     2  C    0.014711
     3  C   -0.279094
     4  C    0.055228
     5  O   -0.303244
     6  C    0.066669
     7  C   -0.237304
     8  C   -0.354563
     9  C    0.292782
    10  H    0.278188
    11  H    0.087541
    12  H    0.117122
    13  H    0.101840
    14  H    0.074318
    15  H    0.076136
    16  H    0.105717
    17  H    0.116671
    18  H    0.115599
    19  H    0.098744
 Sum of Mulliken charges =   0.00000

 Dipole moment (field-independent basis, Debye):
    X=             -0.2499    Y=             -0.7504    Z=             -0.7743  Tot=              1.1068
 Quadrupole moment (field-independent basis, Debye-Ang):
   XX=            -56.7052   YY=            -57.4508   ZZ=            -48.6960
   XY=              5.4112   XZ=             -3.5733   YZ=              1.1275

  Exact polarizability:  82.142   4.593  73.094  -2.785   0.057  68.508
 Approx polarizability: 109.762   0.020 106.940  -4.826  -0.976 106.102

                      1                      2                      3
                      A                      A                      A
 Frequencies --    103.1170               141.8411               214.9227
 Red. masses --      3.3618                 2.2669                 2.4278
 Frc consts  --      0.0211                 0.0269                 0.0661
 IR Inten    --      4.3262                 0.9298                 3.6872

                      4                      5                      6
                      A                      A                      A
 Frequencies --    280.0847               290.2033               383.1249
 Red. masses --      2.7293                 1.2359                 4.6913
 Frc consts  --      0.1261                 0.0613                 0.4057
 IR Inten    --      3.0459                86.0385                 2.6368

                      7                      8                      9
                      A                      A                      A
 Frequencies --    413.0500               469.9261               525.8225
 Red. masses --      2.4480                 2.2402                 4.3437
 Frc consts  --      0.2461                 0.2915                 0.7076
 IR Inten    --      5.0591                 4.7906                 4.4959

                     10                     11                     12
                      A                      A                      A
 Frequencies --    668.7997               721.4321               788.9010
 Red. masses --      2.7614                 1.5429                 2.3098
 Frc consts  --      0.7277                 0.4731                 0.8470
 IR Inten    --      1.2641                 3.2969                 5.1456

                     13                     14                     15
                      A                      A                      A
 Frequencies --    800.5263               838.2324               872.0250
 Red. masses --      2.6015                 2.3670                 2.3333
 Frc consts  --      0.9823                 0.9799                 1.0454
 IR Inten    --      7.5112                11.7104                 1.9956

                     16                     17                     18
                      A                      A                      A
 Frequencies --    886.1519               911.3187               929.5458
 Red. masses --      2.1233                 2.4200                 2.7015
 Frc consts  --      0.9824                 1.1841                 1.3753
 IR Inten    --      8.6807                 4.7885                 6.6620

                     19                     20                     21
                      A                      A                      A
 Frequencies --    969.3248              1016.1642              1037.7410
 Red. masses --      2.8435                 2.8220                 4.0077
 Frc consts  --      1.5741                 1.7169                 2.5429
 IR Inten    --      9.1461                 4.1122                90.3158

                     22                     23                     24
                      A                      A                      A
 Frequencies --   1051.6776              1096.5863              1115.8977
 Red. masses --      2.8174                 2.3069                 2.2957
 Frc consts  --      1.8360                 1.6344                 1.6843
 IR Inten    --     43.3718                27.0074                51.6811

                     25                     26                     27
                      A                      A                      A
 Frequencies --   1124.9742              1145.6736              1175.8953
 Red. masses --      1.4000                 1.8494                 1.7782
 Frc consts  --      1.0439                 1.4302                 1.4486
 IR Inten    --      2.0186                26.0000                 2.5429

                     28                     29                     30
                      A                      A                      A
 Frequencies --   1198.3251              1217.6436              1228.2909
 Red. masses --      1.6468                 1.3963                 1.2823
 Frc consts  --      1.3932                 1.2198                 1.1398
 IR Inten    --      3.9844                 5.1117                 1.9635

                     31                     32                     33
                      A                      A                      A
 Frequencies --   1245.5362              1262.4640              1288.9293
 Red. masses --      1.5460                 1.4429                 1.4818
 Frc consts  --      1.4131                 1.3550                 1.4505
 IR Inten    --      4.0156                 3.2084                 5.6804

                     34                     35                     36
                      A                      A                      A
 Frequencies --   1293.3072              1302.9434              1320.0641
 Red. masses --      1.4908                 1.8280                 2.4076
 Frc consts  --      1.4692                 1.8284                 2.4719
 IR Inten    --      4.9038                 1.1437                 9.7687

                     37                     38                     39
                      A                      A                      A
 Frequencies --   1352.1404              1431.0195              1454.4785
 Red. masses --      1.4048                 1.2249                 1.1233
 Frc consts  --      1.5133                 1.4779                 1.4001
 IR Inten    --     13.1139                61.2387                 5.9147

                     40                     41                     42
                      A                      A                      A
 Frequencies --   1466.7196              1488.7686              3052.2107
 Red. masses --      1.0883                 1.1172                 1.0581
 Frc consts  --      1.3795                 1.4589                 5.8078
 IR Inten    --      1.4698                 1.1429                37.4954

                     43                     44                     45
                      A                      A                      A
 Frequencies --   3054.2797              3062.9896              3065.0268
 Red. masses --      1.0690                 1.0794                 1.0791
 Frc consts  --      5.8755                 5.9665                 5.9726
 IR Inten    --     23.0816                63.4727                38.4836

                     46                     47                     48
                      A                      A                      A
 Frequencies --   3070.8184              3074.7563              3097.4969
 Red. masses --      1.0815                 1.0742                 1.1079
 Frc consts  --      6.0090                 5.9834                 6.2630
 IR Inten    --     32.2975                27.4023                10.8638

                     49                     50                     51
                      A                      A                      A
 Frequencies --   3124.7166              3132.0235              3800.3755
 Red. masses --      1.1063                 1.1078                 1.0660
 Frc consts  --      6.3640                 6.4030                 9.0709
 IR Inten    --     15.2625                25.5691                11.4910

 - Thermochemistry -
 -------------------
 Temperature   298.150 Kelvin.  Pressure   1.00000 Atm.
 Atom     1 has atomic number  8 and mass  15.99491

 Molecular mass:   126.06808 amu.
 Principal axes and moments of inertia in atomic units:
                           1         2         3
     Eigenvalues --   639.243031097.158661504.28074
           X            0.99690   0.07846  -0.00583
           Y           -0.07839   0.99686   0.01107
           Z            0.00668  -0.01058   0.99992
 This molecule is an asymmetric top.
 Rotational symmetry number  1.
 Warning -- assumption of classical behavior for rotation
           may cause significant error
 Rotational temperatures (Kelvin)      0.13549     0.07894     0.05758
 Rotational constants (GHZ):           2.82325     1.64492     1.19974
 Zero-point vibrational energy     419041.6 (Joules/Mol)
                                  100.15334 (Kcal/Mol)
 Warning -- explicit consideration of   9 degrees of freedom as
           vibrations may cause significant error
 Vibrational temperatures:    148.36   204.08   309.23   402.98   417.54
          (Kelvin)            551.23   594.29   676.12   756.54   962.25
                             1037.98  1135.05  1151.78  1206.03  1254.65
                             1274.97  1311.18  1337.41  1394.64  1462.03
                             1493.08  1513.13  1577.74  1605.53  1618.58
                             1648.37  1691.85  1724.12  1751.92  1767.23
                             1792.05  1816.40  1854.48  1860.78  1874.64
                             1899.28  1945.43  2058.92  2092.67  2110.28
                             2142.00  4391.44  4394.42  4406.95  4409.88
                             4418.22  4423.88  4456.60  4495.76  4506.28
                             5467.89

 Zero-point correction=                           0.159605 (Hartree/Particle)
 Thermal correction to Energy=                    0.167390
 Thermal correction to Enthalpy=                  0.168335
 Thermal correction to Gibbs Free Energy=         0.127427
 Sum of electronic and zero-point Energies=           -422.967958
 Sum of electronic and thermal Energies=              -422.960173
 Sum of electronic and thermal Enthalpies=            -422.959228
 Sum of electronic and thermal Free Energies=         -423.000136

                     E (Thermal)             CV                S
                      KCal/Mol        Cal/Mol-Kelvin    Cal/Mol-Kelvin
 Total                  105.039             30.789             86.098
 Electronic               0.000              0.000              0.000
 Translational            0.889              2.981             40.409
 Rotational               0.889              2.981             28.447
 Vibrational            103.262             24.827             17.243
 Vibration     1          0.605              1.947              3.395
 Vibration     2          0.615              1.911              2.779
 Vibration     3          0.645              1.818              2.001
 Vibration     4          0.680              1.710              1.533
 Vibration     5          0.686              1.692              1.473
 Vibration     6          0.752              1.506              1.027
 Vibration     7          0.777              1.442              0.916
 Vibration     8          0.827              1.317              0.738
 Vibration     9          0.881              1.193              0.597

 Optimization completed.
    -- Stationary point found.
 Normal termination of Gaussian 09 at Tue Jan 28 04:34:07 2020.
