 Gaussian 09, Revision D.01,
 Gaussian 09:  ES64L-G09RevD.01 24-Apr-2013

 -----------------------------
 # b3lyp 6-31G(2df,p) opt Freq
 -----------------------------

 -----
 titel
 -----
 Symbolic Z-matrix:
 Charge =  0 Multiplicity = 1

 SCF Done:  E(RB3LYP) =  -423.179269699     A.U. after   14 cycles
 Optimization completed.
    -- Stationary point found.
 Normal termination of Gaussian 09 at Tue Jan 28 00:02:46 2020.

 ----------------------------------------------------------------------
 #N Geom=AllCheck Guess=TCheck SCRF=Check GenChk RB3LYP/6-31G(2df,p) Fr
 eq
 ----------------------------------------------------------------------

 Structure from the checkpoint file:  "/scratch/puck/g09_60a2b98f-602a-471a-8552-6f33494402d1/Gau-185062.chk"
 -----
 titel
 -----
 Charge =  0 Multiplicity = 1

                         Standard orientation:
 ---------------------------------------------------------------------
 Center     Atomic      Atomic             Coordinates (Angstroms)
 Number     Number       Type             X           Y           Z
 ---------------------------------------------------------------------
      1          8           0       -1.828719    0.865626    0.773673
      2          6           0       -1.066983    0.674550   -0.436713
      3          6           0        0.060576    1.668872   -0.534210
      4          6           0        1.270462    1.413113   -0.026891
      5          6           0        1.612435    0.116429    0.603302
      6          6           0        2.028444   -1.057546   -0.264729
      7          6           0        0.659976   -1.034019    0.364445
      8          6           0       -0.583510   -0.790759   -0.505634
      9          8           0       -1.642058   -1.650995   -0.137423
     10          1           0       -1.195319    1.056269    1.474853
     11          1           0       -1.795228    0.830615   -1.238467
     12          1           0       -0.156179    2.630946   -0.988739
     13          1           0        2.050234    2.170803   -0.069836
     14          1           0        2.106231    0.182788    1.569591
     15          1           0        2.089545   -0.888047   -1.335586
     16          1           0        2.771934   -1.742110    0.128831
     17          1           0        0.480697   -1.723205    1.182660
     18          1           0       -0.341465   -1.015300   -1.551711
     19          1           0       -2.132630   -1.163645    0.540982
 ---------------------------------------------------------------------

 SCF Done:  E(RB3LYP) =  -423.179269699     A.U. after    1 cycles

 The electronic state is 1-A.
 Alpha  occ. eigenvalues --  -19.14865 -19.12133 -10.23507 -10.22742 -10.20003
 Alpha  occ. eigenvalues --  -10.19745 -10.19159 -10.18981 -10.18833  -1.03380
 Alpha  occ. eigenvalues --   -0.99950  -0.87511  -0.78408  -0.72724  -0.64418
 Alpha  occ. eigenvalues --   -0.61855  -0.58678  -0.53389  -0.52481  -0.48960
 Alpha  occ. eigenvalues --   -0.47369  -0.46249  -0.44298  -0.42593  -0.41050
 Alpha  occ. eigenvalues --   -0.37468  -0.35474  -0.34199  -0.33471  -0.32201
 Alpha  occ. eigenvalues --   -0.30512  -0.27102  -0.25554  -0.24821
 Alpha virt. eigenvalues --   -0.00236   0.08253   0.08726   0.10430   0.11373
 Alpha virt. eigenvalues --    0.12999   0.14597   0.15505   0.16663   0.17674
 Alpha virt. eigenvalues --    0.18509   0.19172   0.20982   0.23151   0.23400

 Mulliken charges:
               1
     1  O   -0.446272
     2  C    0.047298
     3  C   -0.114791
     4  C   -0.064910
     5  C   -0.082868
     6  C   -0.285547
     7  C   -0.068518
     8  C    0.101867
     9  O   -0.443500
    10  H    0.285671
    11  H    0.094345
    12  H    0.096337
    13  H    0.097654
    14  H    0.092046
    15  H    0.116276
    16  H    0.114057
    17  H    0.093747
    18  H    0.084926
    19  H    0.282182
 Sum of Mulliken charges =   0.00000

 Dipole moment (field-independent basis, Debye):
    X=              2.0757    Y=              1.4747    Z=              0.7396  Tot=              2.6514
 Quadrupole moment (field-independent basis, Debye-Ang):
   XX=            -55.6827   YY=            -55.8747   ZZ=            -49.5239
   XY=             -1.7955   XZ=              0.5334   YZ=             -1.6009

  Exact polarizability:  87.813  -2.612  77.064   3.441  -3.083  63.821
 Approx polarizability: 132.530  -3.977 109.972   6.322  -3.043 101.653

                      1                      2                      3
                      A                      A                      A
 Frequencies --     85.5913               163.6255               282.5863
 Red. masses --      4.2346                 3.6489                 2.9132
 Frc consts  --      0.0183                 0.0576                 0.1371
 IR Inten    --      0.8525                 2.2845                 1.5940

                      4                      5                      6
                      A                      A                      A
 Frequencies --    306.1322               325.1241               356.7413
 Red. masses --      3.0825                 1.3100                 2.8536
 Frc consts  --      0.1702                 0.0816                 0.2140
 IR Inten    --      0.4125                35.5894                14.0677

                      7                      8                      9
                      A                      A                      A
 Frequencies --    382.2011               455.0886               507.2220
 Red. masses --      3.7164                 5.0599                 4.2740
 Frc consts  --      0.3199                 0.6174                 0.6479
 IR Inten    --      2.6977                 0.7825                 2.0138

                     10                     11                     12
                      A                      A                      A
 Frequencies --    553.7150               590.8819               662.9023
 Red. masses --      1.0949                 3.3636                 4.1740
 Frc consts  --      0.1978                 0.6919                 1.0807
 IR Inten    --    104.4468                 2.7135                 4.3520

                     13                     14                     15
                      A                      A                      A
 Frequencies --    768.0053               770.5624               798.3617
 Red. masses --      1.8107                 1.7121                 2.8294
 Frc consts  --      0.6293                 0.5990                 1.0625
 IR Inten    --     22.3200                21.3482                 4.7468

                     16                     17                     18
                      A                      A                      A
 Frequencies --    831.1451               882.6373               916.2810
 Red. masses --      1.6259                 2.2556                 3.2677
 Frc consts  --      0.6618                 1.0353                 1.6164
 IR Inten    --      1.8896                18.7594                20.7583

                     19                     20                     21
                      A                      A                      A
 Frequencies --    974.0780               995.0045              1012.5448
 Red. masses --      3.4025                 1.6906                 1.7419
 Frc consts  --      1.9021                 0.9862                 1.0522
 IR Inten    --      5.4918                 3.5973                 0.4817

                     22                     23                     24
                      A                      A                      A
 Frequencies --   1023.8821              1048.8049              1062.2861
 Red. masses --      1.9199                 2.3450                 1.4654
 Frc consts  --      1.1859                 1.5198                 0.9743
 IR Inten    --      4.3340                57.9351                14.0760

                     25                     26                     27
                      A                      A                      A
 Frequencies --   1093.3779              1109.8005              1129.2992
 Red. masses --      2.6303                 1.6703                 1.2665
 Frc consts  --      1.8527                 1.2121                 0.9516
 IR Inten    --     80.8985                50.2712                 6.7079

                     28                     29                     30
                      A                      A                      A
 Frequencies --   1156.5516              1197.4546              1219.8682
 Red. masses --      1.6539                 1.3755                 1.1974
 Frc consts  --      1.3034                 1.1621                 1.0498
 IR Inten    --     12.2379                 1.8621                 0.9111

                     31                     32                     33
                      A                      A                      A
 Frequencies --   1240.8173              1282.4469              1322.1400
 Red. masses --      1.2816                 1.4143                 1.4191
 Frc consts  --      1.1625                 1.3704                 1.4616
 IR Inten    --     29.7938                17.1227                 2.3107

                     34                     35                     36
                      A                      A                      A
 Frequencies --   1327.1578              1381.0644              1395.0311
 Red. masses --      1.4311                 1.5261                 1.5769
 Frc consts  --      1.4851                 1.7150                 1.8081
 IR Inten    --      1.0244                 1.3042                 4.3616

                     37                     38                     39
                      A                      A                      A
 Frequencies --   1415.1809              1432.8085              1445.9666
 Red. masses --      1.3574                 1.6844                 1.2233
 Frc consts  --      1.6017                 2.0374                 1.5070
 IR Inten    --     37.4391                17.7644                92.0531

                     40                     41                     42
                      A                      A                      A
 Frequencies --   1481.6818              1697.6892              3027.6086
 Red. masses --      1.2970                 6.7079                 1.0851
 Frc consts  --      1.6776                11.3908                 5.8605
 IR Inten    --      2.4768                 7.6317                24.4652

                     43                     44                     45
                      A                      A                      A
 Frequencies --   3067.0989              3123.7527              3131.5513
 Red. masses --      1.0859                 1.0536                 1.0866
 Frc consts  --      6.0186                 6.0576                 6.2783
 IR Inten    --     34.3053                16.5141                 8.9855

                     46                     47                     48
                      A                      A                      A
 Frequencies --   3146.0023              3167.0993              3177.2860
 Red. masses --      1.0860                 1.0902                 1.0956
 Frc consts  --      6.3330                 6.4429                 6.5165
 IR Inten    --     17.0933                 7.5810                23.1704

                     49                     50                     51
                      A                      A                      A
 Frequencies --   3214.2127              3720.5319              3804.5301
 Red. masses --      1.1166                 1.0646                 1.0660
 Frc consts  --      6.7965                 8.6829                 9.0908
 IR Inten    --     11.2299                55.9291                16.6267

 - Thermochemistry -
 -------------------
 Temperature   298.150 Kelvin.  Pressure   1.00000 Atm.
 Atom     1 has atomic number  8 and mass  15.99491

 Molecular mass:   126.06808 amu.
 Principal axes and moments of inertia in atomic units:
                           1         2         3
     Eigenvalues --   763.041071030.866551518.32252
           X            0.99920  -0.03943   0.00619
           Y            0.03952   0.99910  -0.01512
           Z           -0.00559   0.01535   0.99987
 This molecule is an asymmetric top.
 Rotational symmetry number  1.
 Warning -- assumption of classical behavior for rotation
           may cause significant error
 Rotational temperatures (Kelvin)      0.11351     0.08402     0.05705
 Rotational constants (GHZ):           2.36520     1.75070     1.18864
 Zero-point vibrational energy     422661.1 (Joules/Mol)
                                  101.01842 (Kcal/Mol)
 Warning -- explicit consideration of  11 degrees of freedom as
           vibrations may cause significant error
 Vibrational temperatures:    123.15   235.42   406.58   440.46   467.78
          (Kelvin)            513.27   549.90   654.77   729.78   796.67
                              850.15   953.77  1104.99  1108.67  1148.66
                             1195.83  1269.92  1318.32  1401.48  1431.59
                             1456.82  1473.14  1508.99  1528.39  1573.12
                             1596.75  1624.81  1664.02  1722.87  1755.12
                             1785.26  1845.15  1902.26  1909.48  1987.04
                             2007.14  2036.13  2061.49  2080.42  2131.81
                             2442.59  4356.05  4412.87  4494.38  4505.60
                             4526.39  4556.74  4571.40  4624.53  5353.01
                             5473.86

 Zero-point correction=                           0.160983 (Hartree/Particle)
 Thermal correction to Energy=                    0.168935
 Thermal correction to Enthalpy=                  0.169879
 Thermal correction to Gibbs Free Energy=         0.128752
 Sum of electronic and zero-point Energies=           -423.018287
 Sum of electronic and thermal Energies=              -423.010334
 Sum of electronic and thermal Enthalpies=            -423.009390
 Sum of electronic and thermal Free Energies=         -423.050518

                     E (Thermal)             CV                S
                      KCal/Mol        Cal/Mol-Kelvin    Cal/Mol-Kelvin
 Total                  106.009             32.026             86.561
 Electronic               0.000              0.000              0.000
 Translational            0.889              2.981             40.409
 Rotational               0.889              2.981             28.570
 Vibrational            104.231             26.065             17.582
 Vibration     1          0.601              1.959              3.758
 Vibration     2          0.623              1.887              2.507
 Vibration     3          0.682              1.706              1.518
 Vibration     4          0.697              1.662              1.383
 Vibration     5          0.709              1.625              1.284
 Vibration     6          0.732              1.561              1.136
 Vibration     7          0.752              1.508              1.030
 Vibration     8          0.813              1.350              0.781
 Vibration     9          0.862              1.234              0.640
 Vibration    10          0.909              1.132              0.537
 Vibration    11          0.948              1.051              0.466

 Optimization completed.
    -- Stationary point found.
 Normal termination of Gaussian 09 at Tue Jan 28 00:50:52 2020.
