 Gaussian 09, Revision D.01,
 Gaussian 09:  ES64L-G09RevD.01 24-Apr-2013

 -----------------------------
 # b3lyp 6-31G(2df,p) opt Freq
 -----------------------------

 -----
 titel
 -----
 Symbolic Z-matrix:
 Charge =  0 Multiplicity = 1

 SCF Done:  E(RB3LYP) =  -423.228991776     A.U. after   15 cycles
 Optimization completed.
    -- Stationary point found.
 Normal termination of Gaussian 09 at Tue Jan 28 00:01:30 2020.

 ----------------------------------------------------------------------
 #N Geom=AllCheck Guess=TCheck SCRF=Check GenChk RB3LYP/6-31G(2df,p) Fr
 eq
 ----------------------------------------------------------------------

 Structure from the checkpoint file:  "/scratch/puck/g09_4c9b366e-faa8-42d1-aae2-8a1f9b866ff1/Gau-104921.chk"
 -----
 titel
 -----
 Charge =  0 Multiplicity = 1

                         Standard orientation:
 ---------------------------------------------------------------------
 Center     Atomic      Atomic             Coordinates (Angstroms)
 Number     Number       Type             X           Y           Z
 ---------------------------------------------------------------------
      1          6           0       -1.701430    1.728494    0.382338
      2          6           0       -0.897425    0.602556   -0.263279
      3          6           0       -1.095900   -0.825195    0.298491
      4          8           0       -1.945750   -1.665253   -0.471176
      5          6           0        0.294574   -1.408372    0.307343
      6          6           0        1.256828   -0.507969    0.067078
      7          6           0        2.740343   -0.674846    0.054192
      8          6           0        0.621456    0.816778   -0.176467
      9          8           0        1.196344    1.877463   -0.273980
     10          1           0       -1.380991    2.692792   -0.020334
     11          1           0       -2.774640    1.615343    0.197822
     12          1           0       -1.545099    1.753875    1.466247
     13          1           0       -1.134170    0.541120   -1.333948
     14          1           0       -1.469693   -0.767568    1.335245
     15          1           0       -2.850610   -1.358283   -0.356724
     16          1           0        0.447833   -2.461782    0.518006
     17          1           0        3.145569   -0.449399   -0.938506
     18          1           0        3.207470    0.036124    0.744056
     19          1           0        3.038907   -1.688575    0.331206
 ---------------------------------------------------------------------

 SCF Done:  E(RB3LYP) =  -423.228991776     A.U. after    1 cycles

 The electronic state is 1-A.
 Alpha  occ. eigenvalues --  -19.14475 -19.12372 -10.25884 -10.24549 -10.20214
 Alpha  occ. eigenvalues --  -10.19943 -10.19210 -10.18705 -10.18175  -1.03336
 Alpha  occ. eigenvalues --   -1.02677  -0.85054  -0.77542  -0.72309  -0.65871
 Alpha  occ. eigenvalues --   -0.64823  -0.56508  -0.52743  -0.50894  -0.47440
 Alpha  occ. eigenvalues --   -0.45538  -0.42989  -0.42538  -0.42009  -0.39385
 Alpha  occ. eigenvalues --   -0.38830  -0.38713  -0.37797  -0.36553  -0.34183
 Alpha  occ. eigenvalues --   -0.32933  -0.28752  -0.26437  -0.23664
 Alpha virt. eigenvalues --   -0.04326   0.04882   0.07562   0.11038   0.12051
 Alpha virt. eigenvalues --    0.12551   0.13846   0.14669   0.16582   0.16937
 Alpha virt. eigenvalues --    0.17805   0.18209   0.21026   0.22242   0.23164

 Mulliken charges:
               1
     1  C   -0.411829
     2  C   -0.125049
     3  C    0.057664
     4  O   -0.434328
     5  C   -0.163637
     6  C    0.201688
     7  C   -0.492070
     8  C    0.323380
     9  O   -0.336467
    10  H    0.143266
    11  H    0.105374
    12  H    0.119881
    13  H    0.115453
    14  H    0.081523
    15  H    0.287215
    16  H    0.114979
    17  H    0.143156
    18  H    0.146294
    19  H    0.123506
 Sum of Mulliken charges =   0.00000

 Dipole moment (field-independent basis, Debye):
    X=             -1.5500    Y=             -1.5744    Z=              0.9953  Tot=              2.4232
 Quadrupole moment (field-independent basis, Debye-Ang):
   XX=            -47.0902   YY=            -59.8977   ZZ=            -52.9027
   XY=             -5.5506   XZ=             -0.3505   YZ=             -1.2365

  Exact polarizability:  95.109   3.321  85.561  -1.873  -3.486  55.975
 Approx polarizability: 129.801  22.102 139.148  -4.572  -8.439  88.843

                      1                      2                      3
                      A                      A                      A
 Frequencies --     62.6233               106.4807               154.5559
 Red. masses --      4.4513                 1.0743                 2.9233
 Frc consts  --      0.0103                 0.0072                 0.0411
 IR Inten    --      2.4017                 0.7356                 1.8486

                      4                      5                      6
                      A                      A                      A
 Frequencies --    197.4037               218.8661               246.1150
 Red. masses --      1.0754                 2.7634                 3.0077
 Frc consts  --      0.0247                 0.0780                 0.1073
 IR Inten    --      0.3824                 0.8207                 2.9269

                      7                      8                      9
                      A                      A                      A
 Frequencies --    274.6873               295.5075               338.3714
 Red. masses --      1.0994                 3.2037                 4.6857
 Frc consts  --      0.0489                 0.1648                 0.3161
 IR Inten    --     97.5313                 5.7346                11.1728

                     10                     11                     12
                      A                      A                      A
 Frequencies --    366.9009               512.8994               526.1938
 Red. masses --      3.7349                 4.3533                 4.3453
 Frc consts  --      0.2962                 0.6747                 0.7089
 IR Inten    --      2.5599                 8.4028                 1.5142

                     13                     14                     15
                      A                      A                      A
 Frequencies --    578.5865               659.9778               719.0473
 Red. masses --      3.5337                 3.6962                 3.9342
 Frc consts  --      0.6970                 0.9486                 1.1985
 IR Inten    --      1.8691                 2.3890                 1.3670

                     16                     17                     18
                      A                      A                      A
 Frequencies --    784.5064               854.0525               920.2570
 Red. masses --      3.0326                 1.8379                 1.4145
 Frc consts  --      1.0997                 0.7898                 0.7058
 IR Inten    --      2.4993                 1.7385                11.0520

                     19                     20                     21
                      A                      A                      A
 Frequencies --    951.1522              1008.4272              1026.0038
 Red. masses --      2.7033                 1.9827                 1.5102
 Frc consts  --      1.4409                 1.1879                 0.9367
 IR Inten    --     34.5024                 8.0098                 7.1182

                     22                     23                     24
                      A                      A                      A
 Frequencies --   1061.9902              1066.5531              1086.5918
 Red. masses --      1.5293                 4.9787                 1.8834
 Frc consts  --      1.0162                 3.3368                 1.3102
 IR Inten    --      7.2630                73.0959                12.5993

                     25                     26                     27
                      A                      A                      A
 Frequencies --   1124.4771              1139.0156              1208.8876
 Red. masses --      2.7395                 2.0339                 1.3953
 Frc consts  --      2.0409                 1.5546                 1.2014
 IR Inten    --     21.6445                13.0883                25.3949

                     28                     29                     30
                      A                      A                      A
 Frequencies --   1228.5836              1261.2489              1298.7776
 Red. masses --      1.2343                 1.8574                 1.3078
 Frc consts  --      1.0977                 1.7408                 1.2997
 IR Inten    --     68.7688                14.3825                14.2133

                     31                     32                     33
                      A                      A                      A
 Frequencies --   1335.6424              1360.5685              1405.9233
 Red. masses --      2.3635                 1.8970                 1.2321
 Frc consts  --      2.4842                 2.0690                 1.4349
 IR Inten    --     11.8961                19.8657                 6.4639

                     34                     35                     36
                      A                      A                      A
 Frequencies --   1412.4607              1422.1896              1472.8740
 Red. masses --      1.2917                 1.4930                 1.0433
 Frc consts  --      1.5183                 1.7792                 1.3335
 IR Inten    --      1.1322                13.9893                 6.3105

                     37                     38                     39
                      A                      A                      A
 Frequencies --   1482.9925              1493.6509              1499.3246
 Red. masses --      1.0631                 1.0467                 1.0485
 Frc consts  --      1.3775                 1.3758                 1.3888
 IR Inten    --     10.0265                 7.1784                 6.2671

                     40                     41                     42
                      A                      A                      A
 Frequencies --   1703.0278              1806.8181              2951.0826
 Red. masses --      7.6364                12.6014                 1.0814
 Frc consts  --     13.0492                24.2381                 5.5489
 IR Inten    --      6.1591               216.3323                39.1237

                     43                     44                     45
                      A                      A                      A
 Frequencies --   3027.8574              3034.8297              3037.7374
 Red. masses --      1.0812                 1.0366                 1.0362
 Frc consts  --      5.8402                 5.6253                 5.6336
 IR Inten    --      4.3172                32.7319                13.5498

                     46                     47                     48
                      A                      A                      A
 Frequencies --   3091.9034              3098.7721              3121.6676
 Red. masses --      1.0983                 1.1018                 1.1000
 Frc consts  --      6.1860                 6.2335                 6.3159
 IR Inten    --      8.6274                26.5443                 9.9228

                     49                     50                     51
                      A                      A                      A
 Frequencies --   3125.4224              3191.9595              3821.0097
 Red. masses --      1.1022                 1.0943                 1.0663
 Frc consts  --      6.3437                 6.5692                 9.1726
 IR Inten    --     13.0855                 8.6774                19.3588

 - Thermochemistry -
 -------------------
 Temperature   298.150 Kelvin.  Pressure   1.00000 Atm.
 Atom     1 has atomic number  6 and mass  12.00000

 Molecular mass:   126.06808 amu.
 Principal axes and moments of inertia in atomic units:
                           1         2         3
     Eigenvalues --   822.060001179.497341875.02105
           X            0.99008  -0.14041  -0.00536
           Y            0.14042   0.99009   0.00133
           Z            0.00512  -0.00207   0.99998
 This molecule is an asymmetric top.
 Rotational symmetry number  1.
 Warning -- assumption of classical behavior for rotation
           may cause significant error
 Rotational temperatures (Kelvin)      0.10536     0.07343     0.04619
 Rotational constants (GHZ):           2.19539     1.53009     0.96252
 Zero-point vibrational energy     413767.1 (Joules/Mol)
                                   98.89271 (Kcal/Mol)
 Warning -- explicit consideration of  13 degrees of freedom as
           vibrations may cause significant error
 Vibrational temperatures:     90.10   153.20   222.37   284.02   314.90
          (Kelvin)            354.10   395.21   425.17   486.84   527.89
                              737.95   757.07   832.46   949.56  1034.55
                             1128.73  1228.79  1324.04  1368.49  1450.90
                             1476.19  1527.97  1534.53  1563.36  1617.87
                             1638.79  1739.32  1767.66  1814.65  1868.65
                             1921.69  1957.55  2022.81  2032.21  2046.21
                             2119.13  2133.69  2149.03  2157.19  2450.27
                             2599.61  4245.94  4356.41  4366.44  4370.62
                             4448.55  4458.44  4491.38  4496.78  4592.51
                             5497.57

 Zero-point correction=                           0.157596 (Hartree/Particle)
 Thermal correction to Energy=                    0.167164
 Thermal correction to Enthalpy=                  0.168108
 Thermal correction to Gibbs Free Energy=         0.123119
 Sum of electronic and zero-point Energies=           -423.071396
 Sum of electronic and thermal Energies=              -423.061828
 Sum of electronic and thermal Enthalpies=            -423.060884
 Sum of electronic and thermal Free Energies=         -423.105873

                     E (Thermal)             CV                S
                      KCal/Mol        Cal/Mol-Kelvin    Cal/Mol-Kelvin
 Total                  104.897             34.859             94.688
 Electronic               0.000              0.000              0.000
 Translational            0.889              2.981             40.409
 Rotational               0.889              2.981             28.988
 Vibrational            103.119             28.897             25.292
 Vibration     1          0.597              1.972              4.373
 Vibration     2          0.605              1.944              3.332
 Vibration     3          0.620              1.898              2.615
 Vibration     4          0.637              1.844              2.157
 Vibration     5          0.647              1.812              1.968
 Vibration     6          0.661              1.769              1.758
 Vibration     7          0.677              1.720              1.567
 Vibration     8          0.690              1.682              1.442
 Vibration     9          0.719              1.599              1.220
 Vibration    10          0.740              1.540              1.093
 Vibration    11          0.868              1.221              0.627
 Vibration    12          0.881              1.192              0.596
 Vibration    13          0.935              1.078              0.488

 Optimization completed.
    -- Stationary point found.
 Normal termination of Gaussian 09 at Tue Jan 28 00:40:21 2020.
