 Gaussian 09, Revision D.01,
 Gaussian 09:  ES64L-G09RevD.01 24-Apr-2013

 -----------------------------
 # b3lyp 6-31G(2df,p) opt Freq
 -----------------------------

 -----
 titel
 -----
 Symbolic Z-matrix:
 Charge =  0 Multiplicity = 1

 SCF Done:  E(RB3LYP) =  -423.187498695     A.U. after   14 cycles
 Optimization completed.
    -- Stationary point found.
 Normal termination of Gaussian 09 at Tue Jan 28 08:20:30 2020.

 ----------------------------------------------------------------------
 #N Geom=AllCheck Guess=TCheck SCRF=Check GenChk RB3LYP/6-31G(2df,p) Fr
 eq
 ----------------------------------------------------------------------

 Structure from the checkpoint file:  "/scratch/puck/g09_82081ab8-e3ca-4bac-acbc-3e2b90f81627/Gau-59700.chk"
 -----
 titel
 -----
 Charge =  0 Multiplicity = 1

                         Standard orientation:
 ---------------------------------------------------------------------
 Center     Atomic      Atomic             Coordinates (Angstroms)
 Number     Number       Type             X           Y           Z
 ---------------------------------------------------------------------
      1          6           0       -3.179002   -0.503724   -0.131667
      2          8           0       -1.843794   -0.704469    0.347142
      3          6           0       -0.980312    0.301149    0.089942
      4          8           0       -1.294035    1.311623   -0.489010
      5          6           0        0.400572   -0.053930    0.592714
      6          6           0        1.413710    1.132347    0.537910
      7          6           0        2.241999    0.372194   -0.504297
      8          6           0        2.651256   -0.969463    0.034225
      9          6           0        1.247852   -0.787540   -0.471761
     10          1           0       -3.185799   -0.374808   -1.217076
     11          1           0       -3.733792   -1.398823    0.150214
     12          1           0       -3.624245    0.382623    0.327520
     13          1           0        0.303842   -0.594560    1.538530
     14          1           0        0.926911    2.020612    0.133540
     15          1           0        1.921343    1.382101    1.474849
     16          1           0        2.735090    0.820089   -1.357861
     17          1           0        3.298177   -1.555713   -0.610909
     18          1           0        2.840988   -1.104994    1.097181
     19          1           0        0.843659   -1.379948   -1.283439
 ---------------------------------------------------------------------

 SCF Done:  E(RB3LYP) =  -423.187498695     A.U. after    1 cycles

 The electronic state is 1-A.
 Alpha  occ. eigenvalues --  -19.18061 -19.12288 -10.29973 -10.23565 -10.19967
 Alpha  occ. eigenvalues --  -10.19836 -10.19243 -10.18823 -10.18304  -1.09842
 Alpha  occ. eigenvalues --   -1.01013  -0.89785  -0.75968  -0.71651  -0.66032
 Alpha  occ. eigenvalues --   -0.59244  -0.57055  -0.53169  -0.52176  -0.48435
 Alpha  occ. eigenvalues --   -0.47592  -0.46211  -0.44922  -0.43451  -0.39639
 Alpha  occ. eigenvalues --   -0.39239  -0.37335  -0.35412  -0.33471  -0.32427
 Alpha  occ. eigenvalues --   -0.29989  -0.29262  -0.26883  -0.26018
 Alpha virt. eigenvalues --    0.01365   0.09770   0.10779   0.11107   0.11876
 Alpha virt. eigenvalues --    0.13120   0.13916   0.15113   0.15804   0.16569
 Alpha virt. eigenvalues --    0.17137   0.17730   0.18815   0.21018   0.22084

 Mulliken charges:
               1
     1  C   -0.239343
     2  O   -0.235714
     3  C    0.432479
     4  O   -0.360686
     5  C   -0.123792
     6  C   -0.256158
     7  C   -0.026365
     8  C   -0.286545
     9  C   -0.034582
    10  H    0.139140
    11  H    0.131872
    12  H    0.140231
    13  H    0.091058
    14  H    0.135519
    15  H    0.093231
    16  H    0.088588
    17  H    0.113113
    18  H    0.105278
    19  H    0.092676
 Sum of Mulliken charges =   0.00000

 Dipole moment (field-independent basis, Debye):
    X=             -0.0039    Y=             -1.4747    Z=              0.3023  Tot=              1.5053
 Quadrupole moment (field-independent basis, Debye-Ang):
   XX=            -46.7201   YY=            -56.1950   ZZ=            -51.8339
   XY=              2.3510   XZ=             -0.8332   YZ=              2.3741

  Exact polarizability:  93.947   0.767  72.006   0.549  -0.507  63.422
 Approx polarizability: 114.258   1.275 114.874   1.607  -6.684  97.987

                      1                      2                      3
                      A                      A                      A
 Frequencies --     12.8365               103.7837               127.8469
 Red. masses --      4.5227                 2.6607                 1.2073
 Frc consts  --      0.0004                 0.0169                 0.0116
 IR Inten    --      1.0367                 0.2647                 0.2300

                      4                      5                      6
                      A                      A                      A
 Frequencies --    141.9948               212.7648               288.9887
 Red. masses --      2.8604                 3.7686                 3.2723
 Frc consts  --      0.0340                 0.1005                 0.1610
 IR Inten    --      1.0654                 4.8181                 5.0171

                      7                      8                      9
                      A                      A                      A
 Frequencies --    348.9982               385.3174               432.3599
 Red. masses --      4.2113                 2.6231                 2.9250
 Frc consts  --      0.3022                 0.2295                 0.3222
 IR Inten    --     11.0053                 7.3407                 0.2128

                     10                     11                     12
                      A                      A                      A
 Frequencies --    657.4239               709.9859               751.2280
 Red. masses --      3.3884                 3.0361                 3.8744
 Frc consts  --      0.8629                 0.9017                 1.2883
 IR Inten    --      3.8080                 2.6728                 8.5009

                     13                     14                     15
                      A                      A                      A
 Frequencies --    781.2280               828.4998               871.8440
 Red. masses --      1.7292                 2.3823                 2.8679
 Frc consts  --      0.6218                 0.9635                 1.2844
 IR Inten    --      7.3468                10.2901                 4.6521

                     16                     17                     18
                      A                      A                      A
 Frequencies --    917.7217               926.6727               965.1958
 Red. masses --      1.9083                 1.9709                 2.1832
 Frc consts  --      0.9469                 0.9972                 1.1983
 IR Inten    --      1.7771                 1.1056                 2.7377

                     19                     20                     21
                      A                      A                      A
 Frequencies --    981.2174               999.9909              1059.7303
 Red. masses --      3.1987                 1.5269                 1.3358
 Frc consts  --      1.8145                 0.8996                 0.8838
 IR Inten    --     11.4253                 1.2098                 1.2284

                     22                     23                     24
                      A                      A                      A
 Frequencies --   1062.8112              1075.0232              1085.6987
 Red. masses --      2.3651                 1.8114                 1.5963
 Frc consts  --      1.5740                 1.2334                 1.1086
 IR Inten    --      4.6025                 6.9360                 1.0027

                     25                     26                     27
                      A                      A                      A
 Frequencies --   1092.2405              1161.7214              1179.0186
 Red. masses --      1.7087                 1.5730                 1.2854
 Frc consts  --      1.2011                 1.2508                 1.0528
 IR Inten    --      2.5681                19.7643                 1.3982

                     28                     29                     30
                      A                      A                      A
 Frequencies --   1197.4936              1213.7235              1218.1040
 Red. masses --      1.9821                 1.4705                 1.9413
 Frc consts  --      1.6747                 1.2763                 1.6972
 IR Inten    --    210.6649                17.3285               144.8451

                     31                     32                     33
                      A                      A                      A
 Frequencies --   1224.9686              1256.9669              1295.1305
 Red. masses --      1.4951                 1.4385                 1.7288
 Frc consts  --      1.3218                 1.3391                 1.7085
 IR Inten    --      9.1001                 0.2280                19.8078

                     34                     35                     36
                      A                      A                      A
 Frequencies --   1345.4205              1378.3168              1472.4591
 Red. masses --      2.1318                 1.9666                 1.2057
 Frc consts  --      2.2735                 2.2013                 1.5401
 IR Inten    --     43.6233                57.9143                15.7660

                     37                     38                     39
                      A                      A                      A
 Frequencies --   1476.2611              1481.9094              1494.0981
 Red. masses --      1.1253                 1.0473                 1.2023
 Frc consts  --      1.4450                 1.3550                 1.5813
 IR Inten    --      2.9096                 6.1187                 1.1123

                     40                     41                     42
                      A                      A                      A
 Frequencies --   1497.8191              1815.2732              3050.4884
 Red. masses --      1.0581                11.2587                 1.0353
 Frc consts  --      1.3986                21.8587                 5.6761
 IR Inten    --      7.0034               173.5291                49.0227

                     43                     44                     45
                      A                      A                      A
 Frequencies --   3051.4982              3067.5794              3102.6743
 Red. masses --      1.0598                 1.0833                 1.0574
 Frc consts  --      5.8145                 6.0063                 5.9973
 IR Inten    --     25.1499                26.0775                22.9535

                     46                     47                     48
                      A                      A                      A
 Frequencies --   3124.5547              3133.5711              3156.9803
 Red. masses --      1.1054                 1.1009                 1.1060
 Frc consts  --      6.3587                 6.3689                 6.4943
 IR Inten    --     19.3015                 5.3563                16.3334

                     49                     50                     51
                      A                      A                      A
 Frequencies --   3181.9592              3187.9416              3201.4345
 Red. masses --      1.0889                 1.1038                 1.1052
 Frc consts  --      6.4959                 6.6092                 6.6741
 IR Inten    --     15.2071                 2.8512                24.2489

 - Thermochemistry -
 -------------------
 Temperature   298.150 Kelvin.  Pressure   1.00000 Atm.
 Atom     1 has atomic number  6 and mass  12.00000

 Molecular mass:   126.06808 amu.
 Principal axes and moments of inertia in atomic units:
                           1         2         3
     Eigenvalues --   432.386211797.956782010.91073
           X            0.99998   0.00541   0.00436
           Y           -0.00556   0.99934   0.03598
           Z           -0.00416  -0.03600   0.99934
 This molecule is an asymmetric top.
 Rotational symmetry number  1.
 Rotational temperatures (Kelvin)      0.20032     0.04817     0.04307
 Rotational constants (GHZ):           4.17391     1.00377     0.89747
 Zero-point vibrational energy     417429.5 (Joules/Mol)
                                   99.76805 (Kcal/Mol)
 Warning -- explicit consideration of   9 degrees of freedom as
           vibrations may cause significant error
 Vibrational temperatures:     18.47   149.32   183.94   204.30   306.12
          (Kelvin)            415.79   502.13   554.39   622.07   945.89
                             1021.51  1080.85  1124.01  1192.02  1254.39
                             1320.40  1333.27  1388.70  1411.75  1438.76
                             1524.71  1529.15  1546.72  1562.08  1571.49
                             1671.46  1696.34  1722.92  1746.28  1752.58
                             1762.45  1808.49  1863.40  1935.76  1983.09
                             2118.54  2124.01  2132.13  2149.67  2155.02
                             2611.77  4388.97  4390.42  4413.56  4464.05
                             4495.53  4508.50  4542.18  4578.12  4586.73
                             4606.14

 Zero-point correction=                           0.158991 (Hartree/Particle)
 Thermal correction to Energy=                    0.167821
 Thermal correction to Enthalpy=                  0.168765
 Thermal correction to Gibbs Free Energy=         0.123518
 Sum of electronic and zero-point Energies=           -423.028508
 Sum of electronic and thermal Energies=              -423.019678
 Sum of electronic and thermal Enthalpies=            -423.018734
 Sum of electronic and thermal Free Energies=         -423.063981

                     E (Thermal)             CV                S
                      KCal/Mol        Cal/Mol-Kelvin    Cal/Mol-Kelvin
 Total                  105.309             31.872             95.230
 Electronic               0.000              0.000              0.000
 Translational            0.889              2.981             40.409
 Rotational               0.889              2.981             28.838
 Vibrational            103.532             25.910             25.984
 Vibration     1          0.593              1.987              7.515
 Vibration     2          0.605              1.946              3.382
 Vibration     3          0.611              1.925              2.978
 Vibration     4          0.615              1.911              2.777
 Vibration     5          0.644              1.821              2.020
 Vibration     6          0.686              1.694              1.480
 Vibration     7          0.726              1.577              1.171
 Vibration     8          0.754              1.502              1.018
 Vibration     9          0.793              1.400              0.851

 Normal termination of Gaussian 09 at Tue Jan 28 10:08:39 2020.
