 Gaussian 09, Revision D.01,
 Gaussian 09:  ES64L-G09RevD.01 24-Apr-2013

 -----------------------------
 # b3lyp 6-31G(2df,p) opt Freq
 -----------------------------

 -----
 titel
 -----
 Symbolic Z-matrix:
 Charge =  0 Multiplicity = 1

 SCF Done:  E(RB3LYP) =  -423.121149943     A.U. after   14 cycles
 Optimization completed.
    -- Stationary point found.
 Normal termination of Gaussian 09 at Mon Jan 27 16:03:21 2020.

 ----------------------------------------------------------------------
 #N Geom=AllCheck Guess=TCheck SCRF=Check GenChk RB3LYP/6-31G(2df,p) Fr
 eq
 ----------------------------------------------------------------------

 Structure from the checkpoint file:  "/scratch/puck/g09_f94c8b48-6d39-4f8c-8a8b-c291e8a59e97/Gau-82565.chk"
 -----
 titel
 -----
 Charge =  0 Multiplicity = 1

                         Standard orientation:
 ---------------------------------------------------------------------
 Center     Atomic      Atomic             Coordinates (Angstroms)
 Number     Number       Type             X           Y           Z
 ---------------------------------------------------------------------
      1          6           0       -1.363134    1.634922   -0.000015
      2          6           0       -1.022963    0.146129   -0.000025
      3          6           0       -2.302097   -0.691576    0.000006
      4          6           0        0.077893   -0.427348    0.976263
      5          8           0        0.332203   -1.468081   -0.000002
      6          6           0        0.077927   -0.427367   -0.976280
      7          6           0        1.277105    0.532431   -0.732012
      8          8           0        2.344210   -0.072505    0.000025
      9          6           0        1.277086    0.532440    0.732018
     10          1           0       -0.484228    2.281379   -0.000043
     11          1           0       -1.965058    1.885227   -0.880837
     12          1           0       -1.964986    1.885220    0.880861
     13          1           0       -2.910490   -0.463088    0.882469
     14          1           0       -2.910907   -0.462578   -0.882029
     15          1           0       -2.077565   -1.759033   -0.000322
     16          1           0       -0.135701   -0.790076    1.981862
     17          1           0       -0.135622   -0.790104   -1.981886
     18          1           0        1.521190    1.369969   -1.375039
     19          1           0        1.521146    1.369988    1.375043
 ---------------------------------------------------------------------

 SCF Done:  E(RB3LYP) =  -423.121149943     A.U. after    1 cycles

 The electronic state is 1-A.
 Alpha  occ. eigenvalues --  -19.15132 -19.13993 -10.24260 -10.24259 -10.23529
 Alpha  occ. eigenvalues --  -10.23495 -10.21108 -10.18363 -10.17646  -1.09371
 Alpha  occ. eigenvalues --   -1.03403  -0.80659  -0.72647  -0.70871  -0.68935
 Alpha  occ. eigenvalues --   -0.61885  -0.58383  -0.54221  -0.53954  -0.47321
 Alpha  occ. eigenvalues --   -0.46223  -0.45985  -0.42098  -0.41536  -0.39108
 Alpha  occ. eigenvalues --   -0.38982  -0.37882  -0.36903  -0.35716  -0.33212
 Alpha  occ. eigenvalues --   -0.30643  -0.29364  -0.26584  -0.24533
 Alpha virt. eigenvalues --    0.06262   0.07916   0.09232   0.11024   0.12573
 Alpha virt. eigenvalues --    0.13469   0.14753   0.15237   0.15884   0.16244
 Alpha virt. eigenvalues --    0.17563   0.18349   0.19797   0.19845   0.20907

 Mulliken charges:
               1
     1  C   -0.476902
     2  C    0.326113
     3  C   -0.453376
     4  C   -0.022078
     5  O   -0.264407
     6  C   -0.022098
     7  C    0.019487
     8  O   -0.226891
     9  C    0.019484
    10  H    0.118575
    11  H    0.120483
    12  H    0.120483
    13  H    0.112658
    14  H    0.112653
    15  H    0.139585
    16  H    0.082157
    17  H    0.082157
    18  H    0.105958
    19  H    0.105958
 Sum of Mulliken charges =   0.00000

 Dipole moment (field-independent basis, Debye):
    X=             -2.2476    Y=              2.3383    Z=              0.0000  Tot=              3.2434
 Quadrupole moment (field-independent basis, Debye-Ang):
   XX=            -58.6216   YY=            -55.2371   ZZ=            -48.3516
   XY=              2.8274   XZ=             -0.0002   YZ=              0.0001

  Exact polarizability:  80.261   2.115  68.285   0.000   0.000  71.457
 Approx polarizability: 111.596  -1.494 103.473  -0.001   0.000 115.699

                      1                      2                      3
                      A                      A                      A
 Frequencies --    181.3143               215.2827               235.7792
 Red. masses --      1.0812                 2.4146                 1.1373
 Frc consts  --      0.0209                 0.0659                 0.0373
 IR Inten    --      0.0395                 0.4827                 0.3225

                      4                      5                      6
                      A                      A                      A
 Frequencies --    245.4832               314.6193               368.9345
 Red. masses --      3.8342                 2.4374                 2.4804
 Frc consts  --      0.1361                 0.1421                 0.1989
 IR Inten    --      1.8830                 0.7160                 1.5411

                      7                      8                      9
                      A                      A                      A
 Frequencies --    447.8713               462.4414               524.5217
 Red. masses --      5.9121                 2.7137                 4.7553
 Frc consts  --      0.6987                 0.3419                 0.7708
 IR Inten    --      0.5872                 0.0000                 1.9854

                     10                     11                     12
                      A                      A                      A
 Frequencies --    605.5046               734.0119               734.2386
 Red. masses --      4.2868                 4.3725                 4.8068
 Frc consts  --      0.9260                 1.3880                 1.5268
 IR Inten    --      5.6612                30.4049                 0.0623

                     13                     14                     15
                      A                      A                      A
 Frequencies --    821.2825               830.9856               833.7239
 Red. masses --      2.7771                 2.9013                 2.3663
 Frc consts  --      1.1036                 1.1804                 0.9691
 IR Inten    --      0.5088                 0.2060                 3.6175

                     16                     17                     18
                      A                      A                      A
 Frequencies --    887.2406               907.6696               913.3122
 Red. masses --      1.9566                 5.1257                 3.6017
 Frc consts  --      0.9075                 2.4881                 1.7701
 IR Inten    --     47.4767                11.7300                 8.8496

                     19                     20                     21
                      A                      A                      A
 Frequencies --    948.0329               960.7374               962.5473
 Red. masses --      1.5083                 1.7708                 6.4754
 Frc consts  --      0.7987                 0.9630                 3.5348
 IR Inten    --      1.1451                 2.5050                23.3183

                     22                     23                     24
                      A                      A                      A
 Frequencies --    985.4173              1018.2922              1066.5701
 Red. masses --      2.0120                 1.2851                 4.1617
 Frc consts  --      1.1511                 0.7851                 2.7893
 IR Inten    --     18.8984                 0.1271                 2.7017

                     25                     26                     27
                      A                      A                      A
 Frequencies --   1076.7287              1154.2894              1166.1747
 Red. masses --      1.3050                 1.5315                 1.6914
 Frc consts  --      0.8914                 1.2023                 1.3552
 IR Inten    --      2.3162                 2.0813                 2.0354

                     28                     29                     30
                      A                      A                      A
 Frequencies --   1189.4746              1235.1204              1243.5834
 Red. masses --      1.7710                 1.2380                 2.1231
 Frc consts  --      1.4763                 1.1127                 1.9345
 IR Inten    --      0.4759                 0.5476                 1.1304

                     31                     32                     33
                      A                      A                      A
 Frequencies --   1257.2763              1270.2669              1290.6314
 Red. masses --      2.2181                 1.4197                 1.8837
 Frc consts  --      2.0659                 1.3497                 1.8487
 IR Inten    --     24.1212                 1.8858                 4.6937

                     34                     35                     36
                      A                      A                      A
 Frequencies --   1309.2757              1390.2184              1402.4863
 Red. masses --      1.8513                 2.6997                 1.4396
 Frc consts  --      1.8698                 3.0743                 1.6684
 IR Inten    --      3.6728                13.7503                 8.5137

                     37                     38                     39
                      A                      A                      A
 Frequencies --   1418.2182              1484.3450              1491.9877
 Red. masses --      1.2356                 1.0499                 1.0456
 Frc consts  --      1.4643                 1.3629                 1.3713
 IR Inten    --      6.6430                 4.2610                 0.0058

                     40                     41                     42
                      A                      A                      A
 Frequencies --   1502.8257              1515.4511              3029.9534
 Red. masses --      1.0629                 1.0488                 1.0390
 Frc consts  --      1.4144                 1.4191                 5.6198
 IR Inten    --      0.1247                 8.0423                14.1049

                     43                     44                     45
                      A                      A                      A
 Frequencies --   3036.1078              3085.1806              3091.1458
 Red. masses --      1.0393                 1.1006                 1.0999
 Frc consts  --      5.6445                 6.1725                 6.1920
 IR Inten    --     38.0581                 1.5281                34.8569

                     46                     47                     48
                      A                      A                      A
 Frequencies --   3120.2497              3122.8755              3132.8691
 Red. masses --      1.0884                 1.0926                 1.0967
 Frc consts  --      6.2431                 6.2781                 6.3422
 IR Inten    --     59.6040                 7.2317                20.6103

                     49                     50                     51
                      A                      A                      A
 Frequencies --   3139.8472              3178.3874              3191.0455
 Red. masses --      1.0981                 1.0876                 1.0987
 Frc consts  --      6.3782                 6.4733                 6.5920
 IR Inten    --     10.7270                14.0219                13.5986

 - Thermochemistry -
 -------------------
 Temperature   298.150 Kelvin.  Pressure   1.00000 Atm.
 Atom     1 has atomic number  6 and mass  12.00000

 Molecular mass:   126.06808 amu.
 Principal axes and moments of inertia in atomic units:
                           1         2         3
     Eigenvalues --   554.337821112.239801305.21530
           X            0.99993   0.01191   0.00000
           Y           -0.01191   0.99993   0.00000
           Z            0.00000   0.00000   1.00000
 This molecule is an asymmetric top.
 Rotational symmetry number  1.
 Warning -- assumption of classical behavior for rotation
           may cause significant error
 Rotational temperatures (Kelvin)      0.15625     0.07787     0.06636
 Rotational constants (GHZ):           3.25567     1.62262     1.38272
 Zero-point vibrational energy     417089.0 (Joules/Mol)
                                   99.68665 (Kcal/Mol)
 Warning -- explicit consideration of  10 degrees of freedom as
           vibrations may cause significant error
 Vibrational temperatures:    260.87   309.74   339.23   353.20   452.67
          (Kelvin)            530.81   644.39   665.35   754.67   871.19
                             1056.08  1056.40  1181.64  1195.60  1199.54
                             1276.54  1305.93  1314.05  1364.01  1382.29
                             1384.89  1417.79  1465.09  1534.55  1549.17
                             1660.76  1677.86  1711.39  1777.06  1789.24
                             1808.94  1827.63  1856.93  1883.75  2000.21
                             2017.86  2040.50  2135.64  2146.63  2162.23
                             2180.39  4359.42  4368.28  4438.88  4447.46
                             4489.34  4493.12  4507.49  4517.53  4572.98
                             4591.20

 Zero-point correction=                           0.158861 (Hartree/Particle)
 Thermal correction to Energy=                    0.166453
 Thermal correction to Enthalpy=                  0.167397
 Thermal correction to Gibbs Free Energy=         0.127431
 Sum of electronic and zero-point Energies=           -422.962289
 Sum of electronic and thermal Energies=              -422.954697
 Sum of electronic and thermal Enthalpies=            -422.953753
 Sum of electronic and thermal Free Energies=         -422.993719

                     E (Thermal)             CV                S
                      KCal/Mol        Cal/Mol-Kelvin    Cal/Mol-Kelvin
 Total                  104.451             31.057             84.116
 Electronic               0.000              0.000              0.000
 Translational            0.889              2.981             40.409
 Rotational               0.889              2.981             28.178
 Vibrational            102.673             25.095             15.530
 Vibration     1          0.630              1.865              2.315
 Vibration     2          0.645              1.818              1.998
 Vibration     3          0.655              1.786              1.835
 Vibration     4          0.660              1.770              1.763
 Vibration     5          0.702              1.646              1.338
 Vibration     6          0.741              1.536              1.084
 Vibration     7          0.807              1.366              0.802
 Vibration     8          0.820              1.333              0.759
 Vibration     9          0.879              1.196              0.600
 Vibration    10          0.964              1.020              0.440

 Optimization completed.
    -- Stationary point found.
 Normal termination of Gaussian 09 at Mon Jan 27 16:49:54 2020.
