 Gaussian 09, Revision D.01,
 Gaussian 09:  ES64L-G09RevD.01 24-Apr-2013

 -----------------------------
 # b3lyp 6-31G(2df,p) opt Freq
 -----------------------------

 -----
 titel
 -----
 Symbolic Z-matrix:
 Charge =  0 Multiplicity = 1

 SCF Done:  E(RB3LYP) =  -423.086669115     A.U. after   14 cycles
 Optimization completed.
    -- Stationary point found.
 Normal termination of Gaussian 09 at Tue Jan 28 08:11:30 2020.

 ----------------------------------------------------------------------
 #N Geom=AllCheck Guess=TCheck SCRF=Check GenChk RB3LYP/6-31G(2df,p) Fr
 eq
 ----------------------------------------------------------------------

 Structure from the checkpoint file:  "/scratch/puck/g09_200c58bb-e421-40e7-9e3d-5a80b045fa6c/Gau-74211.chk"
 -----
 titel
 -----
 Charge =  0 Multiplicity = 1

                         Standard orientation:
 ---------------------------------------------------------------------
 Center     Atomic      Atomic             Coordinates (Angstroms)
 Number     Number       Type             X           Y           Z
 ---------------------------------------------------------------------
      1          6           0        2.084470   -1.256520   -0.243277
      2          6           0        1.196539   -0.346505    0.608299
      3          6           0        1.342708    1.196000    0.244360
      4          8           0        0.179526    1.652395   -0.514715
      5          6           0       -0.518562    0.483668   -0.870784
      6          6           0       -1.900923   -0.036764   -0.335834
      7          6           0       -1.434838    0.208884    1.098379
      8          6           0       -0.273009   -0.441578    0.291509
      9          8           0       -1.256983   -1.398342   -0.292025
     10          1           0        1.918538   -2.307869    0.008710
     11          1           0        1.875710   -1.131043   -1.310205
     12          1           0        3.142183   -1.030149   -0.077381
     13          1           0        1.416607   -0.494153    1.669814
     14          1           0        1.407331    1.816816    1.142633
     15          1           0        2.244611    1.357378   -0.357461
     16          1           0       -0.272076    0.109917   -1.869520
     17          1           0       -2.894876   -0.002464   -0.782027
     18          1           0       -1.308354    1.242481    1.422432
     19          1           0       -1.888324   -0.436443    1.851016
 ---------------------------------------------------------------------

 SCF Done:  E(RB3LYP) =  -423.086669115     A.U. after    1 cycles

 The electronic state is 1-A.
 Alpha  occ. eigenvalues --  -19.14649 -19.14024 -10.25265 -10.24354 -10.23929
 Alpha  occ. eigenvalues --  -10.22769 -10.20898 -10.18907 -10.18545  -1.06577
 Alpha  occ. eigenvalues --   -1.02417  -0.80667  -0.78128  -0.70020  -0.67454
 Alpha  occ. eigenvalues --   -0.64325  -0.58483  -0.53667  -0.50784  -0.48018
 Alpha  occ. eigenvalues --   -0.47729  -0.44540  -0.43697  -0.40723  -0.40336
 Alpha  occ. eigenvalues --   -0.39027  -0.37541  -0.35316  -0.34273  -0.33116
 Alpha  occ. eigenvalues --   -0.32348  -0.27881  -0.26586  -0.23809
 Alpha virt. eigenvalues --    0.05418   0.08209   0.10808   0.11070   0.12060
 Alpha virt. eigenvalues --    0.13183   0.13884   0.14725   0.14996   0.16232
 Alpha virt. eigenvalues --    0.16489   0.17776   0.18752   0.19809   0.20794

 Mulliken charges:
               1
     1  C   -0.399007
     2  C   -0.192730
     3  C   -0.078012
     4  O   -0.289278
     5  C    0.097221
     6  C   -0.017759
     7  C   -0.277684
     8  C    0.444639
     9  O   -0.378537
    10  H    0.132217
    11  H    0.129387
    12  H    0.117713
    13  H    0.086969
    14  H    0.115238
    15  H    0.111930
    16  H    0.082403
    17  H    0.095702
    18  H    0.115351
    19  H    0.104237
 Sum of Mulliken charges =   0.00000

 Dipole moment (field-independent basis, Debye):
    X=              1.1788    Y=              0.3554    Z=              0.9952  Tot=              1.5831
 Quadrupole moment (field-independent basis, Debye-Ang):
   XX=            -49.0672   YY=            -59.5445   ZZ=            -51.7233
   XY=             -2.1384   XZ=              0.6507   YZ=              0.7731

  Exact polarizability:  86.832   1.367  68.325   0.727   2.326  68.767
 Approx polarizability: 118.189   4.568 108.923   4.054   2.526 105.737

                      1                      2                      3
                      A                      A                      A
 Frequencies --     87.2785               180.6282               213.7430
 Red. masses --      2.5761                 3.1595                 1.0311
 Frc consts  --      0.0116                 0.0607                 0.0278
 IR Inten    --      0.5700                 1.1697                 0.0567

                      4                      5                      6
                      A                      A                      A
 Frequencies --    283.0564               319.0597               418.7037
 Red. masses --      2.8839                 3.6704                 3.7786
 Frc consts  --      0.1361                 0.2201                 0.3903
 IR Inten    --      6.4133                 3.1864                 5.4453

                      7                      8                      9
                      A                      A                      A
 Frequencies --    439.9366               545.6089               557.9220
 Red. masses --      2.6540                 3.4614                 3.8255
 Frc consts  --      0.3026                 0.6071                 0.7016
 IR Inten    --      1.0169                 2.7861                 3.8911

                     10                     11                     12
                      A                      A                      A
 Frequencies --    681.8028               697.2868               736.2328
 Red. masses --      5.0554                 3.8614                 3.1022
 Frc consts  --      1.3846                 1.1062                 0.9907
 IR Inten    --     17.3553                 0.6151                 9.1267

                     13                     14                     15
                      A                      A                      A
 Frequencies --    833.2148               870.9925               903.3759
 Red. masses --      3.1093                 3.9819                 3.5525
 Frc consts  --      1.2718                 1.7798                 1.7081
 IR Inten    --      3.5647                 2.0641                28.5119

                     16                     17                     18
                      A                      A                      A
 Frequencies --    917.8900               928.1340               951.8280
 Red. masses --      2.6543                 1.5844                 1.9170
 Frc consts  --      1.3176                 0.8041                 1.0233
 IR Inten    --     15.8523                 4.4769                 9.5907

                     19                     20                     21
                      A                      A                      A
 Frequencies --    965.6736               988.5497              1026.7298
 Red. masses --      4.0508                 1.5839                 2.2084
 Frc consts  --      2.2256                 0.9119                 1.3716
 IR Inten    --     12.7774                 3.5955                 8.9315

                     22                     23                     24
                      A                      A                      A
 Frequencies --   1050.8658              1085.2122              1089.4156
 Red. masses --      1.6811                 2.8684                 2.0082
 Frc consts  --      1.0938                 1.9903                 1.4043
 IR Inten    --      7.6980                75.3863                12.1890

                     25                     26                     27
                      A                      A                      A
 Frequencies --   1122.2202              1146.5109              1165.3733
 Red. masses --      1.7309                 1.9277                 1.5907
 Frc consts  --      1.2843                 1.4929                 1.2728
 IR Inten    --     10.1653                 1.6975                 4.3570

                     28                     29                     30
                      A                      A                      A
 Frequencies --   1197.1311              1200.7919              1224.3754
 Red. masses --      1.5321                 1.4980                 1.1855
 Frc consts  --      1.2937                 1.2726                 1.0470
 IR Inten    --     10.8442                 1.4319                 2.9320

                     31                     32                     33
                      A                      A                      A
 Frequencies --   1233.6884              1276.7047              1312.2865
 Red. masses --      1.6746                 1.6393                 1.6984
 Frc consts  --      1.5017                 1.5743                 1.7233
 IR Inten    --      5.9276                 4.7043                10.1674

                     34                     35                     36
                      A                      A                      A
 Frequencies --   1347.2538              1371.0166              1386.2605
 Red. masses --      1.3698                 1.4397                 1.8332
 Frc consts  --      1.4649                 1.5945                 2.0756
 IR Inten    --     10.6900                16.9901                 1.7928

                     37                     38                     39
                      A                      A                      A
 Frequencies --   1415.1895              1481.6703              1494.7253
 Red. masses --      1.2302                 1.2480                 1.0513
 Frc consts  --      1.4517                 1.6142                 1.3838
 IR Inten    --      3.4295                 6.1489                 5.2479

                     40                     41                     42
                      A                      A                      A
 Frequencies --   1498.9432              1511.4807              3033.6983
 Red. masses --      1.0574                 1.0936                 1.0587
 Frc consts  --      1.3998                 1.4720                 5.7408
 IR Inten    --      6.1078                 0.6195                42.7425

                     43                     44                     45
                      A                      A                      A
 Frequencies --   3040.4066              3059.3145              3063.3133
 Red. masses --      1.0363                 1.0866                 1.0855
 Frc consts  --      5.6441                 5.9919                 6.0013
 IR Inten    --     23.2991                20.4472                32.4846

                     46                     47                     48
                      A                      A                      A
 Frequencies --   3082.1230              3088.8598              3110.6380
 Red. masses --      1.0545                 1.1053                 1.1017
 Frc consts  --      5.9018                 6.2133                 6.2809
 IR Inten    --     19.4264                36.6266                24.6995

                     49                     50                     51
                      A                      A                      A
 Frequencies --   3116.6387              3120.8099              3161.5942
 Red. masses --      1.1015                 1.0937                 1.1124
 Frc consts  --      6.3041                 6.2760                 6.5512
 IR Inten    --     23.6021                57.8657                15.6756

 - Thermochemistry -
 -------------------
 Temperature   298.150 Kelvin.  Pressure   1.00000 Atm.
 Atom     1 has atomic number  6 and mass  12.00000

 Molecular mass:   126.06808 amu.
 Principal axes and moments of inertia in atomic units:
                           1         2         3
     Eigenvalues --   663.359201007.240701292.95579
           X            0.99822  -0.05834  -0.01263
           Y            0.05879   0.99752   0.03858
           Z            0.01035  -0.03925   0.99918
 This molecule is an asymmetric top.
 Rotational symmetry number  1.
 Warning -- assumption of classical behavior for rotation
           may cause significant error
 Rotational temperatures (Kelvin)      0.13057     0.08599     0.06699
 Rotational constants (GHZ):           2.72061     1.79177     1.39583
 Zero-point vibrational energy     418909.3 (Joules/Mol)
                                  100.12172 (Kcal/Mol)
 Warning -- explicit consideration of   9 degrees of freedom as
           vibrations may cause significant error
 Vibrational temperatures:    125.57   259.88   307.53   407.25   459.06
          (Kelvin)            602.42   632.97   785.01   802.72   980.96
                             1003.24  1059.27  1198.81  1253.16  1299.75
                             1320.64  1335.38  1369.47  1389.39  1422.30
                             1477.23  1511.96  1561.38  1567.42  1614.62
                             1649.57  1676.71  1722.40  1727.67  1761.60
                             1775.00  1836.89  1888.09  1938.40  1972.58
                             1994.52  2036.14  2131.79  2150.57  2156.64
                             2174.68  4364.81  4374.46  4401.67  4407.42
                             4434.48  4444.17  4475.51  4484.14  4490.14
                             4548.82

 Zero-point correction=                           0.159554 (Hartree/Particle)
 Thermal correction to Energy=                    0.167114
 Thermal correction to Enthalpy=                  0.168058
 Thermal correction to Gibbs Free Energy=         0.127632
 Sum of electronic and zero-point Energies=           -422.927115
 Sum of electronic and thermal Energies=              -422.919555
 Sum of electronic and thermal Enthalpies=            -422.918611
 Sum of electronic and thermal Free Energies=         -422.959037

                     E (Thermal)             CV                S
                      KCal/Mol        Cal/Mol-Kelvin    Cal/Mol-Kelvin
 Total                  104.866             30.139             85.085
 Electronic               0.000              0.000              0.000
 Translational            0.889              2.981             40.409
 Rotational               0.889              2.981             28.248
 Vibrational            103.088             24.177             16.428
 Vibration     1          0.601              1.958              3.720
 Vibration     2          0.630              1.866              2.322
 Vibration     3          0.644              1.820              2.011
 Vibration     4          0.682              1.705              1.515
 Vibration     5          0.705              1.637              1.315
 Vibration     6          0.782              1.430              0.896
 Vibration     7          0.800              1.383              0.827
 Vibration     8          0.901              1.149              0.553
 Vibration     9          0.913              1.122              0.528

 Normal termination of Gaussian 09 at Tue Jan 28 09:02:31 2020.
