 Gaussian 09, Revision D.01,
 Gaussian 09:  ES64L-G09RevD.01 24-Apr-2013

 -----------------------------
 # b3lyp 6-31G(2df,p) opt Freq
 -----------------------------

 -----
 titel
 -----
 Symbolic Z-matrix:
 Charge =  0 Multiplicity = 1

 SCF Done:  E(RB3LYP) =  -423.152660971     A.U. after   12 cycles
 Optimization completed.
    -- Stationary point found.
 Normal termination of Gaussian 09 at Mon Jan 27 17:09:59 2020.

 ----------------------------------------------------------------------
 #N Geom=AllCheck Guess=TCheck SCRF=Check GenChk RB3LYP/6-31G(2df,p) Fr
 eq
 ----------------------------------------------------------------------

 Structure from the checkpoint file:  "/scratch/puck/g09_2664365d-49f1-4f65-a875-924362b89423/Gau-86238.chk"
 -----
 titel
 -----
 Charge =  0 Multiplicity = 1

                         Standard orientation:
 ---------------------------------------------------------------------
 Center     Atomic      Atomic             Coordinates (Angstroms)
 Number     Number       Type             X           Y           Z
 ---------------------------------------------------------------------
      1          8           0        2.131924   -1.015155   -0.098806
      2          6           0        0.936464   -0.283271   -0.043312
      3          6           0        0.883729    1.011536   -0.896777
      4          6           0       -0.114462    1.523566    0.182807
      5          6           0        0.636267    0.618077    1.193083
      6          8           0       -1.450468    1.071512   -0.034819
      7          6           0       -1.552747   -0.263475   -0.459039
      8          6           0       -1.424464   -1.418712    0.507555
      9          6           0       -0.295860   -1.088309   -0.452299
     10          1           0        2.008373   -1.829329    0.401847
     11          1           0        1.824236    1.564788   -0.845204
     12          1           0        0.539017    0.934886   -1.930182
     13          1           0       -0.187690    2.593359    0.375129
     14          1           0        1.562613    1.087845    1.532691
     15          1           0        0.084825    0.227362    2.049181
     16          1           0       -2.260673   -0.362916   -1.275868
     17          1           0       -1.309711   -1.202591    1.562343
     18          1           0       -2.015100   -2.303960    0.295604
     19          1           0       -0.111097   -1.756773   -1.288645
 ---------------------------------------------------------------------

 SCF Done:  E(RB3LYP) =  -423.152660972     A.U. after    1 cycles

 The electronic state is 1-A.
 Alpha  occ. eigenvalues --  -19.14226 -19.13965 -10.24419 -10.23631 -10.23479
 Alpha  occ. eigenvalues --  -10.19261 -10.18701 -10.17844 -10.17733  -1.04147
 Alpha  occ. eigenvalues --   -1.02329  -0.85453  -0.83343  -0.67307  -0.65232
 Alpha  occ. eigenvalues --   -0.62966  -0.58613  -0.54052  -0.52066  -0.49400
 Alpha  occ. eigenvalues --   -0.46660  -0.45897  -0.43837  -0.41284  -0.39074
 Alpha  occ. eigenvalues --   -0.38800  -0.36496  -0.35744  -0.33927  -0.32399
 Alpha  occ. eigenvalues --   -0.30234  -0.27237  -0.26124  -0.23267
 Alpha virt. eigenvalues --    0.07671   0.08859   0.10338   0.10979   0.12776
 Alpha virt. eigenvalues --    0.13597   0.14663   0.15288   0.16967   0.18495
 Alpha virt. eigenvalues --    0.19137   0.19689   0.20390   0.21825   0.22621

 Mulliken charges:
               1
     1  O   -0.487459
     2  C    0.403832
     3  C   -0.272799
     4  C    0.117663
     5  C   -0.319299
     6  O   -0.273777
     7  C    0.117500
     8  C   -0.347057
     9  C   -0.139160
    10  H    0.276708
    11  H    0.108623
    12  H    0.099706
    13  H    0.082251
    14  H    0.108175
    15  H    0.096443
    16  H    0.099721
    17  H    0.122489
    18  H    0.111869
    19  H    0.094569
 Sum of Mulliken charges =   0.00000

 Dipole moment (field-independent basis, Debye):
    X=              0.0392    Y=             -1.1670    Z=              0.4360  Tot=              1.2464
 Quadrupole moment (field-independent basis, Debye-Ang):
   XX=            -58.4377   YY=            -49.3916   ZZ=            -51.5588
   XY=              3.2150   XZ=              2.7050   YZ=             -0.6229

  Exact polarizability:  75.612   5.258  77.298   0.425  -0.991  68.069
 Approx polarizability: 110.574   1.624 111.703  -0.925  -2.071 103.464

                      1                      2                      3
                      A                      A                      A
 Frequencies --    226.3549               235.5707               276.0054
 Red. masses --      3.4207                 2.4390                 1.2596
 Frc consts  --      0.1033                 0.0797                 0.0565
 IR Inten    --      7.4565                 6.5607                66.9201

                      4                      5                      6
                      A                      A                      A
 Frequencies --    335.8741               384.1248               441.5471
 Red. masses --      3.3495                 3.3125                 4.3549
 Frc consts  --      0.2226                 0.2880                 0.5002
 IR Inten    --     17.4831                 6.1948                 0.6822

                      7                      8                      9
                      A                      A                      A
 Frequencies --    451.8819               494.3574               509.0769
 Red. masses --      2.5667                 2.4309                 2.3869
 Frc consts  --      0.3088                 0.3500                 0.3645
 IR Inten    --      2.8415                 0.9562                 5.0035

                     10                     11                     12
                      A                      A                      A
 Frequencies --    616.4564               667.0869               758.3022
 Red. masses --      3.7524                 3.0748                 2.3195
 Frc consts  --      0.8402                 0.8062                 0.7858
 IR Inten    --      1.2092                 8.4324                12.3652

                     13                     14                     15
                      A                      A                      A
 Frequencies --    815.5531               831.5991               839.7517
 Red. masses --      1.4948                 2.0142                 2.6223
 Frc consts  --      0.5858                 0.8207                 1.0895
 IR Inten    --     10.1037                 4.3177                 1.7856

                     16                     17                     18
                      A                      A                      A
 Frequencies --    893.9221               928.5979               945.1283
 Red. masses --      2.3686                 2.6993                 2.4452
 Frc consts  --      1.1152                 1.3714                 1.2869
 IR Inten    --      9.6021                 9.9364                 7.1320

                     19                     20                     21
                      A                      A                      A
 Frequencies --    964.0160               969.0498               998.7678
 Red. masses --      2.8723                 1.6058                 2.7691
 Frc consts  --      1.5727                 0.8885                 1.6275
 IR Inten    --      6.0272                 6.9939                45.0998

                     22                     23                     24
                      A                      A                      A
 Frequencies --   1018.0369              1045.9638              1057.8564
 Red. masses --      1.6140                 1.1730                 1.6660
 Frc consts  --      0.9856                 0.7561                 1.0984
 IR Inten    --      5.3677                 6.8504                 6.3967

                     25                     26                     27
                      A                      A                      A
 Frequencies --   1084.7842              1126.9559              1148.8882
 Red. masses --      1.5993                 1.3157                 1.5436
 Frc consts  --      1.1088                 0.9845                 1.2005
 IR Inten    --     31.9943                 2.2462                10.4845

                     28                     29                     30
                      A                      A                      A
 Frequencies --   1163.6762              1179.5918              1211.6904
 Red. masses --      1.5169                 2.1199                 2.7811
 Frc consts  --      1.2102                 1.7379                 2.4057
 IR Inten    --      4.2897                75.0070                39.5191

                     31                     32                     33
                      A                      A                      A
 Frequencies --   1225.8443              1236.1071              1254.7377
 Red. masses --      2.1209                 1.6618                 1.8190
 Frc consts  --      1.8777                 1.4961                 1.6873
 IR Inten    --     48.5851                 9.0274                54.9663

                     34                     35                     36
                      A                      A                      A
 Frequencies --   1263.8240              1340.7629              1370.7875
 Red. masses --      1.9092                 1.2623                 1.6124
 Frc consts  --      1.7967                 1.3369                 1.7850
 IR Inten    --     36.9146                 1.1875                26.0975

                     37                     38                     39
                      A                      A                      A
 Frequencies --   1374.1006              1405.6543              1460.8681
 Red. masses --      1.9055                 1.5062                 1.1793
 Frc consts  --      2.1198                 1.7534                 1.4828
 IR Inten    --     42.4745                19.8717                 4.9182

                     40                     41                     42
                      A                      A                      A
 Frequencies --   1482.9793              1507.9402              3066.5798
 Red. masses --      1.2379                 1.1365                 1.0565
 Frc consts  --      1.6040                 1.5226                 5.8535
 IR Inten    --     15.9784                 3.8335                29.7651

                     43                     44                     45
                      A                      A                      A
 Frequencies --   3074.2475              3120.5712              3130.2877
 Red. masses --      1.0585                 1.0909                 1.1034
 Frc consts  --      5.8942                 6.2590                 6.3701
 IR Inten    --      8.7534                41.9210                 8.9988

                     46                     47                     48
                      A                      A                      A
 Frequencies --   3133.3039              3139.1097              3144.3698
 Red. masses --      1.1043                 1.0651                 1.0873
 Frc consts  --      6.3878                 6.1839                 6.3340
 IR Inten    --     25.6201                28.1770                10.1997

                     49                     50                     51
                      A                      A                      A
 Frequencies --   3156.3605              3228.5956              3799.7857
 Red. masses --      1.0913                 1.1140                 1.0658
 Frc consts  --      6.4058                 6.8417                 9.0666
 IR Inten    --     24.7556                 8.4541                17.5551

 - Thermochemistry -
 -------------------
 Temperature   298.150 Kelvin.  Pressure   1.00000 Atm.
 Atom     1 has atomic number  8 and mass  15.99491

 Molecular mass:   126.06808 amu.
 Principal axes and moments of inertia in atomic units:
                           1         2         3
     Eigenvalues --   700.34865 930.112291254.57141
           X            0.99194   0.12649   0.00683
           Y           -0.12645   0.99196  -0.00584
           Z           -0.00751   0.00493   0.99996
 This molecule is an asymmetric top.
 Rotational symmetry number  1.
 Warning -- assumption of classical behavior for rotation
           may cause significant error
 Rotational temperatures (Kelvin)      0.12367     0.09312     0.06904
 Rotational constants (GHZ):           2.57692     1.94035     1.43853
 Zero-point vibrational energy     421906.7 (Joules/Mol)
                                  100.83811 (Kcal/Mol)
 Warning -- explicit consideration of  10 degrees of freedom as
           vibrations may cause significant error
 Vibrational temperatures:    325.67   338.93   397.11   483.25   552.67
          (Kelvin)            635.29   650.16   711.27   732.45   886.94
                              959.79  1091.03  1173.40  1196.48  1208.21
                             1286.15  1336.04  1359.83  1387.00  1394.24
                             1437.00  1464.73  1504.91  1522.02  1560.76
                             1621.44  1652.99  1674.27  1697.17  1743.35
                             1763.71  1778.48  1805.29  1818.36  1929.06
                             1972.25  1977.02  2022.42  2101.86  2133.67
                             2169.59  4412.12  4423.15  4489.80  4503.78
                             4508.12  4516.47  4524.04  4541.29  4645.22
                             5467.04

 Zero-point correction=                           0.160696 (Hartree/Particle)
 Thermal correction to Energy=                    0.167862
 Thermal correction to Enthalpy=                  0.168806
 Thermal correction to Gibbs Free Energy=         0.129778
 Sum of electronic and zero-point Energies=           -422.991965
 Sum of electronic and thermal Energies=              -422.984799
 Sum of electronic and thermal Enthalpies=            -422.983855
 Sum of electronic and thermal Free Energies=         -423.022883

                     E (Thermal)             CV                S
                      KCal/Mol        Cal/Mol-Kelvin    Cal/Mol-Kelvin
 Total                  105.335             30.507             82.141
 Electronic               0.000              0.000              0.000
 Translational            0.889              2.981             40.409
 Rotational               0.889              2.981             28.193
 Vibrational            103.557             24.545             13.539
 Vibration     1          0.650              1.801              1.908
 Vibration     2          0.655              1.786              1.836
 Vibration     3          0.678              1.718              1.558
 Vibration     4          0.717              1.604              1.232
 Vibration     5          0.753              1.504              1.023
 Vibration     6          0.801              1.380              0.822
 Vibration     7          0.811              1.357              0.790
 Vibration     8          0.850              1.263              0.672
 Vibration     9          0.864              1.230              0.636
 Vibration    10          0.976              0.997              0.422

 Optimization completed.
    -- Stationary point found.
 Normal termination of Gaussian 09 at Mon Jan 27 17:57:41 2020.
