 Gaussian 09, Revision D.01,
 Gaussian 09:  ES64L-G09RevD.01 24-Apr-2013

 -----------------------------
 # b3lyp 6-31G(2df,p) opt Freq
 -----------------------------

 -----
 titel
 -----
 Symbolic Z-matrix:
 Charge =  0 Multiplicity = 1

 SCF Done:  E(RB3LYP) =  -423.220938843     A.U. after   14 cycles
 Optimization completed.
    -- Stationary point found.
 Normal termination of Gaussian 09 at Mon Jan 27 23:10:29 2020.

 ----------------------------------------------------------------------
 #N Geom=AllCheck Guess=TCheck SCRF=Check GenChk RB3LYP/6-31G(2df,p) Fr
 eq
 ----------------------------------------------------------------------

 Structure from the checkpoint file:  "/scratch/puck/g09_4bed84f0-829c-4dc3-873c-ba82f450cc72/Gau-79869.chk"
 -----
 titel
 -----
 Charge =  0 Multiplicity = 1

                         Standard orientation:
 ---------------------------------------------------------------------
 Center     Atomic      Atomic             Coordinates (Angstroms)
 Number     Number       Type             X           Y           Z
 ---------------------------------------------------------------------
      1          6           0       -1.270458    1.650441    0.834224
      2          6           0       -0.628085    0.888040   -0.343717
      3          6           0        0.877745    1.076679   -0.379792
      4          6           0        1.756514    0.109452   -1.139154
      5          6           0        1.702522    0.067249    0.366719
      6          6           0        0.937541   -1.034946    1.059060
      7          8           0       -0.229335   -1.463761    0.341309
      8          6           0       -1.051342   -0.578461   -0.280678
      9          8           0       -2.079091   -0.979144   -0.755266
     10          1           0       -0.882001    1.305552    1.797920
     11          1           0       -1.054922    2.720161    0.751710
     12          1           0       -2.354937    1.515198    0.831054
     13          1           0       -1.077264    1.261297   -1.269900
     14          1           0        1.197834    2.114475   -0.355611
     15          1           0        1.283323   -0.694609   -1.693372
     16          1           0        2.656003    0.499729   -1.601164
     17          1           0        2.573044    0.407012    0.919366
     18          1           0        1.543241   -1.939932    1.165385
     19          1           0        0.636470   -0.716372    2.066289
 ---------------------------------------------------------------------

 SCF Done:  E(RB3LYP) =  -423.220938843     A.U. after    1 cycles

 The electronic state is 1-A.
 Alpha  occ. eigenvalues --  -19.17807 -19.11408 -10.30020 -10.25167 -10.20770
 Alpha  occ. eigenvalues --  -10.20673 -10.20496 -10.19589 -10.19033  -1.09245
 Alpha  occ. eigenvalues --   -1.01127  -0.88156  -0.78887  -0.73376  -0.65775
 Alpha  occ. eigenvalues --   -0.61900  -0.60521  -0.52889  -0.52038  -0.50651
 Alpha  occ. eigenvalues --   -0.47170  -0.45255  -0.43572  -0.42158  -0.41577
 Alpha  occ. eigenvalues --   -0.40438  -0.38435  -0.37036  -0.36153  -0.33702
 Alpha  occ. eigenvalues --   -0.30506  -0.28856  -0.28358  -0.25822
 Alpha virt. eigenvalues --    0.01353   0.07065   0.10217   0.10636   0.11284
 Alpha virt. eigenvalues --    0.12758   0.14086   0.14842   0.15717   0.16706
 Alpha virt. eigenvalues --    0.17417   0.17963   0.18966   0.20493   0.21890

 Mulliken charges:
               1
     1  C   -0.405553
     2  C   -0.127947
     3  C   -0.022125
     4  C   -0.322708
     5  C   -0.037375
     6  C   -0.096991
     7  O   -0.229318
     8  C    0.399555
     9  O   -0.333564
    10  H    0.122642
    11  H    0.120994
    12  H    0.141937
    13  H    0.110998
    14  H    0.089447
    15  H    0.135365
    16  H    0.117180
    17  H    0.094807
    18  H    0.127451
    19  H    0.115205
 Sum of Mulliken charges =   0.00000

 Dipole moment (field-independent basis, Debye):
    X=              3.3065    Y=              2.4235    Z=              1.4438  Tot=              4.3464
 Quadrupole moment (field-independent basis, Debye-Ang):
   XX=            -56.5271   YY=            -54.4847   ZZ=            -51.8900
   XY=             -4.5303   XZ=             -1.7855   YZ=             -1.6621

  Exact polarizability:  82.341  -2.163  72.274   2.682  -0.527  69.201
 Approx polarizability: 117.864  -0.693 105.150  10.395  -0.301 105.689

                      1                      2                      3
                      A                      A                      A
 Frequencies --     76.7151               157.8172               221.0835
 Red. masses --      4.5132                 3.4966                 1.7810
 Frc consts  --      0.0156                 0.0513                 0.0513
 IR Inten    --      1.4977                 0.7958                 2.0906

                      4                      5                      6
                      A                      A                      A
 Frequencies --    230.3953               252.9886               313.5095
 Red. masses --      1.9941                 1.7738                 2.2671
 Frc consts  --      0.0624                 0.0669                 0.1313
 IR Inten    --      1.3505                 1.2717                 0.4961

                      7                      8                      9
                      A                      A                      A
 Frequencies --    408.4556               444.5722               523.2596
 Red. masses --      3.7779                 5.0258                 4.5171
 Frc consts  --      0.3714                 0.5852                 0.7287
 IR Inten    --      1.6379                 2.8360                 2.6487

                     10                     11                     12
                      A                      A                      A
 Frequencies --    557.7879               711.2625               743.1251
 Red. masses --      3.9741                 5.0786                 3.0493
 Frc consts  --      0.7285                 1.5137                 0.9922
 IR Inten    --      2.6268                 0.7307                11.4733

                     13                     14                     15
                      A                      A                      A
 Frequencies --    752.0824               780.0465               835.9014
 Red. masses --      2.5739                 2.7291                 1.7728
 Frc consts  --      0.8578                 0.9784                 0.7298
 IR Inten    --      2.3635                 3.0919                10.7503

                     16                     17                     18
                      A                      A                      A
 Frequencies --    857.8555               920.5633               981.2434
 Red. masses --      1.5142                 2.1259                 2.9961
 Frc consts  --      0.6565                 1.0615                 1.6997
 IR Inten    --      3.2324                 1.5722                 7.2172

                     19                     20                     21
                      A                      A                      A
 Frequencies --   1014.9675              1050.7693              1064.0180
 Red. masses --      1.6533                 1.8212                 1.8222
 Frc consts  --      1.0035                 1.1847                 1.2155
 IR Inten    --     19.2612                32.8265                10.7192

                     22                     23                     24
                      A                      A                      A
 Frequencies --   1073.6513              1081.1078              1097.2094
 Red. masses --      1.6194                 1.6517                 2.0373
 Frc consts  --      1.0998                 1.1374                 1.4450
 IR Inten    --      6.1217                39.6431                 0.6996

                     25                     26                     27
                      A                      A                      A
 Frequencies --   1127.7277              1133.7263              1147.6874
 Red. masses --      1.5951                 1.5590                 2.1318
 Frc consts  --      1.1952                 1.1807                 1.6544
 IR Inten    --     21.6537                 4.6715                40.9981

                     28                     29                     30
                      A                      A                      A
 Frequencies --   1211.7759              1235.2388              1283.2808
 Red. masses --      1.5999                 2.0213                 1.1873
 Frc consts  --      1.3841                 1.8171                 1.1520
 IR Inten    --     20.9184                86.3665                39.2620

                     31                     32                     33
                      A                      A                      A
 Frequencies --   1324.8241              1335.8558              1372.4603
 Red. masses --      1.3065                 1.7036                 1.6439
 Frc consts  --      1.3510                 1.7912                 1.8244
 IR Inten    --      2.6007                 7.6517                 0.4879

                     34                     35                     36
                      A                      A                      A
 Frequencies --   1401.3747              1418.9594              1428.3669
 Red. masses --      1.4572                 1.6646                 1.3406
 Frc consts  --      1.6861                 1.9747                 1.6115
 IR Inten    --      9.6325                27.8213                 8.6090

                     37                     38                     39
                      A                      A                      A
 Frequencies --   1495.9662              1498.2319              1500.2784
 Red. masses --      1.0747                 1.1600                 1.2450
 Frc consts  --      1.4170                 1.5342                 1.6511
 IR Inten    --      2.0137                 5.0055                 4.1558

                     40                     41                     42
                      A                      A                      A
 Frequencies --   1515.2284              1841.7945              3011.9766
 Red. masses --      1.0888                12.1836                 1.0675
 Frc consts  --      1.4728                24.3505                 5.7059
 IR Inten    --      6.0970               301.8965                44.7634

                     43                     44                     45
                      A                      A                      A
 Frequencies --   3038.6806              3056.1547              3079.1867
 Red. masses --      1.0353                 1.0835                 1.0968
 Frc consts  --      5.6321                 5.9624                 6.1269
 IR Inten    --     19.9524                10.4744                30.9203

                     46                     47                     48
                      A                      A                      A
 Frequencies --   3107.5958              3125.2291              3135.8507
 Red. masses --      1.1015                 1.1020                 1.0546
 Frc consts  --      6.2676                 6.3418                 6.1098
 IR Inten    --     23.6154                15.6951                 8.8524

                     49                     50                     51
                      A                      A                      A
 Frequencies --   3143.9540              3159.3920              3221.9781
 Red. masses --      1.0880                 1.0908                 1.1161
 Frc consts  --      6.3364                 6.4154                 6.8266
 IR Inten    --     14.8839                14.0543                 7.6114

 - Thermochemistry -
 -------------------
 Temperature   298.150 Kelvin.  Pressure   1.00000 Atm.
 Atom     1 has atomic number  6 and mass  12.00000

 Molecular mass:   126.06808 amu.
 Principal axes and moments of inertia in atomic units:
                           1         2         3
     Eigenvalues --   773.562771072.126411330.18813
           X            0.99494  -0.09660  -0.02761
           Y            0.09688   0.99526   0.00904
           Z            0.02660  -0.01167   0.99958
 This molecule is an asymmetric top.
 Rotational symmetry number  1.
 Warning -- assumption of classical behavior for rotation
           may cause significant error
 Rotational temperatures (Kelvin)      0.11197     0.08079     0.06511
 Rotational constants (GHZ):           2.33302     1.68333     1.35676
 Zero-point vibrational energy     421702.6 (Joules/Mol)
                                  100.78933 (Kcal/Mol)
 Warning -- explicit consideration of  10 degrees of freedom as
           vibrations may cause significant error
 Vibrational temperatures:    110.38   227.06   318.09   331.49   363.99
          (Kelvin)            451.07   587.68   639.64   752.85   802.53
                             1023.35  1069.19  1082.08  1122.31  1202.67
                             1234.26  1324.48  1411.79  1460.31  1511.82
                             1530.88  1544.74  1555.47  1578.64  1622.55
                             1631.18  1651.26  1743.47  1777.23  1846.35
                             1906.12  1922.00  1974.66  2016.26  2041.56
                             2055.10  2152.36  2155.62  2158.56  2180.07
                             2649.93  4333.56  4371.98  4397.12  4430.26
                             4471.13  4496.50  4511.78  4523.44  4545.65
                             4635.70

 Zero-point correction=                           0.160618 (Hartree/Particle)
 Thermal correction to Energy=                    0.168706
 Thermal correction to Enthalpy=                  0.169650
 Thermal correction to Gibbs Free Energy=         0.127993
 Sum of electronic and zero-point Energies=           -423.060321
 Sum of electronic and thermal Energies=              -423.052233
 Sum of electronic and thermal Enthalpies=            -423.051289
 Sum of electronic and thermal Free Energies=         -423.092946

                     E (Thermal)             CV                S
                      KCal/Mol        Cal/Mol-Kelvin    Cal/Mol-Kelvin
 Total                  105.864             31.146             87.674
 Electronic               0.000              0.000              0.000
 Translational            0.889              2.981             40.409
 Rotational               0.889              2.981             28.491
 Vibrational            104.087             25.185             18.774
 Vibration     1          0.599              1.965              3.973
 Vibration     2          0.621              1.894              2.576
 Vibration     3          0.648              1.809              1.950
 Vibration     4          0.652              1.795              1.876
 Vibration     5          0.664              1.758              1.710
 Vibration     6          0.701              1.648              1.344
 Vibration     7          0.773              1.452              0.932
 Vibration     8          0.804              1.373              0.812
 Vibration     9          0.878              1.199              0.602
 Vibration    10          0.913              1.123              0.528

 Optimization completed.
    -- Stationary point found.
 Normal termination of Gaussian 09 at Mon Jan 27 23:56:29 2020.
