 Gaussian 09, Revision D.01,
 Gaussian 09:  ES64L-G09RevD.01 24-Apr-2013

 -----------------------------
 # b3lyp 6-31G(2df,p) opt Freq
 -----------------------------

 -----
 titel
 -----
 Symbolic Z-matrix:
 Charge =  0 Multiplicity = 1

 SCF Done:  E(RB3LYP) =  -423.115950837     A.U. after   13 cycles
 Optimization completed.
    -- Stationary point found.
 Normal termination of Gaussian 09 at Mon Jan 27 18:37:14 2020.

 ----------------------------------------------------------------------
 #N Geom=AllCheck Guess=TCheck SCRF=Check GenChk RB3LYP/6-31G(2df,p) Fr
 eq
 ----------------------------------------------------------------------

 Structure from the checkpoint file:  "/scratch/puck/g09_a3a6a871-2b12-41d9-b0b1-e1a2d6c57317/Gau-75815.chk"
 -----
 titel
 -----
 Charge =  0 Multiplicity = 1

                         Standard orientation:
 ---------------------------------------------------------------------
 Center     Atomic      Atomic             Coordinates (Angstroms)
 Number     Number       Type             X           Y           Z
 ---------------------------------------------------------------------
      1          8           0        0.356301    1.889025   -0.040628
      2          6           0        0.355336    0.561597   -0.493334
      3          6           0        1.836167    0.031109   -0.571491
      4          6           0        1.621877   -0.665474    0.838270
      5          6           0        0.132105   -0.565746    0.518525
      6          6           0       -0.436645   -1.419881   -0.657793
      7          6           0       -0.955263   -0.024797   -1.097021
      8          6           0       -1.878439    0.230202    0.139325
      9          8           0       -1.019599   -0.185795    1.268684
     10          1           0       -0.128556    1.902576    0.795752
     11          1           0        2.070560   -0.660932   -1.379726
     12          1           0        2.551879    0.851773   -0.578368
     13          1           0        2.048052   -1.657226    1.004717
     14          1           0        1.923453    0.003097    1.647888
     15          1           0        0.310123   -1.859821   -1.314510
     16          1           0       -1.183905   -2.163926   -0.375631
     17          1           0       -1.393134    0.199750   -2.071241
     18          1           0       -2.170167    1.275662    0.271020
     19          1           0       -2.772750   -0.398855    0.116759
 ---------------------------------------------------------------------

 SCF Done:  E(RB3LYP) =  -423.115950837     A.U. after    1 cycles

 The electronic state is 1-A.
 Alpha  occ. eigenvalues --  -19.14733 -19.13618 -10.23444 -10.23260 -10.22581
 Alpha  occ. eigenvalues --  -10.20193 -10.19512 -10.19322 -10.18614  -1.05392
 Alpha  occ. eigenvalues --   -1.01065  -0.86272  -0.78342  -0.69563  -0.65218
 Alpha  occ. eigenvalues --   -0.62842  -0.57176  -0.54377  -0.51234  -0.49812
 Alpha  occ. eigenvalues --   -0.47125  -0.46758  -0.41654  -0.40200  -0.38152
 Alpha  occ. eigenvalues --   -0.37048  -0.36417  -0.35596  -0.34323  -0.33481
 Alpha  occ. eigenvalues --   -0.32340  -0.28820  -0.26256  -0.22808
 Alpha virt. eigenvalues --    0.07219   0.08388   0.10925   0.11460   0.11817
 Alpha virt. eigenvalues --    0.13431   0.14601   0.15190   0.15493   0.16566
 Alpha virt. eigenvalues --    0.18259   0.18716   0.20301   0.20893   0.22046

 Mulliken charges:
               1
     1  O   -0.495412
     2  C    0.432286
     3  C   -0.310021
     4  C   -0.333685
     5  C    0.386954
     6  C   -0.288664
     7  C   -0.176556
     8  C   -0.109224
     9  O   -0.358623
    10  H    0.288101
    11  H    0.112383
    12  H    0.121550
    13  H    0.104992
    14  H    0.121019
    15  H    0.109326
    16  H    0.103077
    17  H    0.071321
    18  H    0.108254
    19  H    0.112921
 Sum of Mulliken charges =   0.00000

 Dipole moment (field-independent basis, Debye):
    X=             -0.1582    Y=             -1.0364    Z=             -0.6283  Tot=              1.2223
 Quadrupole moment (field-independent basis, Debye-Ang):
   XX=            -50.0877   YY=            -54.9373   ZZ=            -54.5854
   XY=             -2.2994   XZ=              1.9126   YZ=              2.9237

  Exact polarizability:  84.645  -1.698  71.402   1.980   2.102  65.638
 Approx polarizability: 116.476  -1.384 109.207   0.107   1.679 104.443

                      1                      2                      3
                      A                      A                      A
 Frequencies --    221.3045               244.1074               299.1297
 Red. masses --      4.1418                 2.6675                 2.5616
 Frc consts  --      0.1195                 0.0937                 0.1350
 IR Inten    --      6.1236                 9.7731                11.0558

                      4                      5                      6
                      A                      A                      A
 Frequencies --    350.9051               387.8809               450.4322
 Red. masses --      2.9060                 1.8034                 1.6056
 Frc consts  --      0.2108                 0.1599                 0.1919
 IR Inten    --     12.4129                21.3657                14.2281

                      7                      8                      9
                      A                      A                      A
 Frequencies --    498.8276               534.5223               565.1032
 Red. masses --      1.8472                 2.9673                 4.2630
 Frc consts  --      0.2708                 0.4995                 0.8021
 IR Inten    --      4.3960                 7.3771                 6.7891

                     10                     11                     12
                      A                      A                      A
 Frequencies --    657.8970               697.3131               740.1026
 Red. masses --      3.4970                 2.4115                 3.2070
 Frc consts  --      0.8918                 0.6909                 1.0350
 IR Inten    --      2.4360                 1.1339                 2.5021

                     13                     14                     15
                      A                      A                      A
 Frequencies --    797.8779               834.7597               857.6604
 Red. masses --      1.9089                 3.1697                 2.8946
 Frc consts  --      0.7160                 1.3013                 1.2545
 IR Inten    --      6.6012                21.3419                 4.0800

                     16                     17                     18
                      A                      A                      A
 Frequencies --    875.6684               890.0611               910.4484
 Red. masses --      2.8639                 2.7601                 3.4789
 Frc consts  --      1.2939                 1.2883                 1.6990
 IR Inten    --     15.7317                11.8961                38.3692

                     19                     20                     21
                      A                      A                      A
 Frequencies --    938.9402               956.3018               986.5591
 Red. masses --      2.0570                 2.3130                 1.6606
 Frc consts  --      1.0685                 1.2463                 0.9523
 IR Inten    --      4.3878                 5.8645                11.8667

                     22                     23                     24
                      A                      A                      A
 Frequencies --   1013.2862              1065.9609              1102.6917
 Red. masses --      1.5644                 1.4982                 2.3054
 Frc consts  --      0.9464                 1.0030                 1.6516
 IR Inten    --      7.4665                 6.6749                20.8318

                     25                     26                     27
                      A                      A                      A
 Frequencies --   1115.3344              1153.5359              1169.5705
 Red. masses --      1.6863                 1.6241                 1.5696
 Frc consts  --      1.2360                 1.2733                 1.2650
 IR Inten    --      3.3257                 6.0237                13.3547

                     28                     29                     30
                      A                      A                      A
 Frequencies --   1187.5370              1202.6638              1222.2792
 Red. masses --      1.4482                 1.5836                 1.4173
 Frc consts  --      1.2033                 1.3495                 1.2476
 IR Inten    --     16.2835                 6.6534                16.0005

                     31                     32                     33
                      A                      A                      A
 Frequencies --   1230.6207              1238.2694              1251.4808
 Red. masses --      1.4821                 1.7310                 1.6468
 Frc consts  --      1.3224                 1.5638                 1.5196
 IR Inten    --      4.2328                18.2274                15.1725

                     34                     35                     36
                      A                      A                      A
 Frequencies --   1284.3761              1311.3845              1343.9449
 Red. masses --      2.2976                 3.0153                 1.6351
 Frc consts  --      2.2331                 3.0552                 1.7400
 IR Inten    --     26.2966                10.2787                80.4792

                     37                     38                     39
                      A                      A                      A
 Frequencies --   1352.9003              1467.6011              1481.7208
 Red. masses --      1.4845                 1.0936                 1.1339
 Frc consts  --      1.6009                 1.3878                 1.4668
 IR Inten    --      3.2632                 1.5276                 2.5312

                     40                     41                     42
                      A                      A                      A
 Frequencies --   1505.9395              1523.5475              3052.7617
 Red. masses --      1.1070                 1.1052                 1.0562
 Frc consts  --      1.4792                 1.5114                 5.7996
 IR Inten    --      8.1639                 1.7536                46.9107

                     43                     44                     45
                      A                      A                      A
 Frequencies --   3067.9665              3085.2834              3099.1405
 Red. masses --      1.0574                 1.0628                 1.0625
 Frc consts  --      5.8639                 5.9604                 6.0127
 IR Inten    --     37.8310                21.5185                25.4154

                     46                     47                     48
                      A                      A                      A
 Frequencies --   3102.1767              3103.5365              3124.2643
 Red. masses --      1.0920                 1.1043                 1.1086
 Frc consts  --      6.1918                 6.2671                 6.3758
 IR Inten    --     36.0233                36.6437                13.7065

                     49                     50                     51
                      A                      A                      A
 Frequencies --   3158.1944              3167.1437              3748.1176
 Red. masses --      1.1083                 1.1062                 1.0653
 Frc consts  --      6.5133                 6.5374                 8.8174
 IR Inten    --     15.2531                20.4885                22.1789

 - Thermochemistry -
 -------------------
 Temperature   298.150 Kelvin.  Pressure   1.00000 Atm.
 Atom     1 has atomic number  8 and mass  15.99491

 Molecular mass:   126.06808 amu.
 Principal axes and moments of inertia in atomic units:
                           1         2         3
     Eigenvalues --   678.01259 927.234931057.65777
           X            0.99878  -0.04336   0.02344
           Y            0.04103   0.99491   0.09204
           Z           -0.02731  -0.09097   0.99548
 This molecule is an asymmetric top.
 Rotational symmetry number  1.
 Warning -- assumption of classical behavior for rotation
           may cause significant error
 Rotational temperatures (Kelvin)      0.12775     0.09341     0.08189
 Rotational constants (GHZ):           2.66181     1.94637     1.70636
 Zero-point vibrational energy     422455.4 (Joules/Mol)
                                  100.96927 (Kcal/Mol)
 Warning -- explicit consideration of   9 degrees of freedom as
           vibrations may cause significant error
 Vibrational temperatures:    318.41   351.22   430.38   504.87   558.07
          (Kelvin)            648.07   717.70   769.06   813.06   946.57
                             1003.28  1064.84  1147.97  1201.03  1233.98
                             1259.89  1280.60  1309.93  1350.92  1375.90
                             1419.44  1457.89  1533.68  1586.53  1604.72
                             1659.68  1682.75  1708.60  1730.36  1758.58
                             1770.59  1781.59  1800.60  1847.93  1886.79
                             1933.63  1946.52  2111.55  2131.86  2166.71
                             2192.04  4392.24  4414.11  4439.03  4458.97
                             4463.33  4465.29  4495.11  4543.93  4556.81
                             5392.70

 Zero-point correction=                           0.160905 (Hartree/Particle)
 Thermal correction to Energy=                    0.167885
 Thermal correction to Enthalpy=                  0.168829
 Thermal correction to Gibbs Free Energy=         0.130221
 Sum of electronic and zero-point Energies=           -422.955046
 Sum of electronic and thermal Energies=              -422.948066
 Sum of electronic and thermal Enthalpies=            -422.947121
 Sum of electronic and thermal Free Energies=         -422.985730

                     E (Thermal)             CV                S
                      KCal/Mol        Cal/Mol-Kelvin    Cal/Mol-Kelvin
 Total                  105.350             29.980             81.259
 Electronic               0.000              0.000              0.000
 Translational            0.889              2.981             40.409
 Rotational               0.889              2.981             27.988
 Vibrational            103.572             24.018             12.862
 Vibration     1          0.648              1.809              1.948
 Vibration     2          0.659              1.773              1.773
 Vibration     3          0.692              1.675              1.422
 Vibration     4          0.728              1.573              1.162
 Vibration     5          0.756              1.496              1.008
 Vibration     6          0.809              1.360              0.794
 Vibration     7          0.854              1.253              0.661
 Vibration     8          0.890              1.174              0.577
 Vibration     9          0.921              1.107              0.514

 Optimization completed.
    -- Stationary point found.
 Normal termination of Gaussian 09 at Mon Jan 27 19:37:32 2020.
