 Gaussian 09, Revision D.01,
 Gaussian 09:  ES64L-G09RevD.01 24-Apr-2013

 -----------------------------
 # b3lyp 6-31G(2df,p) opt Freq
 -----------------------------

 -----
 titel
 -----
 Symbolic Z-matrix:
 Charge =  0 Multiplicity = 1

 SCF Done:  E(RB3LYP) =  -423.141821043     A.U. after   13 cycles
 Optimization completed.
    -- Stationary point found.
 Normal termination of Gaussian 09 at Mon Jan 27 23:50:55 2020.

 ----------------------------------------------------------------------
 #N Geom=AllCheck Guess=TCheck SCRF=Check GenChk RB3LYP/6-31G(2df,p) Fr
 eq
 ----------------------------------------------------------------------

 Structure from the checkpoint file:  "/scratch/puck/g09_c436624e-11c7-4a46-b8e4-63564fcae065/Gau-186286.chk"
 -----
 titel
 -----
 Charge =  0 Multiplicity = 1

                         Standard orientation:
 ---------------------------------------------------------------------
 Center     Atomic      Atomic             Coordinates (Angstroms)
 Number     Number       Type             X           Y           Z
 ---------------------------------------------------------------------
      1          6           0       -2.449148   -0.319681    0.268395
      2          6           0       -1.124177   -0.466651   -0.471007
      3          6           0       -0.010880   -1.293876    0.230421
      4          8           0        1.036363   -1.269415   -0.753841
      5          6           0        1.298184    0.141504   -0.691650
      6          6           0        1.836179    0.315399    0.744902
      7          6           0        0.390964   -0.042373    1.120675
      8          6           0       -0.116485    0.667561   -0.205546
      9          8           0       -0.340577    2.020823   -0.386422
     10          1           0       -3.057511    0.475811   -0.178199
     11          1           0       -3.033927   -1.243415    0.213308
     12          1           0       -2.311775   -0.078854    1.327986
     13          1           0       -1.285695   -0.749420   -1.516430
     14          1           0       -0.168943   -2.295438    0.626233
     15          1           0        1.798325    0.499935   -1.589554
     16          1           0        2.659712   -0.336526    1.044738
     17          1           0        2.048286    1.359822    0.985328
     18          1           0       -0.041883    0.072235    2.111962
     19          1           0       -1.120698    2.273290    0.119588
 ---------------------------------------------------------------------

 SCF Done:  E(RB3LYP) =  -423.141821043     A.U. after    1 cycles

 The electronic state is 1-A.
 Alpha  occ. eigenvalues --  -19.15367 -19.13416 -10.23932 -10.23332 -10.23027
 Alpha  occ. eigenvalues --  -10.18839 -10.18529 -10.18472 -10.17855  -1.05651
 Alpha  occ. eigenvalues --   -1.03181  -0.84152  -0.78021  -0.70274  -0.66904
 Alpha  occ. eigenvalues --   -0.59513  -0.56927  -0.55498  -0.52603  -0.48047
 Alpha  occ. eigenvalues --   -0.46497  -0.44408  -0.43538  -0.39982  -0.38675
 Alpha  occ. eigenvalues --   -0.38348  -0.36421  -0.35833  -0.34256  -0.33201
 Alpha  occ. eigenvalues --   -0.32268  -0.28402  -0.25094  -0.23482
 Alpha virt. eigenvalues --    0.06104   0.09937   0.10587   0.12163   0.12635
 Alpha virt. eigenvalues --    0.14324   0.15351   0.15814   0.16527   0.17013
 Alpha virt. eigenvalues --    0.17910   0.17929   0.19884   0.21492   0.22468

 Mulliken charges:
               1
     1  C   -0.441468
     2  C   -0.053719
     3  C    0.064005
     4  O   -0.268739
     5  C    0.041032
     6  C   -0.253073
     7  C   -0.155630
     8  C    0.389741
     9  O   -0.484936
    10  H    0.117102
    11  H    0.124406
    12  H    0.114833
    13  H    0.075156
    14  H    0.079785
    15  H    0.082909
    16  H    0.098720
    17  H    0.110169
    18  H    0.073523
    19  H    0.286186
 Sum of Mulliken charges =   0.00000

 Dipole moment (field-independent basis, Debye):
    X=             -1.6824    Y=              0.5970    Z=              1.5645  Tot=              2.3737
 Quadrupole moment (field-independent basis, Debye-Ang):
   XX=            -50.9373   YY=            -54.8145   ZZ=            -53.3688
   XY=              0.2951   XZ=             -0.2496   YZ=              0.0775

  Exact polarizability:  84.251   2.188  71.332   0.446  -0.360  66.830
 Approx polarizability: 112.287   0.750 110.654  -1.767  -0.484 105.685

                      1                      2                      3
                      A                      A                      A
 Frequencies --    200.4720               207.5388               217.7621
 Red. masses --      2.7422                 1.9366                 1.2474
 Frc consts  --      0.0649                 0.0491                 0.0349
 IR Inten    --      0.7136                 1.2168                 1.7890

                      4                      5                      6
                      A                      A                      A
 Frequencies --    278.6128               330.7807               344.9932
 Red. masses --      1.6429                 1.7929                 3.3626
 Frc consts  --      0.0751                 0.1156                 0.2358
 IR Inten    --     23.1342                65.4003                13.8849

                      7                      8                      9
                      A                      A                      A
 Frequencies --    466.7889               504.4337               525.5120
 Red. masses --      2.4355                 2.9945                 4.7670
 Frc consts  --      0.3127                 0.4489                 0.7756
 IR Inten    --      3.7143                 1.9385                 5.9427

                     10                     11                     12
                      A                      A                      A
 Frequencies --    618.4495               653.9966               730.9288
 Red. masses --      5.1157                 4.0536                 3.0522
 Frc consts  --      1.1528                 1.0215                 0.9608
 IR Inten    --      1.4355                 1.2889                 2.3480

                     13                     14                     15
                      A                      A                      A
 Frequencies --    799.0353               847.1689               896.9687
 Red. masses --      2.2432                 2.6926                 2.5832
 Frc consts  --      0.8438                 1.1386                 1.2245
 IR Inten    --      3.3822                 1.2700                 9.8978

                     16                     17                     18
                      A                      A                      A
 Frequencies --    909.0074               926.4467               935.4230
 Red. masses --      2.2776                 2.4032                 1.9753
 Frc consts  --      1.1088                 1.2153                 1.0183
 IR Inten    --      9.2028                20.8746                 9.5341

                     19                     20                     21
                      A                      A                      A
 Frequencies --    962.9341               986.4077              1001.8615
 Red. masses --      2.2781                 2.6557                 2.6818
 Frc consts  --      1.2446                 1.5224                 1.5860
 IR Inten    --     27.0145                21.5412                11.4472

                     22                     23                     24
                      A                      A                      A
 Frequencies --   1047.3181              1064.3943              1071.4218
 Red. masses --      1.4372                 2.0779                 1.5349
 Frc consts  --      0.9288                 1.3870                 1.0381
 IR Inten    --      3.8492                10.0271                20.6336

                     25                     26                     27
                      A                      A                      A
 Frequencies --   1116.0523              1125.8299              1134.9010
 Red. masses --      2.3302                 1.6766                 1.7867
 Frc consts  --      1.7100                 1.2520                 1.3559
 IR Inten    --      1.2992                 7.6955                 0.5427

                     28                     29                     30
                      A                      A                      A
 Frequencies --   1172.3208              1217.2064              1219.9234
 Red. masses --      1.7974                 2.0592                 1.5440
 Frc consts  --      1.4554                 1.7976                 1.3538
 IR Inten    --      9.3162                28.2087                28.2913

                     31                     32                     33
                      A                      A                      A
 Frequencies --   1235.8681              1247.6488              1275.3517
 Red. masses --      1.4308                 1.4263                 1.7481
 Frc consts  --      1.2876                 1.3081                 1.6752
 IR Inten    --     15.2528                 9.5423                 0.2574

                     34                     35                     36
                      A                      A                      A
 Frequencies --   1287.3107              1323.2234              1375.7165
 Red. masses --      1.8283                 1.4889                 1.9751
 Frc consts  --      1.7851                 1.5360                 2.2025
 IR Inten    --    132.6162                 6.7548                 2.9830

                     37                     38                     39
                      A                      A                      A
 Frequencies --   1385.7549              1411.6472              1475.2751
 Red. masses --      2.0119                 1.2727                 1.1317
 Frc consts  --      2.2762                 1.4943                 1.4512
 IR Inten    --     26.8070                 3.2887                 2.2071

                     40                     41                     42
                      A                      A                      A
 Frequencies --   1498.7694              1506.1652              3026.1743
 Red. masses --      1.0513                 1.0513                 1.0365
 Frc consts  --      1.3914                 1.4051                 5.5925
 IR Inten    --      3.4217                 3.8383                28.6927

                     43                     44                     45
                      A                      A                      A
 Frequencies --   3055.0512              3065.5992              3087.0995
 Red. masses --      1.0853                 1.0557                 1.0992
 Frc consts  --      5.9681                 5.8457                 6.1720
 IR Inten    --     20.5547                33.0429                23.8060

                     46                     47                     48
                      A                      A                      A
 Frequencies --   3100.6905              3129.9769              3134.9302
 Red. masses --      1.1004                 1.1097                 1.0906
 Frc consts  --      6.2333                 6.4050                 6.3147
 IR Inten    --     28.7301                20.2764                25.7946

                     49                     50                     51
                      A                      A                      A
 Frequencies --   3140.8193              3144.7941              3799.4674
 Red. masses --      1.0899                 1.0939                 1.0658
 Frc consts  --      6.3345                 6.3739                 9.0648
 IR Inten    --     62.5030                 8.5649                20.0698

 - Thermochemistry -
 -------------------
 Temperature   298.150 Kelvin.  Pressure   1.00000 Atm.
 Atom     1 has atomic number  6 and mass  12.00000

 Molecular mass:   126.06808 amu.
 Principal axes and moments of inertia in atomic units:
                           1         2         3
     Eigenvalues --   692.63941 956.444821240.24224
           X            0.99849   0.05489   0.00172
           Y           -0.05489   0.99849  -0.00162
           Z           -0.00181   0.00152   1.00000
 This molecule is an asymmetric top.
 Rotational symmetry number  1.
 Warning -- assumption of classical behavior for rotation
           may cause significant error
 Rotational temperatures (Kelvin)      0.12505     0.09056     0.06984
 Rotational constants (GHZ):           2.60560     1.88693     1.45515
 Zero-point vibrational energy     420022.2 (Joules/Mol)
                                  100.38771 (Kcal/Mol)
 Warning -- explicit consideration of  10 degrees of freedom as
           vibrations may cause significant error
 Vibrational temperatures:    288.43   298.60   313.31   400.86   475.92
          (Kelvin)            496.37   671.60   725.77   756.09   889.81
                              940.95  1051.64  1149.63  1218.89  1290.54
                             1307.86  1332.95  1345.86  1385.45  1419.22
                             1441.45  1506.86  1531.42  1541.54  1605.75
                             1619.82  1632.87  1686.71  1751.29  1755.20
                             1778.14  1795.09  1834.94  1852.15  1903.82
                             1979.35  1993.79  2031.04  2122.59  2156.39
                             2167.03  4353.98  4395.53  4410.71  4441.64
                             4461.20  4503.33  4510.46  4518.93  4524.65
                             5466.58

 Zero-point correction=                           0.159978 (Hartree/Particle)
 Thermal correction to Energy=                    0.167482
 Thermal correction to Enthalpy=                  0.168426
 Thermal correction to Gibbs Free Energy=         0.128622
 Sum of electronic and zero-point Energies=           -422.981843
 Sum of electronic and thermal Energies=              -422.974339
 Sum of electronic and thermal Enthalpies=            -422.973395
 Sum of electronic and thermal Free Energies=         -423.013199

                     E (Thermal)             CV                S
                      KCal/Mol        Cal/Mol-Kelvin    Cal/Mol-Kelvin
 Total                  105.096             30.825             83.773
 Electronic               0.000              0.000              0.000
 Translational            0.889              2.981             40.409
 Rotational               0.889              2.981             28.198
 Vibrational            103.319             24.864             15.166
 Vibration     1          0.638              1.839              2.129
 Vibration     2          0.641              1.829              2.065
 Vibration     3          0.646              1.814              1.978
 Vibration     4          0.679              1.713              1.542
 Vibration     5          0.713              1.614              1.256
 Vibration     6          0.723              1.585              1.189
 Vibration     7          0.824              1.324              0.747
 Vibration     8          0.860              1.240              0.647
 Vibration     9          0.880              1.194              0.597
 Vibration    10          0.978              0.993              0.419

 Optimization completed.
    -- Stationary point found.
 Normal termination of Gaussian 09 at Tue Jan 28 00:39:03 2020.
