 Gaussian 09, Revision D.01,
 Gaussian 09:  ES64L-G09RevD.01 24-Apr-2013

 -----------------------------
 # b3lyp 6-31G(2df,p) opt Freq
 -----------------------------

 -----
 titel
 -----
 Symbolic Z-matrix:
 Charge =  0 Multiplicity = 1

 SCF Done:  E(RB3LYP) =  -423.172513723     A.U. after   14 cycles
 Optimization completed.
    -- Stationary point found.
 Normal termination of Gaussian 09 at Tue Jan 28 01:56:04 2020.

 ----------------------------------------------------------------------
 #N Geom=AllCheck Guess=TCheck SCRF=Check GenChk RB3LYP/6-31G(2df,p) Fr
 eq
 ----------------------------------------------------------------------

 Structure from the checkpoint file:  "/scratch/puck/g09_93e256f1-0c61-475e-993f-d35183a8a53b/Gau-64310.chk"
 -----
 titel
 -----
 Charge =  0 Multiplicity = 1

                         Standard orientation:
 ---------------------------------------------------------------------
 Center     Atomic      Atomic             Coordinates (Angstroms)
 Number     Number       Type             X           Y           Z
 ---------------------------------------------------------------------
      1          6           0        1.181761    1.893387   -0.473520
      2          6           0        0.927070    0.706067    0.448204
      3          6           0        1.565636   -0.643334    0.048852
      4          8           0        2.667637   -0.954185   -0.298949
      5          6           0        0.233684   -1.401241    0.193929
      6          6           0       -0.431077   -0.033729    0.423536
      7          6           0       -1.673467    0.243395    1.226800
      8          6           0       -1.673860    0.406529   -0.277491
      9          8           0       -2.295728   -0.551605   -1.082072
     10          1           0        2.247934    2.137868   -0.482283
     11          1           0        0.879160    1.668081   -1.500714
     12          1           0        0.632948    2.781909   -0.144321
     13          1           0        1.223630    0.954368    1.476709
     14          1           0       -0.091327   -1.951867   -0.692876
     15          1           0        0.219139   -2.080002    1.053661
     16          1           0       -2.203178   -0.614633    1.629668
     17          1           0       -1.713053    1.137258    1.842480
     18          1           0       -1.700339    1.423738   -0.669998
     19          1           0       -3.248672   -0.436823   -1.006013
 ---------------------------------------------------------------------

 SCF Done:  E(RB3LYP) =  -423.172513723     A.U. after    1 cycles

 The electronic state is 1-A.
 Alpha  occ. eigenvalues --  -19.15024 -19.13313 -10.26464 -10.24088 -10.20281
 Alpha  occ. eigenvalues --  -10.19626 -10.18995 -10.18778 -10.18394  -1.04160
 Alpha  occ. eigenvalues --   -1.03495  -0.87619  -0.79873  -0.73528  -0.63652
 Alpha  occ. eigenvalues --   -0.61465  -0.55629  -0.52493  -0.51521  -0.48681
 Alpha  occ. eigenvalues --   -0.45979  -0.45136  -0.42835  -0.41781  -0.40748
 Alpha  occ. eigenvalues --   -0.38475  -0.38165  -0.37237  -0.35593  -0.32380
 Alpha  occ. eigenvalues --   -0.32112  -0.27858  -0.26438  -0.23576
 Alpha virt. eigenvalues --   -0.01680   0.07320   0.09389   0.10866   0.11157
 Alpha virt. eigenvalues --    0.12165   0.14048   0.14308   0.15141   0.17004
 Alpha virt. eigenvalues --    0.18251   0.18427   0.20888   0.22498   0.23643

 Mulliken charges:
               1
     1  C   -0.409823
     2  C   -0.183780
     3  C    0.401006
     4  O   -0.297558
     5  C   -0.424533
     6  C    0.321168
     7  C   -0.397214
     8  C    0.045215
     9  O   -0.418938
    10  H    0.136534
    11  H    0.126664
    12  H    0.116605
    13  H    0.101076
    14  H    0.148742
    15  H    0.127544
    16  H    0.115900
    17  H    0.112332
    18  H    0.088275
    19  H    0.290785
 Sum of Mulliken charges =   0.00000

 Dipole moment (field-independent basis, Debye):
    X=             -3.3280    Y=              1.5995    Z=              1.3298  Tot=              3.9246
 Quadrupole moment (field-independent basis, Debye-Ang):
   XX=            -55.6093   YY=            -52.2066   ZZ=            -53.1885
   XY=              2.9750   XZ=              1.5682   YZ=             -1.5047

  Exact polarizability:  87.760   0.490  76.072  -2.586   0.640  65.582
 Approx polarizability: 123.119  -2.553 106.862  -4.173   3.541 100.867

                      1                      2                      3
                      A                      A                      A
 Frequencies --     45.8411               137.7664               181.5530
 Red. masses --      4.2530                 3.5450                 2.1043
 Frc consts  --      0.0053                 0.0396                 0.0409
 IR Inten    --      1.5099                 0.2187                 1.5837

                      4                      5                      6
                      A                      A                      A
 Frequencies --    189.9261               204.7334               245.3122
 Red. masses --      3.7552                 1.2465                 2.7311
 Frc consts  --      0.0798                 0.0308                 0.0968
 IR Inten    --      6.1823                 0.2295                 8.5516

                      7                      8                      9
                      A                      A                      A
 Frequencies --    284.1411               395.4906               428.1706
 Red. masses --      1.1487                 3.5719                 2.6292
 Frc consts  --      0.0546                 0.3292                 0.2840
 IR Inten    --     93.0982                 8.9742                 4.8682

                     10                     11                     12
                      A                      A                      A
 Frequencies --    466.7894               483.8921               553.6804
 Red. masses --      3.0061                 2.5182                 2.3919
 Frc consts  --      0.3859                 0.3474                 0.4320
 IR Inten    --      1.5114                 2.4178                 0.0806

                     13                     14                     15
                      A                      A                      A
 Frequencies --    558.1593               727.6335               744.9007
 Red. masses --      4.1755                 2.9045                 2.7288
 Frc consts  --      0.7664                 0.9060                 0.8921
 IR Inten    --      6.1217                 1.3346                 1.0563

                     16                     17                     18
                      A                      A                      A
 Frequencies --    811.2016               852.9598               894.7480
 Red. masses --      1.9471                 2.1071                 1.8051
 Frc consts  --      0.7549                 0.9032                 0.8514
 IR Inten    --      0.3636                10.6891                 4.6036

                     19                     20                     21
                      A                      A                      A
 Frequencies --    916.6021               981.4498              1020.8177
 Red. masses --      1.5559                 1.8329                 1.5922
 Frc consts  --      0.7702                 1.0402                 0.9776
 IR Inten    --      5.2589                 6.7563                 3.2849

                     22                     23                     24
                      A                      A                      A
 Frequencies --   1034.2848              1045.2734              1077.2616
 Red. masses --      2.6082                 1.5260                 2.0079
 Frc consts  --      1.6439                 0.9823                 1.3729
 IR Inten    --     46.6667                15.7590                11.2125

                     25                     26                     27
                      A                      A                      A
 Frequencies --   1104.8182              1135.4522              1143.2026
 Red. masses --      1.6581                 2.1281                 1.9899
 Frc consts  --      1.1925                 1.6165                 1.5323
 IR Inten    --     28.2336                 2.0555                 7.3588

                     28                     29                     30
                      A                      A                      A
 Frequencies --   1171.3368              1189.2442              1222.3784
 Red. masses --      2.4537                 1.7158                 1.7492
 Frc consts  --      1.9835                 1.4298                 1.5399
 IR Inten    --     39.6255                17.9652                14.4264

                     31                     32                     33
                      A                      A                      A
 Frequencies --   1241.8702              1290.4138              1327.0857
 Red. masses --      1.6926                 1.2693                 1.7285
 Frc consts  --      1.5380                 1.2453                 1.7936
 IR Inten    --      3.0383                66.0780                 3.4730

                     34                     35                     36
                      A                      A                      A
 Frequencies --   1341.0835              1404.0904              1425.6335
 Red. masses --      1.8545                 1.2143                 1.3034
 Frc consts  --      1.9651                 1.4105                 1.5608
 IR Inten    --      1.0742                 2.1982                 3.7226

                     37                     38                     39
                      A                      A                      A
 Frequencies --   1438.4251              1488.3504              1494.8968
 Red. masses --      1.1256                 1.5280                 1.0960
 Frc consts  --      1.3721                 1.9943                 1.4431
 IR Inten    --      9.8169                 6.3006                11.4604

                     40                     41                     42
                      A                      A                      A
 Frequencies --   1497.9541              1892.7561              3016.3160
 Red. masses --      1.1980                12.7961                 1.0818
 Frc consts  --      1.5839                27.0096                 5.7988
 IR Inten    --      4.5559               271.2122                14.3586

                     43                     44                     45
                      A                      A                      A
 Frequencies --   3035.8732              3050.1464              3094.1367
 Red. masses --      1.0351                 1.0614                 1.0862
 Frc consts  --      5.6207                 5.8182                 6.1271
 IR Inten    --     19.0180                13.2612                31.0239

                     46                     47                     48
                      A                      A                      A
 Frequencies --   3103.7452              3109.1447              3115.3633
 Red. masses --      1.1014                 1.1018                 1.1015
 Frc consts  --      6.2511                 6.2753                 6.2986
 IR Inten    --     17.8891                 4.3830                17.0765

                     49                     50                     51
                      A                      A                      A
 Frequencies --   3116.8876              3206.1884              3807.6995
 Red. masses --      1.0546                 1.1167                 1.0663
 Frc consts  --      6.0362                 6.7636                 9.1087
 IR Inten    --     11.7774                 7.4988                25.7370

 - Thermochemistry -
 -------------------
 Temperature   298.150 Kelvin.  Pressure   1.00000 Atm.
 Atom     1 has atomic number  6 and mass  12.00000

 Molecular mass:   126.06808 amu.
 Principal axes and moments of inertia in atomic units:
                           1         2         3
     Eigenvalues --   672.161821480.978201720.22662
           X            0.99947   0.03091  -0.01036
           Y           -0.03131   0.99866  -0.04132
           Z            0.00907   0.04162   0.99909
 This molecule is an asymmetric top.
 Rotational symmetry number  1.
 Warning -- assumption of classical behavior for rotation
           may cause significant error
 Rotational temperatures (Kelvin)      0.12886     0.05848     0.05035
 Rotational constants (GHZ):           2.68498     1.21861     1.04913
 Zero-point vibrational energy     411198.9 (Joules/Mol)
                                   98.27889 (Kcal/Mol)
 Warning -- explicit consideration of  13 degrees of freedom as
           vibrations may cause significant error
 Vibrational temperatures:     65.96   198.21   261.21   273.26   294.57
          (Kelvin)            352.95   408.82   569.02   616.04   671.60
                              696.21   796.62   803.07  1046.90  1071.74
                             1167.14  1227.22  1287.34  1318.78  1412.09
                             1468.73  1488.10  1503.91  1549.94  1589.59
                             1633.66  1644.81  1685.29  1711.05  1758.73
                             1786.77  1856.62  1909.38  1929.52  2020.17
                             2051.17  2069.57  2141.40  2150.82  2155.22
                             2723.25  4339.80  4367.94  4388.47  4451.77
                             4465.59  4473.36  4482.31  4484.50  4612.98
                             5478.42

 Zero-point correction=                           0.156617 (Hartree/Particle)
 Thermal correction to Energy=                    0.165875
 Thermal correction to Enthalpy=                  0.166819
 Thermal correction to Gibbs Free Energy=         0.122395
 Sum of electronic and zero-point Energies=           -423.015896
 Sum of electronic and thermal Energies=              -423.006639
 Sum of electronic and thermal Enthalpies=            -423.005695
 Sum of electronic and thermal Free Energies=         -423.050119

                     E (Thermal)             CV                S
                      KCal/Mol        Cal/Mol-Kelvin    Cal/Mol-Kelvin
 Total                  104.088             34.604             93.498
 Electronic               0.000              0.000              0.000
 Translational            0.889              2.981             40.409
 Rotational               0.889              2.981             28.928
 Vibrational            102.310             28.642             24.162
 Vibration     1          0.595              1.979              4.989
 Vibration     2          0.614              1.916              2.835
 Vibration     3          0.630              1.865              2.312
 Vibration     4          0.633              1.854              2.229
 Vibration     5          0.640              1.833              2.090
 Vibration     6          0.660              1.771              1.764
 Vibration     7          0.683              1.703              1.509
 Vibration     8          0.762              1.480              0.979
 Vibration     9          0.790              1.409              0.865
 Vibration    10          0.824              1.324              0.747
 Vibration    11          0.840              1.286              0.700
 Vibration    12          0.909              1.132              0.537
 Vibration    13          0.914              1.122              0.528

 Normal termination of Gaussian 09 at Tue Jan 28 02:41:24 2020.
