 Gaussian 09, Revision D.01,
 Gaussian 09:  ES64L-G09RevD.01 24-Apr-2013

 -----------------------------
 # b3lyp 6-31G(2df,p) opt Freq
 -----------------------------

 -----
 titel
 -----
 Symbolic Z-matrix:
 Charge =  0 Multiplicity = 1

 SCF Done:  E(RB3LYP) =  -423.122091125     A.U. after   14 cycles
 SCF Done:  E(RB3LYP) =  -423.122090053     A.U. after    8 cycles
 SCF Done:  E(RB3LYP) =  -423.122091537     A.U. after    8 cycles
 SCF Done:  E(RB3LYP) =  -423.122091719     A.U. after    7 cycles
 SCF Done:  E(RB3LYP) =  -423.122091759     A.U. after    7 cycles
 Optimization completed.
    -- Stationary point found.
 Normal termination of Gaussian 09 at Tue Jan 28 14:39:38 2020.

 ----------------------------------------------------------------------
 #N Geom=AllCheck Guess=TCheck SCRF=Check GenChk RB3LYP/6-31G(2df,p) Fr
 eq
 ----------------------------------------------------------------------

 Structure from the checkpoint file:  "/scratch/puck/g09_55d0fdf3-c3e8-4fd5-8968-f0a299796661/Gau-122015.chk"
 -----
 titel
 -----
 Charge =  0 Multiplicity = 1

                         Standard orientation:
 ---------------------------------------------------------------------
 Center     Atomic      Atomic             Coordinates (Angstroms)
 Number     Number       Type             X           Y           Z
 ---------------------------------------------------------------------
      1          8           0        4.375158   -0.772262   -0.063248
      2          6           0        3.483058    0.316860    0.104419
      3          6           0        2.065557   -0.214400   -0.063979
      4          6           0        1.008019    0.894212    0.096779
      5          6           0       -0.357722    0.409661   -0.059363
      6          6           0       -1.481956   -0.005091   -0.185070
      7          6           0       -2.812823   -0.521497   -0.352083
      8          6           0       -4.002772    0.350812   -0.291776
      9          8           0       -3.684550   -0.510061    0.793087
     10          1           0        5.273167   -0.447543    0.049315
     11          1           0        3.592490    0.775059    1.101692
     12          1           0        3.674425    1.109364   -0.638573
     13          1           0        1.972454   -0.675891   -1.052340
     14          1           0        1.889608   -1.004099    0.673316
     15          1           0        1.111068    1.361040    1.085791
     16          1           0        1.196813    1.693029   -0.633632
     17          1           0       -2.890153   -1.432042   -0.945690
     18          1           0       -3.864691    1.414110   -0.105005
     19          1           0       -4.888211    0.082224   -0.867150
 ---------------------------------------------------------------------

 SCF Done:  E(RB3LYP) =  -423.122091759     A.U. after    1 cycles

 The electronic state is 1-A.
 Alpha  occ. eigenvalues --  -19.15415 -19.13665 -10.25704 -10.23857 -10.23186
 Alpha  occ. eigenvalues --  -10.21198 -10.18753 -10.18204 -10.17389  -1.07397
 Alpha  occ. eigenvalues --   -1.01815  -0.80969  -0.75610  -0.70608  -0.66687
 Alpha  occ. eigenvalues --   -0.63928  -0.59830  -0.53190  -0.51505  -0.49322
 Alpha  occ. eigenvalues --   -0.48523  -0.46725  -0.42730  -0.41049  -0.40085
 Alpha  occ. eigenvalues --   -0.39239  -0.38296  -0.35218  -0.33714  -0.33056
 Alpha  occ. eigenvalues --   -0.27689  -0.27087  -0.26091  -0.24652
 Alpha virt. eigenvalues --    0.02923   0.04246   0.07507   0.09316   0.11135
 Alpha virt. eigenvalues --    0.12956   0.13757   0.14448   0.14878   0.15879
 Alpha virt. eigenvalues --    0.17140   0.17298   0.18493   0.19500   0.22526

 Mulliken charges:
               1
     1  O   -0.420963
     2  C   -0.074216
     3  C   -0.156685
     4  C   -0.363051
     5  C    0.049146
     6  C    0.142380
     7  C   -0.116224
     8  C   -0.160236
     9  O   -0.216522
    10  H    0.286833
    11  H    0.085895
    12  H    0.084706
    13  H    0.118940
    14  H    0.122167
    15  H    0.133812
    16  H    0.129453
    17  H    0.115288
    18  H    0.122049
    19  H    0.117229
 Sum of Mulliken charges =   0.00000

 Dipole moment (field-independent basis, Debye):
    X=              1.6048    Y=              2.0043    Z=             -1.2080  Tot=              2.8376
 Quadrupole moment (field-independent basis, Debye-Ang):
   XX=            -43.4110   YY=            -53.3420   ZZ=            -54.4710
   XY=              3.7680   XZ=              7.9170   YZ=              1.3290

  Exact polarizability: 127.269   4.922  66.291   4.103   2.063  57.689
 Approx polarizability: 159.902  13.251 100.097   3.661   1.641  89.985

 ******    1 imaginary frequencies (negative Signs) ******

                      1                      2                      3
                      A                      A                      A
 Frequencies --     -0.2040                61.3616                72.5895
 Red. masses --      3.9913                 4.6956                 2.0901
 Frc consts  --      0.0000                 0.0104                 0.0065
 IR Inten    --      1.9083                 1.3890                 5.5246

                      4                      5                      6
                      A                      A                      A
 Frequencies --    117.1872               142.4387               160.0619
 Red. masses --      3.0834                 3.9519                 3.7691
 Frc consts  --      0.0249                 0.0472                 0.0569
 IR Inten    --      3.4851                 1.0104                 1.5371

                      7                      8                      9
                      A                      A                      A
 Frequencies --    248.2404               260.8965               330.4768
 Red. masses --      3.7405                 1.0809                 3.9126
 Frc consts  --      0.1358                 0.0433                 0.2518
 IR Inten    --      0.8392               106.6182                 3.4560

                     10                     11                     12
                      A                      A                      A
 Frequencies --    389.4148               492.2162               518.1083
 Red. masses --      6.3130                 3.8494                 5.4111
 Frc consts  --      0.5640                 0.5495                 0.8558
 IR Inten    --      6.3089                12.7424                 9.3560

                     13                     14                     15
                      A                      A                      A
 Frequencies --    542.3341               735.0367               756.0766
 Red. masses --      6.4968                 2.5839                 1.1098
 Frc consts  --      1.1259                 0.8225                 0.3738
 IR Inten    --      3.1834                 6.4832                 0.6765

                     16                     17                     18
                      A                      A                      A
 Frequencies --    831.7584               864.9465               905.8785
 Red. masses --      8.0899                 1.2381                 3.6383
 Frc consts  --      3.2975                 0.5457                 1.7591
 IR Inten    --     28.3771                 1.0401                28.8900

                     19                     20                     21
                      A                      A                      A
 Frequencies --    991.6116              1019.2051              1032.4250
 Red. masses --      1.9511                 3.2794                 2.5443
 Frc consts  --      1.1303                 2.0071                 1.5979
 IR Inten    --     11.2800                36.4045                 5.0835

                     22                     23                     24
                      A                      A                      A
 Frequencies --   1083.5301              1087.6429              1116.2343
 Red. masses --      1.5503                 2.5286                 1.5262
 Frc consts  --      1.0724                 1.7624                 1.1204
 IR Inten    --     24.1074                50.9175                 0.7750

                     25                     26                     27
                      A                      A                      A
 Frequencies --   1149.0770              1159.6810              1187.3790
 Red. masses --      1.6144                 1.3537                 2.2638
 Frc consts  --      1.2559                 1.0726                 1.8805
 IR Inten    --      0.8564                 4.0941                 4.1567

                     28                     29                     30
                      A                      A                      A
 Frequencies --   1212.7429              1231.6502              1283.1884
 Red. masses --      1.2504                 1.1833                 1.6240
 Frc consts  --      1.0835                 1.0576                 1.5755
 IR Inten    --      1.7674                34.6260                 8.7653

                     31                     32                     33
                      A                      A                      A
 Frequencies --   1300.0289              1305.6438              1312.0863
 Red. masses --      1.1670                 1.3261                 1.0686
 Frc consts  --      1.1621                 1.3320                 1.0839
 IR Inten    --      1.0468                28.9226                 0.4258

                     34                     35                     36
                      A                      A                      A
 Frequencies --   1375.3324              1408.1792              1465.8160
 Red. masses --      1.5176                 1.9807                 1.4397
 Frc consts  --      1.6913                 2.3141                 1.8226
 IR Inten    --      3.4978                52.1280                 9.0068

                     37                     38                     39
                      A                      A                      A
 Frequencies --   1472.9662              1499.5551              1518.8730
 Red. masses --      1.0975                 1.0882                 1.2386
 Frc consts  --      1.4030                 1.4417                 1.6835
 IR Inten    --      4.0149                 2.3481                 1.9029

                     40                     41                     42
                      A                      A                      A
 Frequencies --   1529.1008              2366.6811              2954.3334
 Red. masses --      1.0878                11.8795                 1.0542
 Frc consts  --      1.4986                39.2039                 5.4210
 IR Inten    --      2.4137                16.2305                56.6360

                     43                     44                     45
                      A                      A                      A
 Frequencies --   2979.2218              3009.2637              3037.3239
 Red. masses --      1.1058                 1.0583                 1.1001
 Frc consts  --      5.7826                 5.6465                 5.9797
 IR Inten    --     57.5051                23.1888                 8.2526

                     46                     47                     48
                      A                      A                      A
 Frequencies --   3055.6031              3082.9399              3101.7536
 Red. masses --      1.0589                 1.0499                 1.1054
 Frc consts  --      5.8252                 5.8793                 6.2660
 IR Inten    --     20.0345                30.4749                29.3146

                     49                     50                     51
                      A                      A                      A
 Frequencies --   3111.8364              3176.2956              3831.3606
 Red. masses --      1.0866                 1.1198                 1.0664
 Frc consts  --      6.1992                 6.6560                 9.2229
 IR Inten    --     19.1529                25.3388                22.2405

 - Thermochemistry -
 -------------------
 Temperature   298.150 Kelvin.  Pressure   1.00000 Atm.
 Atom     1 has atomic number  8 and mass  15.99491

 Molecular mass:   126.06808 amu.
 Principal axes and moments of inertia in atomic units:
                           1         2         3
     Eigenvalues --   228.096314210.755904298.46513
           X            0.99997   0.00233   0.00784
           Y           -0.00286   0.99765   0.06847
           Z           -0.00766  -0.06849   0.99762
 This molecule is an asymmetric top.
 Rotational symmetry number  1.
 Rotational temperatures (Kelvin)      0.37972     0.02057     0.02015
 Rotational constants (GHZ):           7.91219     0.42860     0.41986
    1 imaginary frequencies ignored.
 Zero-point vibrational energy     411979.4 (Joules/Mol)
                                   98.46545 (Kcal/Mol)
 Warning -- explicit consideration of  12 degrees of freedom as
           vibrations may cause significant error
 Vibrational temperatures:     88.29   104.44   168.61   204.94   230.29
          (Kelvin)            357.16   375.37   475.48   560.28   708.19
                              745.44   780.30  1057.55  1087.82  1196.71
                             1244.46  1303.36  1426.71  1466.41  1485.43
                             1558.96  1564.87  1606.01  1653.26  1668.52
                             1708.37  1744.86  1772.07  1846.22  1870.45
                             1878.53  1887.80  1978.79  2026.05  2108.98
                             2119.27  2157.52  2185.32  2200.03  3405.12
                             4250.62  4286.43  4329.65  4370.03  4396.33
                             4435.66  4462.73  4477.23  4569.98  5512.47

 Zero-point correction=                           0.156915 (Hartree/Particle)
 Thermal correction to Energy=                    0.166361
 Thermal correction to Enthalpy=                  0.167305
 Thermal correction to Gibbs Free Energy=         0.121427
 Sum of electronic and zero-point Energies=           -422.965177
 Sum of electronic and thermal Energies=              -422.955730
 Sum of electronic and thermal Enthalpies=            -422.954786
 Sum of electronic and thermal Free Energies=         -423.000664

                     E (Thermal)             CV                S
                      KCal/Mol        Cal/Mol-Kelvin    Cal/Mol-Kelvin
 Total                  104.393             33.221             96.558
 Electronic               0.000              0.000              0.000
 Translational            0.889              2.981             40.409
 Rotational               0.889              2.981             29.802
 Vibrational            102.616             27.259             26.347
 Vibration     1          0.597              1.973              4.413
 Vibration     2          0.599              1.967              4.082
 Vibration     3          0.608              1.935              3.146
 Vibration     4          0.616              1.911              2.771
 Vibration     5          0.622              1.891              2.549
 Vibration     6          0.662              1.766              1.743
 Vibration     7          0.669              1.744              1.656
 Vibration     8          0.713              1.615              1.258
 Vibration     9          0.757              1.493              1.002
 Vibration    10          0.848              1.267              0.678
 Vibration    11          0.873              1.210              0.614
 Vibration    12          0.897              1.156              0.560

 Normal termination of Gaussian 09 at Tue Jan 28 15:05:14 2020.
