 Gaussian 09, Revision D.01,
 Gaussian 09:  ES64L-G09RevD.01 24-Apr-2013

 -----------------------------
 # b3lyp 6-31G(2df,p) opt Freq
 -----------------------------

 -----
 titel
 -----
 Symbolic Z-matrix:
 Charge =  0 Multiplicity = 1

 SCF Done:  E(RB3LYP) =  -423.129869890     A.U. after   14 cycles
 Optimization completed.
    -- Stationary point found.
 Normal termination of Gaussian 09 at Tue Jan 28 09:19:18 2020.

 ----------------------------------------------------------------------
 #N Geom=AllCheck Guess=TCheck SCRF=Check GenChk RB3LYP/6-31G(2df,p) Fr
 eq
 ----------------------------------------------------------------------

 Structure from the checkpoint file:  "/scratch/puck/g09_0e904735-e0b9-45e3-95ee-245ad64d5174/Gau-84014.chk"
 -----
 titel
 -----
 Charge =  0 Multiplicity = 1

                         Standard orientation:
 ---------------------------------------------------------------------
 Center     Atomic      Atomic             Coordinates (Angstroms)
 Number     Number       Type             X           Y           Z
 ---------------------------------------------------------------------
      1          8           0        2.550617   -0.689569   -0.415967
      2          6           0        1.862073   -0.063582    0.653533
      3          6           0        0.412989    0.150507    0.298712
      4          6           0       -0.556390    1.111773    1.024549
      5          6           0       -1.133425    1.117257   -0.407907
      6          8           0        0.257312    1.028991   -0.892666
      7          6           0       -1.643433   -0.312731   -0.671867
      8          6           0       -1.805785   -1.270090    0.482742
      9          6           0       -0.442345   -1.065050   -0.125942
     10          1           0        2.370475   -0.158394   -1.200957
     11          1           0        1.944984   -0.729318    1.519335
     12          1           0        2.320296    0.900741    0.920131
     13          1           0       -1.149999    0.779174    1.875886
     14          1           0       -0.064574    2.059568    1.242078
     15          1           0       -1.687407    1.956860   -0.825909
     16          1           0       -2.082138   -0.538082   -1.636110
     17          1           0       -2.043565   -0.919630    1.479930
     18          1           0       -2.285344   -2.213864    0.238981
     19          1           0        0.051728   -1.860947   -0.667227
 ---------------------------------------------------------------------

 SCF Done:  E(RB3LYP) =  -423.129869890     A.U. after    1 cycles

 The electronic state is 1-A.
 Alpha  occ. eigenvalues --  -19.13465 -19.12864 -10.24407 -10.24332 -10.22827
 Alpha  occ. eigenvalues --  -10.19494 -10.19234 -10.19072 -10.18979  -1.04574
 Alpha  occ. eigenvalues --   -1.01328  -0.86463  -0.74836  -0.72716  -0.65105
 Alpha  occ. eigenvalues --   -0.63288  -0.55622  -0.54152  -0.52682  -0.49439
 Alpha  occ. eigenvalues --   -0.48229  -0.45294  -0.44502  -0.39725  -0.39172
 Alpha  occ. eigenvalues --   -0.38653  -0.37658  -0.35141  -0.33279  -0.31775
 Alpha  occ. eigenvalues --   -0.29518  -0.27476  -0.26378  -0.24662
 Alpha virt. eigenvalues --    0.07079   0.09441   0.09848   0.10449   0.12186
 Alpha virt. eigenvalues --    0.13389   0.13586   0.15548   0.16286   0.17075
 Alpha virt. eigenvalues --    0.17788   0.18472   0.19079   0.21203   0.23623

 Mulliken charges:
               1
     1  O   -0.419231
     2  C   -0.173546
     3  C    0.389440
     4  C   -0.308263
     5  C    0.059808
     6  O   -0.352067
     7  C   -0.040083
     8  C   -0.316163
     9  C   -0.066802
    10  H    0.297476
    11  H    0.113854
    12  H    0.093626
    13  H    0.098932
    14  H    0.112382
    15  H    0.080569
    16  H    0.095716
    17  H    0.114599
    18  H    0.114954
    19  H    0.104800
 Sum of Mulliken charges =   0.00000

 Dipole moment (field-independent basis, Debye):
    X=             -1.7560    Y=              0.3966    Z=              0.8802  Tot=              2.0039
 Quadrupole moment (field-independent basis, Debye-Ang):
   XX=            -55.7069   YY=            -53.1710   ZZ=            -51.0126
   XY=              2.3807   XZ=              0.9260   YZ=              1.1772

  Exact polarizability:  79.061   1.916  73.265   1.211   0.111  68.085
 Approx polarizability: 111.400  -0.556 108.589  -1.456  -4.418 107.295

                      1                      2                      3
                      A                      A                      A
 Frequencies --     96.4808               166.4167               252.5689
 Red. masses --      3.8950                 4.0573                 2.3855
 Frc consts  --      0.0214                 0.0662                 0.0897
 IR Inten    --      5.4126                 0.5954                 2.8802

                      4                      5                      6
                      A                      A                      A
 Frequencies --    339.9456               417.4100               427.0719
 Red. masses --      2.2266                 1.3917                 2.4845
 Frc consts  --      0.1516                 0.1429                 0.2670
 IR Inten    --     14.5555               106.2277                 6.3860

                      7                      8                      9
                      A                      A                      A
 Frequencies --    449.2462               540.9426               608.5259
 Red. masses --      3.3952                 2.0466                 5.1137
 Frc consts  --      0.4037                 0.3528                 1.1157
 IR Inten    --     14.3503                 3.2025                10.7114

                     10                     11                     12
                      A                      A                      A
 Frequencies --    627.2714               685.8231               752.0477
 Red. masses --      4.4194                 3.7153                 2.7430
 Frc consts  --      1.0245                 1.0296                 0.9140
 IR Inten    --      1.7951                 7.6869                22.9991

                     13                     14                     15
                      A                      A                      A
 Frequencies --    781.4701               821.8804               854.3370
 Red. masses --      3.0118                 1.5175                 2.0302
 Frc consts  --      1.0837                 0.6040                 0.8731
 IR Inten    --     30.8454                 4.4782                 9.7377

                     16                     17                     18
                      A                      A                      A
 Frequencies --    882.7355               931.5484               937.2096
 Red. masses --      3.3932                 3.0320                 2.1940
 Frc consts  --      1.5578                 1.5502                 1.1354
 IR Inten    --     22.7228                13.8988                32.3481

                     19                     20                     21
                      A                      A                      A
 Frequencies --    970.9058               977.8237              1013.0574
 Red. masses --      2.5178                 1.8509                 1.7574
 Frc consts  --      1.3984                 1.0427                 1.0627
 IR Inten    --      6.6213                 7.8119                 1.5025

                     22                     23                     24
                      A                      A                      A
 Frequencies --   1039.0576              1058.3847              1078.5999
 Red. masses --      1.3520                 2.4755                 1.7586
 Frc consts  --      0.8600                 1.6338                 1.2055
 IR Inten    --     15.1056                54.6900                13.7404

                     25                     26                     27
                      A                      A                      A
 Frequencies --   1087.0698              1099.4019              1113.0271
 Red. masses --      1.5668                 1.2688                 1.4873
 Frc consts  --      1.0909                 0.9036                 1.0856
 IR Inten    --      7.4132                 0.9887                 3.4737

                     28                     29                     30
                      A                      A                      A
 Frequencies --   1171.7960              1192.3330              1205.0715
 Red. masses --      1.7153                 1.7026                 1.8144
 Frc consts  --      1.3877                 1.4261                 1.5524
 IR Inten    --      5.8656                 1.6834                10.3983

                     31                     32                     33
                      A                      A                      A
 Frequencies --   1235.4336              1245.0963              1261.4396
 Red. masses --      1.3844                 1.7553                 1.6625
 Frc consts  --      1.2449                 1.6033                 1.5586
 IR Inten    --      2.4513                 7.5562                 5.8027

                     34                     35                     36
                      A                      A                      A
 Frequencies --   1298.4418              1327.8346              1370.6351
 Red. masses --      1.7290                 1.7929                 1.6796
 Frc consts  --      1.7175                 1.8625                 1.8591
 IR Inten    --      9.6796                22.2741                 9.0481

                     37                     38                     39
                      A                      A                      A
 Frequencies --   1387.8983              1438.4780              1481.6335
 Red. masses --      1.4710                 1.3987                 1.2898
 Frc consts  --      1.6695                 1.7052                 1.6682
 IR Inten    --     14.7290                48.8841                 2.2088

                     40                     41                     42
                      A                      A                      A
 Frequencies --   1496.3719              1520.7918              2991.9278
 Red. masses --      1.0928                 1.1299                 1.0682
 Frc consts  --      1.4417                 1.5397                 5.6338
 IR Inten    --      0.8201                 3.2772                52.6278

                     43                     44                     45
                      A                      A                      A
 Frequencies --   3075.1370              3091.0232              3129.4540
 Red. masses --      1.0946                 1.0573                 1.0697
 Frc consts  --      6.0986                 5.9520                 6.1722
 IR Inten    --     20.8363                23.8008                31.5672

                     46                     47                     48
                      A                      A                      A
 Frequencies --   3131.3955              3152.3851              3186.8921
 Red. masses --      1.0774                 1.1085                 1.0916
 Frc consts  --      6.2245                 6.4905                 6.5323
 IR Inten    --     29.5822                25.8833                13.5489

                     49                     50                     51
                      A                      A                      A
 Frequencies --   3201.4039              3211.8495              3792.7938
 Red. masses --      1.0997                 1.1053                 1.0658
 Frc consts  --      6.6408                 6.7180                 9.0333
 IR Inten    --      0.9032                16.8125                25.8359

 - Thermochemistry -
 -------------------
 Temperature   298.150 Kelvin.  Pressure   1.00000 Atm.
 Atom     1 has atomic number  8 and mass  15.99491

 Molecular mass:   126.06808 amu.
 Principal axes and moments of inertia in atomic units:
                           1         2         3
     Eigenvalues --   603.104401196.734711368.93152
           X            0.99971   0.02310   0.00620
           Y           -0.02340   0.99835   0.05246
           Z           -0.00497  -0.05259   0.99860
 This molecule is an asymmetric top.
 Rotational symmetry number  1.
 Warning -- assumption of classical behavior for rotation
           may cause significant error
 Rotational temperatures (Kelvin)      0.14361     0.07238     0.06327
 Rotational constants (GHZ):           2.99242     1.50805     1.31836
 Zero-point vibrational energy     422328.3 (Joules/Mol)
                                  100.93888 (Kcal/Mol)
 Warning -- explicit consideration of   9 degrees of freedom as
           vibrations may cause significant error
 Vibrational temperatures:    138.81   239.44   363.39   489.11   600.56
          (Kelvin)            614.46   646.36   778.29   875.53   902.50
                              986.75  1082.03  1124.36  1182.50  1229.20
                             1270.06  1340.29  1348.43  1396.92  1406.87
                             1457.56  1494.97  1522.78  1551.86  1564.05
                             1581.79  1601.40  1685.95  1715.50  1733.83
                             1777.51  1791.41  1814.93  1868.17  1910.46
                             1972.04  1996.87  2069.65  2131.74  2152.94
                             2188.08  4304.71  4424.43  4447.29  4502.58
                             4505.37  4535.57  4585.22  4606.10  4621.13
                             5456.98

 Zero-point correction=                           0.160856 (Hartree/Particle)
 Thermal correction to Energy=                    0.168255
 Thermal correction to Enthalpy=                  0.169200
 Thermal correction to Gibbs Free Energy=         0.129140
 Sum of electronic and zero-point Energies=           -422.969014
 Sum of electronic and thermal Energies=              -422.961614
 Sum of electronic and thermal Enthalpies=            -422.960670
 Sum of electronic and thermal Free Energies=         -423.000729

                     E (Thermal)             CV                S
                      KCal/Mol        Cal/Mol-Kelvin    Cal/Mol-Kelvin
 Total                  105.582             30.354             84.311
 Electronic               0.000              0.000              0.000
 Translational            0.889              2.981             40.409
 Rotational               0.889              2.981             28.382
 Vibrational            103.804             24.392             15.521
 Vibration     1          0.603              1.952              3.524
 Vibration     2          0.624              1.884              2.476
 Vibration     3          0.664              1.758              1.713
 Vibration     4          0.720              1.596              1.212
 Vibration     5          0.780              1.432              0.901
 Vibration     6          0.789              1.411              0.868
 Vibration     7          0.808              1.363              0.798
 Vibration     8          0.896              1.160              0.563
 Vibration     9          0.967              1.014              0.435

 Optimization completed.
    -- Stationary point found.
 Normal termination of Gaussian 09 at Tue Jan 28 10:11:09 2020.
