 Gaussian 09, Revision D.01,
 Gaussian 09:  ES64L-G09RevD.01 24-Apr-2013

 -----------------------------
 # b3lyp 6-31G(2df,p) opt Freq
 -----------------------------

 -----
 titel
 -----
 Symbolic Z-matrix:
 Charge =  0 Multiplicity = 1

 SCF Done:  E(RB3LYP) =  -423.181362472     A.U. after   14 cycles
 Optimization completed.
    -- Stationary point found.
 Normal termination of Gaussian 09 at Tue Jan 28 09:46:44 2020.

 ----------------------------------------------------------------------
 #N Geom=AllCheck Guess=TCheck SCRF=Check GenChk RB3LYP/6-31G(2df,p) Fr
 eq
 ----------------------------------------------------------------------

 Structure from the checkpoint file:  "/scratch/puck/g09_7d475feb-5680-402c-a23b-1d2f8844c190/Gau-96289.chk"
 -----
 titel
 -----
 Charge =  0 Multiplicity = 1

                         Standard orientation:
 ---------------------------------------------------------------------
 Center     Atomic      Atomic             Coordinates (Angstroms)
 Number     Number       Type             X           Y           Z
 ---------------------------------------------------------------------
      1          8           0        2.832619    0.466837    0.206486
      2          6           0        1.953804   -0.292675   -0.608502
      3          6           0        0.516166   -0.122905   -0.167094
      4          6           0       -0.098364    1.252089   -0.343629
      5          6           0       -1.510480    1.358426    0.263717
      6          6           0       -2.373316    0.173657   -0.086883
      7          6           0       -1.857237   -1.043594   -0.266608
      8          6           0       -0.398472   -1.279353   -0.127778
      9          8           0        0.235822   -0.779528    1.080423
     10          1           0        2.700427    0.157290    1.110214
     11          1           0        2.088989    0.075299   -1.631280
     12          1           0        2.215489   -1.360987   -0.592614
     13          1           0        0.566096    2.004326    0.092219
     14          1           0       -0.143961    1.455103   -1.421803
     15          1           0       -1.429252    1.429194    1.355488
     16          1           0       -1.984056    2.287745   -0.069430
     17          1           0       -3.445447    0.328661   -0.170303
     18          1           0       -2.484528   -1.894385   -0.513232
     19          1           0       -0.023898   -2.254588   -0.433866
 ---------------------------------------------------------------------

 SCF Done:  E(RB3LYP) =  -423.181362472     A.U. after    1 cycles

 The electronic state is 1-A.
 Alpha  occ. eigenvalues --  -19.14840 -19.13640 -10.23751 -10.23697 -10.23015
 Alpha  occ. eigenvalues --  -10.18912 -10.18868 -10.18674 -10.18386  -1.06710
 Alpha  occ. eigenvalues --   -1.01580  -0.81620  -0.75904  -0.72220  -0.66946
 Alpha  occ. eigenvalues --   -0.62421  -0.58288  -0.52765  -0.51625  -0.48546
 Alpha  occ. eigenvalues --   -0.46637  -0.44448  -0.43922  -0.42524  -0.41058
 Alpha  occ. eigenvalues --   -0.38757  -0.36448  -0.36072  -0.33951  -0.33105
 Alpha  occ. eigenvalues --   -0.30668  -0.28044  -0.26225  -0.24111
 Alpha virt. eigenvalues --   -0.00193   0.07938   0.09776   0.11010   0.12066
 Alpha virt. eigenvalues --    0.13213   0.14653   0.15475   0.16087   0.16622
 Alpha virt. eigenvalues --    0.18505   0.18982   0.19535   0.22094   0.23520

 Mulliken charges:
               1
     1  O   -0.417343
     2  C   -0.135621
     3  C    0.359985
     4  C   -0.281822
     5  C   -0.268628
     6  C   -0.083941
     7  C   -0.037916
     8  C   -0.056814
     9  O   -0.307174
    10  H    0.293152
    11  H    0.110512
    12  H    0.090593
    13  H    0.119492
    14  H    0.106147
    15  H    0.132155
    16  H    0.102714
    17  H    0.096149
    18  H    0.090646
    19  H    0.087713
 Sum of Mulliken charges =   0.00000

 Dipole moment (field-independent basis, Debye):
    X=             -1.3137    Y=             -0.2925    Z=             -0.9739  Tot=              1.6613
 Quadrupole moment (field-independent basis, Debye-Ang):
   XX=            -55.3622   YY=            -50.8220   ZZ=            -53.2794
   XY=             -2.8806   XZ=              1.4359   YZ=              1.9192

  Exact polarizability:  88.037  -1.515  81.483   0.248   3.051  58.180
 Approx polarizability: 115.839  -2.977 126.420   2.740   3.654  97.006

                      1                      2                      3
                      A                      A                      A
 Frequencies --     72.0116               141.3188               196.9784
 Red. masses --      3.7063                 3.5865                 2.3870
 Frc consts  --      0.0113                 0.0422                 0.0546
 IR Inten    --      5.4400                 0.6275                 0.9230

                      4                      5                      6
                      A                      A                      A
 Frequencies --    254.9905               308.1311               381.5521
 Red. masses --      3.1309                 2.0476                 3.2623
 Frc consts  --      0.1199                 0.1145                 0.2798
 IR Inten    --      2.5225                 6.6861                22.0052

                      7                      8                      9
                      A                      A                      A
 Frequencies --    390.8280               439.8449               468.7124
 Red. masses --      3.1695                 1.3376                 2.5224
 Frc consts  --      0.2852                 0.1525                 0.3265
 IR Inten    --     12.0294                83.4786                14.3440

                     10                     11                     12
                      A                      A                      A
 Frequencies --    545.3425               645.4953               694.2180
 Red. masses --      4.3302                 3.2204                 2.7158
 Frc consts  --      0.7587                 0.7906                 0.7711
 IR Inten    --      1.6398                15.9058                25.9359

                     13                     14                     15
                      A                      A                      A
 Frequencies --    708.9676               759.9175               827.3431
 Red. masses --      2.1384                 2.3001                 2.9270
 Frc consts  --      0.6333                 0.7826                 1.1804
 IR Inten    --      2.7976                 7.5635                 4.4049

                     16                     17                     18
                      A                      A                      A
 Frequencies --    878.5031               898.2718               945.6180
 Red. masses --      3.4998                 2.7574                 1.7860
 Frc consts  --      1.5914                 1.3109                 0.9409
 IR Inten    --     42.4100                 1.1667                 4.3729

                     19                     20                     21
                      A                      A                      A
 Frequencies --    973.6625               984.2009              1005.2330
 Red. masses --      2.8092                 1.2604                 2.2877
 Frc consts  --      1.5691                 0.7193                 1.3620
 IR Inten    --      4.8890                 1.3186                40.7264

                     22                     23                     24
                      A                      A                      A
 Frequencies --   1049.8046              1056.6435              1065.2424
 Red. masses --      1.8485                 2.8814                 2.3247
 Frc consts  --      1.2003                 1.8954                 1.5542
 IR Inten    --     18.4176                36.7758                 6.5311

                     25                     26                     27
                      A                      A                      A
 Frequencies --   1111.2983              1176.1232              1184.0943
 Red. masses --      2.2830                 1.2741                 1.1528
 Frc consts  --      1.6612                 1.0384                 0.9523
 IR Inten    --     18.0921                11.6257                 2.3849

                     28                     29                     30
                      A                      A                      A
 Frequencies --   1214.7892              1242.7557              1277.4681
 Red. masses --      1.3074                 1.3058                 1.3824
 Frc consts  --      1.1367                 1.1882                 1.3292
 IR Inten    --      4.0496                 4.6297                12.5336

                     31                     32                     33
                      A                      A                      A
 Frequencies --   1314.1043              1350.0590              1370.7503
 Red. masses --      1.4129                 1.5150                 1.4228
 Frc consts  --      1.4375                 1.6270                 1.5751
 IR Inten    --      2.8877                 0.0602                 4.8326

                     34                     35                     36
                      A                      A                      A
 Frequencies --   1397.5890              1416.2722              1424.3019
 Red. masses --      1.4519                 1.5808                 1.2641
 Frc consts  --      1.6709                 1.8682                 1.5110
 IR Inten    --      1.2548                 1.7531                58.8972

                     37                     38                     39
                      A                      A                      A
 Frequencies --   1461.5557              1476.2353              1489.7373
 Red. masses --      2.0296                 1.2682                 1.1772
 Frc consts  --      2.5544                 1.6283                 1.5393
 IR Inten    --     10.2138                 3.5337                 0.5628

                     40                     41                     42
                      A                      A                      A
 Frequencies --   1492.2428              1706.0074              2994.6774
 Red. masses --      1.1149                 6.3199                 1.0673
 Frc consts  --      1.4627                10.8374                 5.6397
 IR Inten    --      1.3988                 4.3004                47.9296

                     43                     44                     45
                      A                      A                      A
 Frequencies --   3025.7681              3032.6929              3072.0557
 Red. masses --      1.0681                 1.0616                 1.0964
 Frc consts  --      5.7613                 5.7527                 6.0967
 IR Inten    --     14.5509                21.3795                20.9371

                     46                     47                     48
                      A                      A                      A
 Frequencies --   3075.7556              3086.4392              3124.5246
 Red. masses --      1.0954                 1.0973                 1.0878
 Frc consts  --      6.1054                 6.1590                 6.2572
 IR Inten    --     33.1812                17.0674                29.5229

                     49                     50                     51
                      A                      A                      A
 Frequencies --   3160.5885              3185.5714              3796.4952
 Red. masses --      1.0851                 1.0978                 1.0658
 Frc consts  --      6.3862                 6.5637                 9.0509
 IR Inten    --      8.6652                28.6566                21.8616

 - Thermochemistry -
 -------------------
 Temperature   298.150 Kelvin.  Pressure   1.00000 Atm.
 Atom     1 has atomic number  8 and mass  15.99491

 Molecular mass:   126.06808 amu.
 Principal axes and moments of inertia in atomic units:
                           1         2         3
     Eigenvalues --   531.115021406.918931680.53779
           X            0.99983  -0.01797  -0.00464
           Y            0.01812   0.99926   0.03397
           Z            0.00403  -0.03405   0.99941
 This molecule is an asymmetric top.
 Rotational symmetry number  1.
 Warning -- assumption of classical behavior for rotation
           may cause significant error
 Rotational temperatures (Kelvin)      0.16308     0.06156     0.05154
 Rotational constants (GHZ):           3.39802     1.28276     1.07391
 Zero-point vibrational energy     420803.1 (Joules/Mol)
                                  100.57435 (Kcal/Mol)
 Warning -- explicit consideration of  10 degrees of freedom as
           vibrations may cause significant error
 Vibrational temperatures:    103.61   203.33   283.41   366.87   443.33
          (Kelvin)            548.97   562.31   632.84   674.37   784.63
                              928.72   998.82  1020.05  1093.35  1190.36
                             1263.97  1292.41  1360.53  1400.88  1416.04
                             1446.30  1510.43  1520.27  1532.64  1598.91
                             1692.18  1703.65  1747.81  1788.05  1837.99
                             1890.70  1942.43  1972.20  2010.82  2037.70
                             2049.25  2102.85  2123.97  2143.40  2147.00
                             2454.56  4308.67  4353.40  4363.36  4420.00
                             4425.32  4440.69  4495.49  4547.38  4583.32
                             5462.30

 Zero-point correction=                           0.160275 (Hartree/Particle)
 Thermal correction to Energy=                    0.168431
 Thermal correction to Enthalpy=                  0.169375
 Thermal correction to Gibbs Free Energy=         0.127533
 Sum of electronic and zero-point Energies=           -423.021087
 Sum of electronic and thermal Energies=              -423.012931
 Sum of electronic and thermal Enthalpies=            -423.011987
 Sum of electronic and thermal Free Energies=         -423.053829

                     E (Thermal)             CV                S
                      KCal/Mol        Cal/Mol-Kelvin    Cal/Mol-Kelvin
 Total                  105.692             31.754             88.064
 Electronic               0.000              0.000              0.000
 Translational            0.889              2.981             40.409
 Rotational               0.889              2.981             28.620
 Vibrational            103.915             25.793             19.036
 Vibration     1          0.598              1.967              4.098
 Vibration     2          0.615              1.912              2.786
 Vibration     3          0.636              1.844              2.161
 Vibration     4          0.665              1.754              1.696
 Vibration     5          0.698              1.658              1.372
 Vibration     6          0.751              1.510              1.033
 Vibration     7          0.759              1.490              0.997
 Vibration     8          0.800              1.383              0.827
 Vibration     9          0.826              1.319              0.741
 Vibration    10          0.901              1.150              0.554

 Optimization completed.
    -- Stationary point found.
 Normal termination of Gaussian 09 at Tue Jan 28 10:30:15 2020.
