 Gaussian 09, Revision D.01,
 Gaussian 09:  ES64L-G09RevD.01 24-Apr-2013

 -----------------------------
 # b3lyp 6-31G(2df,p) opt Freq
 -----------------------------

 -----
 titel
 -----
 Symbolic Z-matrix:
 Charge =  0 Multiplicity = 1

 SCF Done:  E(RB3LYP) =  -423.154598577     A.U. after   14 cycles
 Optimization completed.
    -- Stationary point found.
 Normal termination of Gaussian 09 at Tue Jan 28 03:12:32 2020.

 ----------------------------------------------------------------------
 #N Geom=AllCheck Guess=TCheck SCRF=Check GenChk RB3LYP/6-31G(2df,p) Fr
 eq
 ----------------------------------------------------------------------

 Structure from the checkpoint file:  "/scratch/puck/g09_1aa8de32-e9dd-447a-90f1-45f3f5069427/Gau-45087.chk"
 -----
 titel
 -----
 Charge =  0 Multiplicity = 1

                         Standard orientation:
 ---------------------------------------------------------------------
 Center     Atomic      Atomic             Coordinates (Angstroms)
 Number     Number       Type             X           Y           Z
 ---------------------------------------------------------------------
      1          6           0        2.649577   -0.717293    0.729022
      2          6           0        1.777325   -0.136924   -0.378868
      3          8           0        1.240979    1.137955    0.057539
      4          6           0       -0.115821    1.203164   -0.328979
      5          6           0       -1.309412    1.100774    0.688482
      6          6           0       -1.902440   -0.062483   -0.214187
      7          8           0       -2.410089   -1.223233    0.385677
      8          6           0       -0.501164   -0.180433   -0.748937
      9          6           0        0.550149   -0.987071   -0.693826
     10          1           0        3.137528   -1.637885    0.392349
     11          1           0        3.424978    0.001828    1.007629
     12          1           0        2.048042   -0.940922    1.614965
     13          1           0        2.403042    0.038977   -1.269921
     14          1           0       -0.270541    2.015164   -1.051973
     15          1           0       -0.973041    0.689019    1.641435
     16          1           0       -1.931386    1.987125    0.837990
     17          1           0       -2.606369    0.354096   -0.948969
     18          1           0       -3.336129   -1.074442    0.600082
     19          1           0        0.567480   -2.069135   -0.685546
 ---------------------------------------------------------------------

 SCF Done:  E(RB3LYP) =  -423.154598577     A.U. after    1 cycles

 The electronic state is 1-A.
 Alpha  occ. eigenvalues --  -19.14550 -19.12986 -10.24914 -10.23257 -10.22624
 Alpha  occ. eigenvalues --  -10.18590 -10.18145 -10.17995 -10.17136  -1.03210
 Alpha  occ. eigenvalues --   -1.02502  -0.84220  -0.77522  -0.71446  -0.64594
 Alpha  occ. eigenvalues --   -0.62203  -0.57187  -0.54265  -0.51926  -0.48114
 Alpha  occ. eigenvalues --   -0.47693  -0.45166  -0.41591  -0.40387  -0.38441
 Alpha  occ. eigenvalues --   -0.38187  -0.37055  -0.35726  -0.33871  -0.31955
 Alpha  occ. eigenvalues --   -0.30949  -0.28355  -0.24739  -0.22815
 Alpha virt. eigenvalues --    0.00540   0.07485   0.10414   0.11158   0.12645
 Alpha virt. eigenvalues --    0.13625   0.14633   0.15397   0.16150   0.17283
 Alpha virt. eigenvalues --    0.18329   0.18706   0.19590   0.20906   0.21895

 Mulliken charges:
               1
     1  C   -0.388017
     2  C    0.106583
     3  O   -0.292526
     4  C    0.084648
     5  C   -0.301214
     6  C    0.044760
     7  O   -0.422209
     8  C    0.195147
     9  C   -0.240317
    10  H    0.112030
    11  H    0.126432
    12  H    0.121593
    13  H    0.080753
    14  H    0.075536
    15  H    0.121878
    16  H    0.095269
    17  H    0.080663
    18  H    0.287613
    19  H    0.111374
 Sum of Mulliken charges =   0.00000

 Dipole moment (field-independent basis, Debye):
    X=             -1.7237    Y=             -0.0840    Z=             -0.2164  Tot=              1.7393
 Quadrupole moment (field-independent basis, Debye-Ang):
   XX=            -44.3785   YY=            -55.1572   ZZ=            -53.7039
   XY=             -4.5625   XZ=             -1.3451   YZ=             -0.6558

  Exact polarizability:  99.977 -10.413  76.417  -1.884   0.063  61.333
 Approx polarizability: 135.958 -18.091 118.848  -2.563   0.528  93.221

                      1                      2                      3
                      A                      A                      A
 Frequencies --     83.2594               126.8629               210.7024
 Red. masses --      3.5247                 3.9765                 1.8946
 Frc consts  --      0.0144                 0.0377                 0.0496
 IR Inten    --      3.1065                 1.1408                 3.0463

                      4                      5                      6
                      A                      A                      A
 Frequencies --    241.1550               251.0693               315.2745
 Red. masses --      1.3233                 1.1255                 3.2903
 Frc consts  --      0.0453                 0.0418                 0.1927
 IR Inten    --     30.0047                77.4900                 1.9841

                      7                      8                      9
                      A                      A                      A
 Frequencies --    353.8906               405.3083               481.8225
 Red. masses --      2.7208                 3.4764                 3.2500
 Frc consts  --      0.2008                 0.3365                 0.4445
 IR Inten    --      0.7977                 1.7459                 4.8288

                     10                     11                     12
                      A                      A                      A
 Frequencies --    520.5659               654.3352               675.0700
 Red. masses --      3.6469                 2.9554                 2.3791
 Frc consts  --      0.5823                 0.7455                 0.6388
 IR Inten    --      6.3237                 7.3578                 8.5521

                     13                     14                     15
                      A                      A                      A
 Frequencies --    700.2475               802.2347               819.9717
 Red. masses --      3.1237                 4.0094                 1.8660
 Frc consts  --      0.9024                 1.5203                 0.7392
 IR Inten    --      1.5473                 5.1243                 4.3304

                     16                     17                     18
                      A                      A                      A
 Frequencies --    853.7604               881.3601               905.9424
 Red. masses --      1.8260                 3.2051                 2.0700
 Frc consts  --      0.7842                 1.4669                 1.0010
 IR Inten    --     26.1827                 5.3138                 9.3772

                     19                     20                     21
                      A                      A                      A
 Frequencies --    953.4731               998.3963              1030.2802
 Red. masses --      3.1199                 2.7209                 3.1552
 Frc consts  --      1.6711                 1.5980                 1.9733
 IR Inten    --      5.3441                45.9414                14.0944

                     22                     23                     24
                      A                      A                      A
 Frequencies --   1043.2762              1079.7186              1113.6026
 Red. masses --      2.3502                 1.6957                 1.6208
 Frc consts  --      1.5072                 1.1647                 1.1842
 IR Inten    --     32.4800                19.4330                 5.1484

                     25                     26                     27
                      A                      A                      A
 Frequencies --   1116.7845              1136.9522              1155.8215
 Red. masses --      1.7217                 2.6142                 1.9953
 Frc consts  --      1.2652                 1.9910                 1.5705
 IR Inten    --     24.8635                30.3348                37.0295

                     28                     29                     30
                      A                      A                      A
 Frequencies --   1183.4773              1208.6715              1237.4622
 Red. masses --      1.5970                 1.4430                 1.3939
 Frc consts  --      1.3179                 1.2421                 1.2576
 IR Inten    --     25.0035               103.0379                 6.0138

                     31                     32                     33
                      A                      A                      A
 Frequencies --   1274.4332              1301.8666              1312.5131
 Red. masses --      1.3790                 1.5391                 1.4512
 Frc consts  --      1.3197                 1.5369                 1.4730
 IR Inten    --     10.1990                34.5298                 9.3757

                     34                     35                     36
                      A                      A                      A
 Frequencies --   1362.0267              1375.9060              1399.8943
 Red. masses --      1.3631                 1.3816                 1.2791
 Frc consts  --      1.4899                 1.5411                 1.4769
 IR Inten    --     34.9395                 2.3118                 7.0268

                     37                     38                     39
                      A                      A                      A
 Frequencies --   1439.0165              1463.3415              1484.4483
 Red. masses --      1.4190                 1.1421                 1.0519
 Frc consts  --      1.7313                 1.4409                 1.3657
 IR Inten    --     17.1046                 5.2712                 2.7699

                     40                     41                     42
                      A                      A                      A
 Frequencies --   1495.1616              1733.7259              2955.7036
 Red. masses --      1.0477                 8.8121                 1.0821
 Frc consts  --      1.3800                15.6059                 5.5699
 IR Inten    --      2.0615                 1.0239                73.1561

                     43                     44                     45
                      A                      A                      A
 Frequencies --   2994.0861              3009.9102              3038.2269
 Red. masses --      1.0830                 1.0841                 1.0344
 Frc consts  --      5.7201                 5.7867                 5.6259
 IR Inten    --     36.9709                82.0068                17.8951

                     46                     47                     48
                      A                      A                      A
 Frequencies --   3062.0292              3112.8251              3120.9588
 Red. masses --      1.0586                 1.1013                 1.1027
 Frc consts  --      5.8477                 6.2872                 6.3282
 IR Inten    --     43.0640                21.4340                22.5643

                     49                     50                     51
                      A                      A                      A
 Frequencies --   3143.8653              3220.3491              3824.6775
 Red. masses --      1.1081                 1.0957                 1.0662
 Frc consts  --      6.4530                 6.6950                 9.1895
 IR Inten    --     21.1773                 3.2494                28.2784

 - Thermochemistry -
 -------------------
 Temperature   298.150 Kelvin.  Pressure   1.00000 Atm.
 Atom     1 has atomic number  6 and mass  12.00000

 Molecular mass:   126.06808 amu.
 Principal axes and moments of inertia in atomic units:
                           1         2         3
     Eigenvalues --   552.257011457.307711708.00170
           X            0.99913  -0.04108   0.00706
           Y            0.04120   0.99901  -0.01662
           Z           -0.00637   0.01690   0.99984
 This molecule is an asymmetric top.
 Rotational symmetry number  1.
 Warning -- assumption of classical behavior for rotation
           may cause significant error
 Rotational temperatures (Kelvin)      0.15684     0.05943     0.05071
 Rotational constants (GHZ):           3.26794     1.23841     1.05664
 Zero-point vibrational energy     416693.5 (Joules/Mol)
                                   99.59214 (Kcal/Mol)
 Warning -- explicit consideration of  10 degrees of freedom as
           vibrations may cause significant error
 Vibrational temperatures:    119.79   182.53   303.15   346.97   361.23
          (Kelvin)            453.61   509.17   583.15   693.23   748.98
                              941.44   971.27  1007.50  1154.24  1179.75
                             1228.37  1268.08  1303.45  1371.83  1436.47
                             1482.34  1501.04  1553.47  1602.22  1606.80
                             1635.82  1662.97  1702.76  1739.01  1780.43
                             1833.62  1873.09  1888.41  1959.65  1979.62
                             2014.13  2070.42  2105.42  2135.79  2151.20
                             2494.44  4252.59  4307.82  4330.58  4371.33
                             4405.57  4478.66  4490.36  4523.32  4633.36
                             5502.85

 Zero-point correction=                           0.158710 (Hartree/Particle)
 Thermal correction to Energy=                    0.167118
 Thermal correction to Enthalpy=                  0.168062
 Thermal correction to Gibbs Free Energy=         0.125749
 Sum of electronic and zero-point Energies=           -422.995888
 Sum of electronic and thermal Energies=              -422.987481
 Sum of electronic and thermal Enthalpies=            -422.986537
 Sum of electronic and thermal Free Energies=         -423.028850

                     E (Thermal)             CV                S
                      KCal/Mol        Cal/Mol-Kelvin    Cal/Mol-Kelvin
 Total                  104.868             32.412             89.055
 Electronic               0.000              0.000              0.000
 Translational            0.889              2.981             40.409
 Rotational               0.889              2.981             28.710
 Vibrational            103.091             26.450             19.937
 Vibration     1          0.600              1.961              3.813
 Vibration     2          0.611              1.926              2.993
 Vibration     3          0.643              1.825              2.038
 Vibration     4          0.658              1.777              1.794
 Vibration     5          0.663              1.761              1.723
 Vibration     6          0.703              1.644              1.335
 Vibration     7          0.730              1.567              1.149
 Vibration     8          0.770              1.459              0.943
 Vibration     9          0.838              1.290              0.705
 Vibration    10          0.876              1.204              0.609

 Normal termination of Gaussian 09 at Tue Jan 28 05:06:29 2020.
