 Gaussian 09, Revision D.01,
 Gaussian 09:  ES64L-G09RevD.01 24-Apr-2013

 -----------------------------
 # b3lyp 6-31G(2df,p) opt Freq
 -----------------------------

 -----
 titel
 -----
 Symbolic Z-matrix:
 Charge =  0 Multiplicity = 1

 SCF Done:  E(RB3LYP) =  -423.199339319     A.U. after   14 cycles
 Optimization completed.
    -- Stationary point found.
 Normal termination of Gaussian 09 at Mon Jan 27 15:52:11 2020.

 ----------------------------------------------------------------------
 #N Geom=AllCheck Guess=TCheck SCRF=Check GenChk RB3LYP/6-31G(2df,p) Fr
 eq
 ----------------------------------------------------------------------

 Structure from the checkpoint file:  "/scratch/puck/g09_e894e264-3c11-41bf-aff6-3b24facb272e/Gau-82122.chk"
 -----
 titel
 -----
 Charge =  0 Multiplicity = 1

                         Standard orientation:
 ---------------------------------------------------------------------
 Center     Atomic      Atomic             Coordinates (Angstroms)
 Number     Number       Type             X           Y           Z
 ---------------------------------------------------------------------
      1          6           0       -1.147160    1.342133   -1.126239
      2          6           0       -0.171520    0.925318   -0.040971
      3          6           0        0.516295    2.098844    0.637618
      4          6           0       -0.489215   -0.280639    0.842723
      5          6           0       -1.733745   -1.077522    0.697588
      6          8           0       -2.198285   -1.463448   -0.349551
      7          6           0        0.575227   -0.373394   -0.262390
      8          6           0        1.992364   -0.573239    0.128239
      9          8           0        2.780716   -1.215981   -0.519531
     10          1           0       -1.900811    2.026290   -0.720209
     11          1           0       -0.610502    1.872619   -1.920103
     12          1           0       -1.660754    0.485591   -1.563092
     13          1           0        1.162490    1.797678    1.464944
     14          1           0        1.126987    2.654175   -0.082623
     15          1           0       -0.234587    2.789037    1.036443
     16          1           0       -0.121716   -0.209993    1.862970
     17          1           0       -2.241012   -1.306776    1.660084
     18          1           0        0.269868   -0.949751   -1.129922
     19          1           0        2.297112   -0.092447    1.084763
 ---------------------------------------------------------------------

 SCF Done:  E(RB3LYP) =  -423.199339319     A.U. after    1 cycles

 The electronic state is 1-A.
 Alpha  occ. eigenvalues --  -19.14722 -19.14020 -10.28214 -10.27646 -10.23863
 Alpha  occ. eigenvalues --  -10.22153 -10.21537 -10.19984 -10.18815  -1.05439
 Alpha  occ. eigenvalues --   -1.04791  -0.90059  -0.75749  -0.71127  -0.70168
 Alpha  occ. eigenvalues --   -0.63390  -0.57348  -0.54343  -0.50914  -0.48677
 Alpha  occ. eigenvalues --   -0.45794  -0.45251  -0.43934  -0.43212  -0.41504
 Alpha  occ. eigenvalues --   -0.40483  -0.39617  -0.39359  -0.38693  -0.36735
 Alpha  occ. eigenvalues --   -0.31054  -0.30761  -0.26310  -0.25447
 Alpha virt. eigenvalues --   -0.04856  -0.01578   0.07627   0.09034   0.10483
 Alpha virt. eigenvalues --    0.11776   0.13803   0.14730   0.15113   0.16023
 Alpha virt. eigenvalues --    0.17509   0.18737   0.19165   0.20103   0.21519

 Mulliken charges:
               1
     1  C   -0.463136
     2  C    0.290966
     3  C   -0.456414
     4  C   -0.184322
     5  C    0.142252
     6  O   -0.261223
     7  C   -0.145916
     8  C    0.158390
     9  O   -0.260830
    10  H    0.119912
    11  H    0.125632
    12  H    0.161896
    13  H    0.123074
    14  H    0.133871
    15  H    0.128552
    16  H    0.098096
    17  H    0.087553
    18  H    0.130675
    19  H    0.070969
 Sum of Mulliken charges =   0.00000

 Dipole moment (field-independent basis, Debye):
    X=             -0.9345    Y=              2.9213    Z=              2.5007  Tot=              3.9574
 Quadrupole moment (field-independent basis, Debye-Ang):
   XX=            -64.7889   YY=            -55.3795   ZZ=            -51.1047
   XY=              1.5300   XZ=              0.1346   YZ=             -3.3423

  Exact polarizability:  89.569   0.617  77.652  -1.906   1.046  72.584
 Approx polarizability: 129.785  -1.580 112.572  -5.447   8.421 117.223

                      1                      2                      3
                      A                      A                      A
 Frequencies --     79.1536               119.6239               164.8756
 Red. masses --      6.4115                 4.2537                 2.4682
 Frc consts  --      0.0237                 0.0359                 0.0395
 IR Inten    --      4.9851                 6.6243                 1.3894

                      4                      5                      6
                      A                      A                      A
 Frequencies --    189.9944               197.1773               203.7951
 Red. masses --      1.8001                 2.6161                 1.5149
 Frc consts  --      0.0383                 0.0599                 0.0371
 IR Inten    --      3.5402                 2.7856                 6.9741

                      7                      8                      9
                      A                      A                      A
 Frequencies --    236.5851               277.8396               330.9002
 Red. masses --      1.3701                 1.6267                 4.1345
 Frc consts  --      0.0452                 0.0740                 0.2667
 IR Inten    --      0.5350                 0.8369                 4.5637

                     10                     11                     12
                      A                      A                      A
 Frequencies --    365.7012               380.1582               473.4243
 Red. masses --      2.4688                 2.7884                 3.2779
 Frc consts  --      0.1945                 0.2374                 0.4329
 IR Inten    --      1.0023                 3.2039                10.5906

                     13                     14                     15
                      A                      A                      A
 Frequencies --    502.8515               659.2714               715.9508
 Red. masses --      3.8848                 4.0324                 4.2552
 Frc consts  --      0.5788                 1.0326                 1.2851
 IR Inten    --     14.7047                 0.4661                 4.2436

                     16                     17                     18
                      A                      A                      A
 Frequencies --    787.1298               904.0934               962.8323
 Red. masses --      3.7005                 2.8797                 1.5589
 Frc consts  --      1.3509                 1.3868                 0.8515
 IR Inten    --     16.4478                 1.8327                 6.6037

                     19                     20                     21
                      A                      A                      A
 Frequencies --    969.8688               994.2618              1020.1347
 Red. masses --      1.4464                 1.5191                 1.9426
 Frc consts  --      0.8016                 0.8848                 1.1911
 IR Inten    --     10.9399                26.4032                61.8824

                     22                     23                     24
                      A                      A                      A
 Frequencies --   1045.4071              1066.1880              1082.3755
 Red. masses --      1.7598                 1.7480                 1.6011
 Frc consts  --      1.1331                 1.1708                 1.1052
 IR Inten    --      8.4026                15.3048                34.6860

                     25                     26                     27
                      A                      A                      A
 Frequencies --   1112.2301              1135.8486              1151.2181
 Red. masses --      1.5877                 1.7681                 2.0713
 Frc consts  --      1.1572                 1.3440                 1.6173
 IR Inten    --     12.0213                71.0374                18.6178

                     28                     29                     30
                      A                      A                      A
 Frequencies --   1218.6976              1292.7932              1337.6726
 Red. masses --      1.7139                 1.9591                 1.7632
 Frc consts  --      1.4998                 1.9291                 1.8588
 IR Inten    --      6.2373                 6.8336                 8.3123

                     31                     32                     33
                      A                      A                      A
 Frequencies --   1409.2291              1414.8378              1426.8107
 Red. masses --      1.5281                 1.5436                 1.2459
 Frc consts  --      1.7880                 1.8205                 1.4944
 IR Inten    --     32.9073                19.8506                 7.7126

                     34                     35                     36
                      A                      A                      A
 Frequencies --   1432.1907              1450.8277              1485.1456
 Red. masses --      1.2101                 1.3930                 1.0463
 Frc consts  --      1.4624                 1.7275                 1.3597
 IR Inten    --      7.4256                 7.7419                 2.6657

                     37                     38                     39
                      A                      A                      A
 Frequencies --   1489.4721              1507.0525              1512.3572
 Red. masses --      1.0515                 1.0630                 1.1177
 Frc consts  --      1.3744                 1.4225                 1.5062
 IR Inten    --      5.0541                 7.2819                 1.4633

                     40                     41                     42
                      A                      A                      A
 Frequencies --   1802.9088              1816.5801              2873.8803
 Red. masses --      9.4823                10.2020                 1.0815
 Frc consts  --     18.1598                19.8356                 5.2629
 IR Inten    --    161.5358               244.0090                87.0734

                     43                     44                     45
                      A                      A                      A
 Frequencies --   2892.3332              3033.9465              3038.4051
 Red. masses --      1.0832                 1.0383                 1.0378
 Frc consts  --      5.3392                 5.6312                 5.6448
 IR Inten    --    138.1879                13.1736                36.7481

                     46                     47                     48
                      A                      A                      A
 Frequencies --   3092.2153              3097.5994              3123.6392
 Red. masses --      1.1009                 1.1008                 1.0993
 Frc consts  --      6.2021                 6.2232                 6.3196
 IR Inten    --      5.9810                27.0398                18.3911

                     49                     50                     51
                      A                      A                      A
 Frequencies --   3148.5925              3150.5906              3174.7700
 Red. masses --      1.0881                 1.0982                 1.0880
 Frc consts  --      6.3557                 6.4228                 6.4612
 IR Inten    --     11.0755                 2.4617                 0.9537

 - Thermochemistry -
 -------------------
 Temperature   298.150 Kelvin.  Pressure   1.00000 Atm.
 Atom     1 has atomic number  6 and mass  12.00000

 Molecular mass:   126.06808 amu.
 Principal axes and moments of inertia in atomic units:
                           1         2         3
     Eigenvalues --   898.726381397.113221864.84221
           X            0.99982   0.00742   0.01724
           Y           -0.00716   0.99986  -0.01480
           Z           -0.01735   0.01467   0.99974
 This molecule is an asymmetric top.
 Rotational symmetry number  1.
 Warning -- assumption of classical behavior for rotation
           may cause significant error
 Rotational temperatures (Kelvin)      0.09637     0.06199     0.04645
 Rotational constants (GHZ):           2.00811     1.29176     0.96777
 Zero-point vibrational energy     408832.4 (Joules/Mol)
                                   97.71329 (Kcal/Mol)
 Warning -- explicit consideration of  13 degrees of freedom as
           vibrations may cause significant error
 Vibrational temperatures:    113.88   172.11   237.22   273.36   283.69
          (Kelvin)            293.22   340.39   399.75   476.09   526.16
                              546.96   681.15   723.49   948.54  1030.09
                             1132.50  1300.79  1385.30  1395.42  1430.52
                             1467.74  1504.11  1534.00  1557.30  1600.25
                             1634.23  1656.34  1753.43  1860.04  1924.61
                             2027.56  2035.63  2052.86  2060.60  2087.41
                             2136.79  2143.02  2168.31  2175.94  2593.98
                             2613.65  4134.87  4161.42  4365.17  4371.58
                             4449.00  4456.75  4494.21  4530.12  4532.99
                             4567.78

 Zero-point correction=                           0.155716 (Hartree/Particle)
 Thermal correction to Energy=                    0.165585
 Thermal correction to Enthalpy=                  0.166529
 Thermal correction to Gibbs Free Energy=         0.121015
 Sum of electronic and zero-point Energies=           -423.043623
 Sum of electronic and thermal Energies=              -423.033754
 Sum of electronic and thermal Enthalpies=            -423.032810
 Sum of electronic and thermal Free Energies=         -423.078324

                     E (Thermal)             CV                S
                      KCal/Mol        Cal/Mol-Kelvin    Cal/Mol-Kelvin
 Total                  103.906             35.447             95.793
 Electronic               0.000              0.000              0.000
 Translational            0.889              2.981             40.409
 Rotational               0.889              2.981             29.239
 Vibrational            102.129             29.486             26.145
 Vibration     1          0.600              1.963              3.912
 Vibration     2          0.609              1.933              3.106
 Vibration     3          0.623              1.886              2.493
 Vibration     4          0.633              1.854              2.228
 Vibration     5          0.637              1.844              2.159
 Vibration     6          0.639              1.835              2.099
 Vibration     7          0.655              1.785              1.828
 Vibration     8          0.679              1.714              1.547
 Vibration     9          0.713              1.614              1.256
 Vibration    10          0.739              1.543              1.098
 Vibration    11          0.750              1.512              1.039
 Vibration    12          0.830              1.309              0.728
 Vibration    13          0.858              1.244              0.651

 Normal termination of Gaussian 09 at Mon Jan 27 16:30:56 2020.
