 Gaussian 09, Revision D.01,
 Gaussian 09:  ES64L-G09RevD.01 24-Apr-2013

 -----------------------------
 # b3lyp 6-31G(2df,p) opt Freq
 -----------------------------

 -----
 titel
 -----
 Symbolic Z-matrix:
 Charge =  0 Multiplicity = 1

 SCF Done:  E(RB3LYP) =  -423.164873105     A.U. after   14 cycles
 Optimization completed.
    -- Stationary point found.
 Normal termination of Gaussian 09 at Tue Jan 28 03:12:12 2020.

 ----------------------------------------------------------------------
 #N Geom=AllCheck Guess=TCheck SCRF=Check GenChk RB3LYP/6-31G(2df,p) Fr
 eq
 ----------------------------------------------------------------------

 Structure from the checkpoint file:  "/scratch/puck/g09_4e71d580-fddb-4d59-b718-da4c327546a2/Gau-45537.chk"
 -----
 titel
 -----
 Charge =  0 Multiplicity = 1

                         Standard orientation:
 ---------------------------------------------------------------------
 Center     Atomic      Atomic             Coordinates (Angstroms)
 Number     Number       Type             X           Y           Z
 ---------------------------------------------------------------------
      1          6           0        2.598758   -1.260340   -0.049967
      2          6           0        1.513496   -0.345727    0.483634
      3          8           0        1.688040    1.024692    0.016539
      4          6           0        0.465698    0.978488   -0.740865
      5          6           0       -0.738731    1.586003    0.013928
      6          6           0       -1.029824    0.162572    0.624983
      7          6           0       -2.406415   -0.342744    0.293434
      8          8           0       -2.651424   -1.246580   -0.465629
      9          6           0        0.134940   -0.438750   -0.197489
     10          1           0        2.441169   -2.286101    0.301260
     11          1           0        2.603409   -1.263758   -1.144383
     12          1           0        3.580653   -0.923345    0.296294
     13          1           0        1.490305   -0.381491    1.582005
     14          1           0        0.611199    1.250365   -1.789412
     15          1           0       -0.480875    2.375510    0.721570
     16          1           0       -1.535282    1.938641   -0.648761
     17          1           0       -0.904972    0.121949    1.713981
     18          1           0       -3.227648    0.216827    0.799575
     19          1           0       -0.098411   -1.310505   -0.805361
 ---------------------------------------------------------------------

 SCF Done:  E(RB3LYP) =  -423.164873105     A.U. after    1 cycles

 The electronic state is 1-A.
 Alpha  occ. eigenvalues --  -19.14432 -19.13420 -10.27475 -10.23906 -10.23857
 Alpha  occ. eigenvalues --  -10.20615 -10.19826 -10.19330 -10.17906  -1.05103
 Alpha  occ. eigenvalues --   -1.04165  -0.83976  -0.76132  -0.69637  -0.68224
 Alpha  occ. eigenvalues --   -0.61663  -0.57012  -0.52480  -0.51071  -0.49827
 Alpha  occ. eigenvalues --   -0.47499  -0.45391  -0.43651  -0.41066  -0.40494
 Alpha  occ. eigenvalues --   -0.39707  -0.38567  -0.37829  -0.34640  -0.33830
 Alpha  occ. eigenvalues --   -0.30620  -0.28945  -0.25987  -0.24659
 Alpha virt. eigenvalues --   -0.02511   0.06777   0.09322   0.09626   0.11344
 Alpha virt. eigenvalues --    0.12796   0.13335   0.14154   0.15819   0.16063
 Alpha virt. eigenvalues --    0.16676   0.17132   0.18478   0.19999   0.20845

 Mulliken charges:
               1
     1  C   -0.406147
     2  C    0.142406
     3  O   -0.312832
     4  C    0.130490
     5  C   -0.269681
     6  C   -0.102475
     7  C    0.133529
     8  O   -0.244582
     9  C   -0.099159
    10  H    0.117381
    11  H    0.122177
    12  H    0.127672
    13  H    0.073799
    14  H    0.081950
    15  H    0.120940
    16  H    0.111944
    17  H    0.095944
    18  H    0.078396
    19  H    0.098249
 Sum of Mulliken charges =   0.00000

 Dipole moment (field-independent basis, Debye):
    X=              0.1487    Y=              0.6456    Z=              1.1000  Tot=              1.2841
 Quadrupole moment (field-independent basis, Debye-Ang):
   XX=            -58.6391   YY=            -55.5724   ZZ=            -51.0762
   XY=             -8.5028   XZ=             -3.0938   YZ=             -2.0964

  Exact polarizability:  88.057  -4.100  74.777  -0.507   1.186  66.197
 Approx polarizability: 111.607   2.446 114.254   2.644   5.592 104.988

                      1                      2                      3
                      A                      A                      A
 Frequencies --     65.3964               102.7108               150.6269
 Red. masses --      4.6112                 3.1156                 3.7966
 Frc consts  --      0.0116                 0.0194                 0.0508
 IR Inten    --      6.9873                 2.4633                 4.6804

                      4                      5                      6
                      A                      A                      A
 Frequencies --    179.0461               244.4261               276.2525
 Red. masses --      2.4218                 1.0921                 3.4891
 Frc consts  --      0.0457                 0.0384                 0.1569
 IR Inten    --      2.0878                 0.1441                 1.8554

                      7                      8                      9
                      A                      A                      A
 Frequencies --    347.9813               382.4839               470.0974
 Red. masses --      2.4931                 2.7938                 2.7541
 Frc consts  --      0.1779                 0.2408                 0.3586
 IR Inten    --      2.1538                 2.4077                 3.5571

                     10                     11                     12
                      A                      A                      A
 Frequencies --    638.8835               679.9664               798.8480
 Red. masses --      5.3437                 3.1740                 2.3269
 Frc consts  --      1.2851                 0.8646                 0.8749
 IR Inten    --     16.7430                 2.0817                 6.7063

                     13                     14                     15
                      A                      A                      A
 Frequencies --    806.0730               834.6769               875.6765
 Red. masses --      2.0594                 1.8272                 2.5859
 Frc consts  --      0.7884                 0.7500                 1.1683
 IR Inten    --      0.5671                 4.0192                16.5250

                     16                     17                     18
                      A                      A                      A
 Frequencies --    920.9345               925.0128               952.2914
 Red. masses --      2.3546                 1.5911                 2.6330
 Frc consts  --      1.1766                 0.8021                 1.4068
 IR Inten    --      5.9929                14.0337                 4.3092

                     19                     20                     21
                      A                      A                      A
 Frequencies --    967.1762               991.8348              1052.1173
 Red. masses --      3.4760                 2.0065                 3.3517
 Frc consts  --      1.9157                 1.1630                 2.1859
 IR Inten    --      9.4275                20.7357                77.5629

                     22                     23                     24
                      A                      A                      A
 Frequencies --   1075.9025              1084.6747              1113.7284
 Red. masses --      1.8890                 1.4878                 2.2515
 Frc consts  --      1.2883                 1.0313                 1.6454
 IR Inten    --     22.2372                 4.7900                15.9598

                     25                     26                     27
                      A                      A                      A
 Frequencies --   1120.9107              1152.5822              1181.4136
 Red. masses --      2.0116                 1.7494                 1.6217
 Frc consts  --      1.4892                 1.3693                 1.3336
 IR Inten    --      2.5858                 3.5516                 8.3261

                     28                     29                     30
                      A                      A                      A
 Frequencies --   1216.4094              1232.3374              1241.0881
 Red. masses --      1.4733                 1.5168                 1.4290
 Frc consts  --      1.2844                 1.3572                 1.2968
 IR Inten    --      3.1298                 0.9446                 6.3975

                     31                     32                     33
                      A                      A                      A
 Frequencies --   1266.2290              1295.8820              1339.9558
 Red. masses --      1.5490                 1.3796                 1.5014
 Frc consts  --      1.4632                 1.3650                 1.5882
 IR Inten    --      3.5294                 2.8563                16.3868

                     34                     35                     36
                      A                      A                      A
 Frequencies --   1347.9651              1391.2744              1406.3081
 Red. masses --      1.8284                 1.3821                 1.3534
 Frc consts  --      1.9573                 1.5762                 1.5770
 IR Inten    --     15.8861                 7.6548                13.4881

                     37                     38                     39
                      A                      A                      A
 Frequencies --   1420.8018              1464.7329              1483.4812
 Red. masses --      1.2034                 1.1040                 1.0562
 Frc consts  --      1.4313                 1.3956                 1.3695
 IR Inten    --     15.0280                 2.1698                 3.4306

                     40                     41                     42
                      A                      A                      A
 Frequencies --   1492.5831              1821.5529              2860.9369
 Red. masses --      1.0494                10.4121                 1.0823
 Frc consts  --      1.3774                20.3551                 5.2192
 IR Inten    --      2.6160               162.2781               133.7567

                     43                     44                     45
                      A                      A                      A
 Frequencies --   3001.2709              3033.3237              3036.6047
 Red. masses --      1.0848                 1.0354                 1.0834
 Frc consts  --      5.7572                 5.6129                 5.8861
 IR Inten    --     48.0787                16.6494                22.2260

                     46                     47                     48
                      A                      A                      A
 Frequencies --   3054.0343              3076.1108              3106.6280
 Red. masses --      1.0627                 1.0877                 1.1009
 Frc consts  --      5.8402                 6.0639                 6.2601
 IR Inten    --     18.7795                52.7118                20.6290

                     49                     50                     51
                      A                      A                      A
 Frequencies --   3113.9570              3127.9829              3140.9078
 Red. masses --      1.1024                 1.1047                 1.0894
 Frc consts  --      6.2981                 6.3683                 6.3321
 IR Inten    --     22.6602                13.5542                 8.1148

 - Thermochemistry -
 -------------------
 Temperature   298.150 Kelvin.  Pressure   1.00000 Atm.
 Atom     1 has atomic number  6 and mass  12.00000

 Molecular mass:   126.06808 amu.
 Principal axes and moments of inertia in atomic units:
                           1         2         3
     Eigenvalues --   568.064781545.725831888.77537
           X            0.99811  -0.06091  -0.00868
           Y            0.06088   0.99814  -0.00323
           Z            0.00886   0.00270   0.99996
 This molecule is an asymmetric top.
 Rotational symmetry number  1.
 Warning -- assumption of classical behavior for rotation
           may cause significant error
 Rotational temperatures (Kelvin)      0.15247     0.05603     0.04586
 Rotational constants (GHZ):           3.17700     1.16757     0.95551
 Zero-point vibrational energy     414889.3 (Joules/Mol)
                                   99.16093 (Kcal/Mol)
 Warning -- explicit consideration of   9 degrees of freedom as
           vibrations may cause significant error
 Vibrational temperatures:     94.09   147.78   216.72   257.61   351.67
          (Kelvin)            397.47   500.67   550.31   676.36   919.21
                              978.32  1149.36  1159.76  1200.91  1259.90
                             1325.02  1330.89  1370.13  1391.55  1427.03
                             1513.76  1547.98  1560.60  1602.40  1612.74
                             1658.31  1699.79  1750.14  1773.06  1785.65
                             1821.82  1864.48  1927.90  1939.42  2001.73
                             2023.36  2044.21  2107.42  2134.40  2147.49
                             2620.81  4116.24  4318.15  4364.27  4368.99
                             4394.07  4425.83  4469.74  4480.28  4500.46
                             4519.06

 Zero-point correction=                           0.158023 (Hartree/Particle)
 Thermal correction to Energy=                    0.166570
 Thermal correction to Enthalpy=                  0.167514
 Thermal correction to Gibbs Free Energy=         0.124262
 Sum of electronic and zero-point Energies=           -423.006850
 Sum of electronic and thermal Energies=              -422.998303
 Sum of electronic and thermal Enthalpies=            -422.997359
 Sum of electronic and thermal Free Energies=         -423.040611

                     E (Thermal)             CV                S
                      KCal/Mol        Cal/Mol-Kelvin    Cal/Mol-Kelvin
 Total                  104.524             31.567             91.032
 Electronic               0.000              0.000              0.000
 Translational            0.889              2.981             40.409
 Rotational               0.889              2.981             28.896
 Vibrational            102.747             25.606             21.727
 Vibration     1          0.597              1.971              4.287
 Vibration     2          0.605              1.947              3.402
 Vibration     3          0.618              1.902              2.664
 Vibration     4          0.629              1.868              2.338
 Vibration     5          0.660              1.772              1.770
 Vibration     6          0.678              1.717              1.557
 Vibration     7          0.726              1.579              1.175
 Vibration     8          0.752              1.508              1.029
 Vibration     9          0.827              1.316              0.737

 Normal termination of Gaussian 09 at Tue Jan 28 05:08:01 2020.
