 Gaussian 09, Revision D.01,
 Gaussian 09:  ES64L-G09RevD.01 24-Apr-2013

 -----------------------------
 # b3lyp 6-31G(2df,p) opt Freq
 -----------------------------

 -----
 titel
 -----
 Symbolic Z-matrix:
 Charge =  0 Multiplicity = 1

 SCF Done:  E(RB3LYP) =  -423.199720352     A.U. after   14 cycles
 Optimization completed.
    -- Stationary point found.
 Normal termination of Gaussian 09 at Tue Jan 28 00:04:45 2020.

 ----------------------------------------------------------------------
 #N Geom=AllCheck Guess=TCheck SCRF=Check GenChk RB3LYP/6-31G(2df,p) Fr
 eq
 ----------------------------------------------------------------------

 Structure from the checkpoint file:  "/scratch/puck/g09_cb638c2e-514a-40e8-846e-d85356642f89/Gau-71691.chk"
 -----
 titel
 -----
 Charge =  0 Multiplicity = 1

                         Standard orientation:
 ---------------------------------------------------------------------
 Center     Atomic      Atomic             Coordinates (Angstroms)
 Number     Number       Type             X           Y           Z
 ---------------------------------------------------------------------
      1          6           0        2.912806    0.340489    0.261442
      2          6           0        1.454842   -0.013039    0.439410
      3          6           0        0.723880   -0.877308   -0.532148
      4          8           0       -0.218591   -1.768892   -0.011379
      5          6           0       -1.568909   -1.343273   -0.122299
      6          6           0       -1.776704   -0.014520    0.617773
      7          6           0       -0.915085    1.067824   -0.020631
      8          8           0       -1.311252    2.200042   -0.192378
      9          6           0        0.418173    0.613653   -0.507531
     10          1           0        3.143192    1.312551    0.709368
     11          1           0        3.554936   -0.410855    0.733357
     12          1           0        3.180738    0.391287   -0.798741
     13          1           0        1.124392   -0.137818    1.466721
     14          1           0        1.256493   -1.263948   -1.399347
     15          1           0       -1.861480   -1.241290   -1.178454
     16          1           0       -2.171992   -2.140669    0.319671
     17          1           0       -2.818560    0.315544    0.592403
     18          1           0       -1.488439   -0.151692    1.667436
     19          1           0        0.825433    1.234745   -1.298457
 ---------------------------------------------------------------------

 SCF Done:  E(RB3LYP) =  -423.199720352     A.U. after    1 cycles

 The electronic state is 1-A.
 Alpha  occ. eigenvalues --  -19.15460 -19.12104 -10.26682 -10.24816 -10.24250
 Alpha  occ. eigenvalues --  -10.20967 -10.20078 -10.19246 -10.19075  -1.05269
 Alpha  occ. eigenvalues --   -1.03139  -0.87001  -0.78368  -0.72875  -0.65836
 Alpha  occ. eigenvalues --   -0.63786  -0.59004  -0.53351  -0.50163  -0.49086
 Alpha  occ. eigenvalues --   -0.46935  -0.45359  -0.43401  -0.42130  -0.41312
 Alpha  occ. eigenvalues --   -0.40822  -0.38638  -0.37383  -0.36058  -0.35217
 Alpha  occ. eigenvalues --   -0.31766  -0.28339  -0.26080  -0.23597
 Alpha virt. eigenvalues --   -0.01426   0.08448   0.09462   0.10417   0.12570
 Alpha virt. eigenvalues --    0.12921   0.13870   0.15004   0.15711   0.16579
 Alpha virt. eigenvalues --    0.16693   0.17668   0.18398   0.21211   0.22010

 Mulliken charges:
               1
     1  C   -0.418575
     2  C   -0.042883
     3  C    0.076151
     4  O   -0.257748
     5  C   -0.086354
     6  C   -0.319136
     7  C    0.387868
     8  O   -0.329932
     9  C   -0.173129
    10  H    0.131121
    11  H    0.127942
    12  H    0.121079
    13  H    0.102161
    14  H    0.100471
    15  H    0.103039
    16  H    0.117592
    17  H    0.124546
    18  H    0.128246
    19  H    0.107542
 Sum of Mulliken charges =   0.00000

 Dipole moment (field-independent basis, Debye):
    X=              1.0656    Y=             -1.7783    Z=              0.1152  Tot=              2.0763
 Quadrupole moment (field-independent basis, Debye-Ang):
   XX=            -49.2106   YY=            -63.6109   ZZ=            -50.6212
   XY=              5.7702   XZ=             -1.2423   YZ=              1.1310

  Exact polarizability:  91.698  -0.874  76.428  -0.783  -1.165  62.915
 Approx polarizability: 118.064  -9.364 122.085   1.194  -4.889  98.050

                      1                      2                      3
                      A                      A                      A
 Frequencies --     89.1361               144.2686               197.6773
 Red. masses --      4.0443                 3.0150                 1.2241
 Frc consts  --      0.0189                 0.0370                 0.0282
 IR Inten    --      6.8154                 0.5590                 0.2634

                      4                      5                      6
                      A                      A                      A
 Frequencies --    224.5658               260.4992               307.7881
 Red. masses --      2.5376                 1.9735                 2.8948
 Frc consts  --      0.0754                 0.0789                 0.1616
 IR Inten    --      0.5228                 1.0790                 4.0389

                      7                      8                      9
                      A                      A                      A
 Frequencies --    396.8750               450.3425               468.9957
 Red. masses --      4.0567                 4.7620                 3.8701
 Frc consts  --      0.3765                 0.5690                 0.5016
 IR Inten    --      2.5028                 9.3804                 5.9063

                     10                     11                     12
                      A                      A                      A
 Frequencies --    498.8045               569.0644               733.5425
 Red. masses --      2.8260                 3.3159                 3.5239
 Frc consts  --      0.4143                 0.6327                 1.1172
 IR Inten    --      4.4041                 4.0008                 4.3787

                     13                     14                     15
                      A                      A                      A
 Frequencies --    761.9747               777.0646               861.8425
 Red. masses --      2.5797                 3.0387                 2.0529
 Frc consts  --      0.8825                 1.0811                 0.8984
 IR Inten    --      7.4387                 3.4786                12.1310

                     16                     17                     18
                      A                      A                      A
 Frequencies --    892.9370               920.6160               950.3654
 Red. masses --      2.6527                 1.8618                 1.8096
 Frc consts  --      1.2462                 0.9297                 0.9630
 IR Inten    --      1.7395                 6.7143                23.8539

                     19                     20                     21
                      A                      A                      A
 Frequencies --    996.2352              1030.5906              1064.1370
 Red. masses --      2.1299                 1.6662                 2.2363
 Frc consts  --      1.2455                 1.0427                 1.4920
 IR Inten    --      5.1266                 6.4902                20.8491

                     22                     23                     24
                      A                      A                      A
 Frequencies --   1075.2204              1087.5852              1114.3366
 Red. masses --      1.4249                 1.6321                 2.4382
 Frc consts  --      0.9706                 1.1374                 1.7838
 IR Inten    --      9.6463                15.7875                 7.2493

                     25                     26                     27
                      A                      A                      A
 Frequencies --   1127.9087              1184.2403              1201.7368
 Red. masses --      1.8548                 2.2096                 1.3908
 Frc consts  --      1.3903                 1.8257                 1.1834
 IR Inten    --      8.5289                12.7932                18.9988

                     28                     29                     30
                      A                      A                      A
 Frequencies --   1226.8267              1253.1869              1273.5080
 Red. masses --      1.6803                 2.0534                 1.4508
 Frc consts  --      1.4901                 1.9000                 1.3863
 IR Inten    --     24.2635               110.0301                40.5921

                     31                     32                     33
                      A                      A                      A
 Frequencies --   1309.5448              1332.6022              1355.5090
 Red. masses --      1.4033                 1.3507                 1.6046
 Frc consts  --      1.4179                 1.4133                 1.7371
 IR Inten    --      8.9774                 1.8111                58.2495

                     34                     35                     36
                      A                      A                      A
 Frequencies --   1399.6886              1417.8489              1443.4437
 Red. masses --      1.3510                 1.2335                 2.2221
 Frc consts  --      1.5594                 1.4610                 2.7278
 IR Inten    --      8.7267                 2.5859                13.7806

                     37                     38                     39
                      A                      A                      A
 Frequencies --   1453.3161              1491.2249              1499.8129
 Red. masses --      1.1000                 1.0503                 1.0664
 Frc consts  --      1.3688                 1.3761                 1.4134
 IR Inten    --      9.3894                 3.3796                 6.5562

                     40                     41                     42
                      A                      A                      A
 Frequencies --   1507.9924              1797.0887              2992.9828
 Red. masses --      1.1077                11.5485                 1.0698
 Frc consts  --      1.4842                21.9743                 5.6463
 IR Inten    --      2.4057               234.6838                52.5857

                     43                     44                     45
                      A                      A                      A
 Frequencies --   3032.4652              3039.3880              3095.5088
 Red. masses --      1.0351                 1.0632                 1.0946
 Frc consts  --      5.6081                 5.7868                 6.1799
 IR Inten    --     28.2275                 8.8215                31.3958

                     46                     47                     48
                      A                      A                      A
 Frequencies --   3099.3284              3102.4821              3108.3986
 Red. masses --      1.1014                 1.1007                 1.0987
 Frc consts  --      6.2336                 6.2424                 6.2545
 IR Inten    --     18.3429                15.7989                15.1011

                     49                     50                     51
                      A                      A                      A
 Frequencies --   3119.6618              3154.9878              3171.2991
 Red. masses --      1.0891                 1.0886                 1.0883
 Frc consts  --      6.2448                 6.3845                 6.4488
 IR Inten    --     24.3622                 8.5079                 7.8514

 - Thermochemistry -
 -------------------
 Temperature   298.150 Kelvin.  Pressure   1.00000 Atm.
 Atom     1 has atomic number  6 and mass  12.00000

 Molecular mass:   126.06808 amu.
 Principal axes and moments of inertia in atomic units:
                           1         2         3
     Eigenvalues --   770.611111157.230541733.87961
           X            0.99624   0.08647  -0.00536
           Y           -0.08644   0.99624   0.00567
           Z            0.00583  -0.00518   0.99997
 This molecule is an asymmetric top.
 Rotational symmetry number  1.
 Warning -- assumption of classical behavior for rotation
           may cause significant error
 Rotational temperatures (Kelvin)      0.11240     0.07485     0.04995
 Rotational constants (GHZ):           2.34196     1.55953     1.04087
 Zero-point vibrational energy     419090.4 (Joules/Mol)
                                  100.16501 (Kcal/Mol)
 Warning -- explicit consideration of  11 degrees of freedom as
           vibrations may cause significant error
 Vibrational temperatures:    128.25   207.57   284.41   323.10   374.80
          (Kelvin)            442.84   571.01   647.94   674.78   717.67
                              818.76  1055.40  1096.31  1118.02  1240.00
                             1284.74  1324.56  1367.36  1433.36  1482.79
                             1531.05  1547.00  1564.79  1603.28  1622.81
                             1703.86  1729.03  1765.13  1803.05  1832.29
                             1884.14  1917.31  1950.27  2013.84  2039.97
                             2076.79  2091.00  2145.54  2157.89  2169.66
                             2585.61  4306.23  4363.04  4373.00  4453.74
                             4459.24  4463.77  4472.29  4488.49  4539.32
                             4562.79

 Zero-point correction=                           0.159623 (Hartree/Particle)
 Thermal correction to Energy=                    0.167895
 Thermal correction to Enthalpy=                  0.168839
 Thermal correction to Gibbs Free Energy=         0.126747
 Sum of electronic and zero-point Energies=           -423.040097
 Sum of electronic and thermal Energies=              -423.031825
 Sum of electronic and thermal Enthalpies=            -423.030881
 Sum of electronic and thermal Free Energies=         -423.072973

                     E (Thermal)             CV                S
                      KCal/Mol        Cal/Mol-Kelvin    Cal/Mol-Kelvin
 Total                  105.356             31.660             88.590
 Electronic               0.000              0.000              0.000
 Translational            0.889              2.981             40.409
 Rotational               0.889              2.981             28.827
 Vibrational            103.578             25.699             19.355
 Vibration     1          0.602              1.957              3.679
 Vibration     2          0.616              1.909              2.746
 Vibration     3          0.637              1.843              2.155
 Vibration     4          0.649              1.804              1.922
 Vibration     5          0.669              1.745              1.658
 Vibration     6          0.698              1.659              1.374
 Vibration     7          0.763              1.477              0.974
 Vibration     8          0.809              1.360              0.795
 Vibration     9          0.826              1.319              0.740
 Vibration    10          0.854              1.253              0.661
 Vibration    11          0.925              1.098              0.506

 Normal termination of Gaussian 09 at Tue Jan 28 00:45:22 2020.
