 Gaussian 09, Revision D.01,
 Gaussian 09:  ES64L-G09RevD.01 24-Apr-2013

 -----------------------------
 # b3lyp 6-31G(2df,p) opt Freq
 -----------------------------

 -----
 titel
 -----
 Symbolic Z-matrix:
 Charge =  0 Multiplicity = 1

 SCF Done:  E(RB3LYP) =  -423.098064764     A.U. after   13 cycles
 Optimization completed.
    -- Stationary point found.
 Normal termination of Gaussian 09 at Mon Jan 27 16:24:33 2020.

 ----------------------------------------------------------------------
 #N Geom=AllCheck Guess=TCheck SCRF=Check GenChk RB3LYP/6-31G(2df,p) Fr
 eq
 ----------------------------------------------------------------------

 Structure from the checkpoint file:  "/scratch/puck/g09_1a9fb04c-d2cd-4e9e-ad80-7ab3f43b35ef/Gau-76312.chk"
 -----
 titel
 -----
 Charge =  0 Multiplicity = 1

                         Standard orientation:
 ---------------------------------------------------------------------
 Center     Atomic      Atomic             Coordinates (Angstroms)
 Number     Number       Type             X           Y           Z
 ---------------------------------------------------------------------
      1          8           0        1.379159    1.553161   -0.022847
      2          6           0        1.051692    0.191469    0.018673
      3          6           0        1.943887   -0.784043   -0.713059
      4          6           0        1.993450   -0.673568    0.796701
      5          6           0       -0.413446   -0.038739    0.082250
      6          6           0       -1.273993   -1.323960   -0.021397
      7          6           0       -2.193548   -0.083429   -0.131322
      8          6           0       -1.458554    0.571039    1.057139
      9          8           0       -1.212454    0.532405   -1.053863
     10          1           0        0.879020    1.932051   -0.756652
     11          1           0        1.501056   -1.669470   -1.155033
     12          1           0        2.765775   -0.349676   -1.269945
     13          1           0        1.584444   -1.482490    1.391886
     14          1           0        2.844327   -0.165694    1.235656
     15          1           0       -1.152518   -1.891107   -0.944924
     16          1           0       -1.363533   -1.955847    0.865878
     17          1           0       -3.244289   -0.029535   -0.413694
     18          1           0       -1.485012    1.660024    1.081669
     19          1           0       -1.559843    0.114604    2.044928
 ---------------------------------------------------------------------

 SCF Done:  E(RB3LYP) =  -423.098064764     A.U. after    1 cycles

 The electronic state is 1-A.
 Alpha  occ. eigenvalues --  -19.14106 -19.12986 -10.25206 -10.25020 -10.24219
 Alpha  occ. eigenvalues --  -10.19574 -10.19039 -10.18924 -10.18548  -1.05563
 Alpha  occ. eigenvalues --   -1.02598  -0.85032  -0.79222  -0.68184  -0.67548
 Alpha  occ. eigenvalues --   -0.60858  -0.58440  -0.54295  -0.54018  -0.48995
 Alpha  occ. eigenvalues --   -0.45352  -0.45039  -0.44729  -0.41190  -0.39093
 Alpha  occ. eigenvalues --   -0.36819  -0.36499  -0.35148  -0.33288  -0.32974
 Alpha  occ. eigenvalues --   -0.31751  -0.28647  -0.25174  -0.23946
 Alpha virt. eigenvalues --    0.07865   0.08870   0.10967   0.11311   0.11585
 Alpha virt. eigenvalues --    0.12722   0.13598   0.14316   0.14788   0.16270
 Alpha virt. eigenvalues --    0.16784   0.18533   0.19823   0.20532   0.21556

 Mulliken charges:
               1
     1  O   -0.465151
     2  C    0.266307
     3  C   -0.325826
     4  C   -0.310177
     5  C    0.397406
     6  C   -0.273280
     7  C    0.040871
     8  C   -0.254389
     9  O   -0.362731
    10  H    0.292781
    11  H    0.116317
    12  H    0.121802
    13  H    0.115731
    14  H    0.129157
    15  H    0.110008
    16  H    0.097059
    17  H    0.098181
    18  H    0.110784
    19  H    0.095152
 Sum of Mulliken charges =   0.00000

 Dipole moment (field-independent basis, Debye):
    X=             -0.7590    Y=             -1.3848    Z=              0.6749  Tot=              1.7173
 Quadrupole moment (field-independent basis, Debye-Ang):
   XX=            -51.6623   YY=            -52.7409   ZZ=            -53.6238
   XY=             -0.3644   XZ=             -2.4932   YZ=             -1.2302

  Exact polarizability:  84.245  -1.948  72.808  -0.378   0.525  69.284
 Approx polarizability: 111.605  -1.707 110.401   1.410  -2.796 110.183

                      1                      2                      3
                      A                      A                      A
 Frequencies --     59.2323               151.6438               174.6089
 Red. masses --      3.7868                 3.3808                 3.0713
 Frc consts  --      0.0078                 0.0458                 0.0552
 IR Inten    --      2.2341                 5.1031                 2.0633

                      4                      5                      6
                      A                      A                      A
 Frequencies --    290.8661               335.0684               373.9440
 Red. masses --      2.9296                 2.3410                 1.3833
 Frc consts  --      0.1460                 0.1549                 0.1140
 IR Inten    --      8.8667                 2.8835                68.0513

                      7                      8                      9
                      A                      A                      A
 Frequencies --    424.6573               492.7807               523.8675
 Red. masses --      2.8913                 2.5757                 3.4920
 Frc consts  --      0.3072                 0.3685                 0.5646
 IR Inten    --     55.2501                 2.4812                 9.6552

                     10                     11                     12
                      A                      A                      A
 Frequencies --    544.8517               609.2145               722.6056
 Red. masses --      2.3553                 2.6619                 5.3032
 Frc consts  --      0.4120                 0.5821                 1.6315
 IR Inten    --      6.3058                 6.1569                28.2208

                     13                     14                     15
                      A                      A                      A
 Frequencies --    766.7476               806.4369               844.6196
 Red. masses --      1.0927                 2.3812                 2.6401
 Frc consts  --      0.3785                 0.9124                 1.1097
 IR Inten    --      0.8208                 0.6918                 2.8274

                     16                     17                     18
                      A                      A                      A
 Frequencies --    887.4461               904.0208               934.4130
 Red. masses --      2.0260                 3.1351                 1.8337
 Frc consts  --      0.9401                 1.5096                 0.9433
 IR Inten    --     19.6598                11.0105                19.1228

                     19                     20                     21
                      A                      A                      A
 Frequencies --    945.1421               954.9013               976.9936
 Red. masses --      3.2108                 1.8954                 2.4698
 Frc consts  --      1.6899                 1.0183                 1.3890
 IR Inten    --      9.2425                 3.8214                12.0430

                     22                     23                     24
                      A                      A                      A
 Frequencies --    986.4001               999.2511              1050.8087
 Red. masses --      1.3047                 2.7696                 1.4860
 Frc consts  --      0.7480                 1.6294                 0.9668
 IR Inten    --      4.5895                14.5659                15.0885

                     25                     26                     27
                      A                      A                      A
 Frequencies --   1076.9526              1089.1248              1102.2166
 Red. masses --      1.4257                 1.3098                 1.6469
 Frc consts  --      0.9742                 0.9154                 1.1788
 IR Inten    --      2.0663                 6.7952                 1.7505

                     28                     29                     30
                      A                      A                      A
 Frequencies --   1121.7826              1156.5764              1174.5724
 Red. masses --      1.5836                 1.4739                 2.5529
 Frc consts  --      1.1741                 1.1617                 2.0751
 IR Inten    --      1.6392                 1.2158                 6.9537

                     31                     32                     33
                      A                      A                      A
 Frequencies --   1190.5672              1219.0478              1237.6990
 Red. masses --      1.2847                 1.6346                 1.5720
 Frc consts  --      1.0729                 1.4312                 1.4189
 IR Inten    --      0.2319                41.4043                 7.8106

                     34                     35                     36
                      A                      A                      A
 Frequencies --   1241.6712              1267.5130              1364.5877
 Red. masses --      1.7312                 2.1581                 2.0327
 Frc consts  --      1.5725                 2.0428                 2.2301
 IR Inten    --     10.7867               110.6154                24.5217

                     37                     38                     39
                      A                      A                      A
 Frequencies --   1429.6333              1450.0911              1466.9217
 Red. masses --      1.8387                 1.0953                 1.1305
 Frc consts  --      2.2142                 1.3569                 1.4333
 IR Inten    --     25.1290                 3.3661                 1.2865

                     40                     41                     42
                      A                      A                      A
 Frequencies --   1498.8636              1518.0691              3060.5431
 Red. masses --      1.5089                 1.4905                 1.0572
 Frc consts  --      1.9972                 2.0238                 5.8344
 IR Inten    --      5.2691                 0.8094                26.8761

                     43                     44                     45
                      A                      A                      A
 Frequencies --   3070.3448              3126.6636              3137.9727
 Red. masses --      1.0565                 1.0941                 1.0508
 Frc consts  --      5.8683                 6.3020                 6.0962
 IR Inten    --     29.1500                57.3862                 9.2295

                     46                     47                     48
                      A                      A                      A
 Frequencies --   3140.9920              3147.6567              3157.5076
 Red. masses --      1.0583                 1.1085                 1.1090
 Frc consts  --      6.1517                 6.4710                 6.5143
 IR Inten    --      3.6845                21.3248                21.8853

                     49                     50                     51
                      A                      A                      A
 Frequencies --   3223.7618              3237.6965              3780.8703
 Red. masses --      1.1186                 1.1162                 1.0656
 Frc consts  --      6.8495                 6.8937                 8.9752
 IR Inten    --      0.1221                 9.0173                29.1929

 - Thermochemistry -
 -------------------
 Temperature   298.150 Kelvin.  Pressure   1.00000 Atm.
 Atom     1 has atomic number  8 and mass  15.99491

 Molecular mass:   126.06808 amu.
 Principal axes and moments of inertia in atomic units:
                           1         2         3
     Eigenvalues --   570.822001301.320141448.20863
           X            0.99983  -0.01089  -0.01518
           Y            0.01116   0.99978   0.01802
           Z            0.01498  -0.01819   0.99972
 This molecule is an asymmetric top.
 Rotational symmetry number  1.
 Warning -- assumption of classical behavior for rotation
           may cause significant error
 Rotational temperatures (Kelvin)      0.15174     0.06656     0.05981
 Rotational constants (GHZ):           3.16165     1.38685     1.24619
 Zero-point vibrational energy     415405.8 (Joules/Mol)
                                   99.28436 (Kcal/Mol)
 Warning -- explicit consideration of  11 degrees of freedom as
           vibrations may cause significant error
 Vibrational temperatures:     85.22   218.18   251.22   418.49   482.09
          (Kelvin)            538.02   610.99   709.00   753.73   783.92
                              876.52  1039.67  1103.18  1160.28  1215.22
                             1276.84  1300.68  1344.41  1359.85  1373.89
                             1405.67  1419.21  1437.70  1511.88  1549.49
                             1567.01  1585.84  1613.99  1664.05  1689.95
                             1712.96  1753.94  1780.77  1786.49  1823.67
                             1963.33  2056.92  2086.36  2110.57  2156.53
                             2184.16  4403.43  4417.54  4498.57  4514.84
                             4519.18  4528.77  4542.94  4638.27  4658.32
                             5439.82

 Zero-point correction=                           0.158220 (Hartree/Particle)
 Thermal correction to Energy=                    0.166304
 Thermal correction to Enthalpy=                  0.167249
 Thermal correction to Gibbs Free Energy=         0.125522
 Sum of electronic and zero-point Energies=           -422.939845
 Sum of electronic and thermal Energies=              -422.931760
 Sum of electronic and thermal Enthalpies=            -422.930816
 Sum of electronic and thermal Free Energies=         -422.972543

                     E (Thermal)             CV                S
                      KCal/Mol        Cal/Mol-Kelvin    Cal/Mol-Kelvin
 Total                  104.358             32.175             87.822
 Electronic               0.000              0.000              0.000
 Translational            0.889              2.981             40.409
 Rotational               0.889              2.981             28.466
 Vibrational            102.580             26.213             18.947
 Vibration     1          0.597              1.974              4.483
 Vibration     2          0.619              1.901              2.652
 Vibration     3          0.627              1.874              2.385
 Vibration     4          0.687              1.691              1.469
 Vibration     5          0.716              1.605              1.236
 Vibration     6          0.745              1.526              1.064
 Vibration     7          0.787              1.417              0.876
 Vibration     8          0.848              1.266              0.676
 Vibration     9          0.879              1.197              0.601
 Vibration    10          0.900              1.151              0.555
 Vibration    11          0.968              1.012              0.434

 Optimization completed.
    -- Stationary point found.
 Normal termination of Gaussian 09 at Mon Jan 27 17:16:42 2020.
