 Gaussian 09, Revision D.01,
 Gaussian 09:  ES64L-G09RevD.01 24-Apr-2013

 -----------------------------
 # b3lyp 6-31G(2df,p) opt Freq
 -----------------------------

 -----
 titel
 -----
 Symbolic Z-matrix:
 Charge =  0 Multiplicity = 1

 SCF Done:  E(RB3LYP) =  -423.239767469     A.U. after   14 cycles
 Optimization completed.
    -- Stationary point found.
 Normal termination of Gaussian 09 at Mon Jan 27 12:58:23 2020.

 ----------------------------------------------------------------------
 #N Geom=AllCheck Guess=TCheck SCRF=Check GenChk RB3LYP/6-31G(2df,p) Fr
 eq
 ----------------------------------------------------------------------

 Structure from the checkpoint file:  "/scratch/puck/g09_3ea51e73-e5d2-40b4-82d0-723022691afd/Gau-73376.chk"
 -----
 titel
 -----
 Charge =  0 Multiplicity = 1

                         Standard orientation:
 ---------------------------------------------------------------------
 Center     Atomic      Atomic             Coordinates (Angstroms)
 Number     Number       Type             X           Y           Z
 ---------------------------------------------------------------------
      1          8           0        2.492206    0.701823   -0.646419
      2          6           0        1.615151    0.107733   -0.104958
      3          8           0        1.328863   -1.229760   -0.189155
      4          6           0        0.099227   -1.074641    0.617685
      5          6           0       -1.151648   -1.378235   -0.218926
      6          6           0       -2.180675   -0.235643   -0.222766
      7          6           0       -1.522308    1.103624   -0.576962
      8          6           0       -0.529164    1.522169    0.515749
      9          6           0        0.467620    0.414592    0.859231
     10          1           0        0.175992   -1.711166    1.501076
     11          1           0       -0.814760   -1.555892   -1.245934
     12          1           0       -1.613741   -2.309266    0.123348
     13          1           0       -2.976935   -0.475741   -0.934809
     14          1           0       -2.659770   -0.153449    0.762577
     15          1           0       -1.008240    1.015545   -1.543421
     16          1           0       -2.280696    1.884276   -0.695909
     17          1           0        0.027766    2.418963    0.223522
     18          1           0       -1.091439    1.783472    1.420472
     19          1           0        0.884051    0.569166    1.859353
 ---------------------------------------------------------------------

 SCF Done:  E(RB3LYP) =  -423.239767469     A.U. after    1 cycles

 The electronic state is 1-A.
 Alpha  occ. eigenvalues --  -19.17407 -19.12922 -10.30099 -10.25393 -10.20970
 Alpha  occ. eigenvalues --  -10.19805 -10.19491 -10.19403 -10.19168  -1.09891
 Alpha  occ. eigenvalues --   -1.02628  -0.83652  -0.77003  -0.74651  -0.66108
 Alpha  occ. eigenvalues --   -0.62755  -0.58153  -0.51876  -0.51700  -0.49686
 Alpha  occ. eigenvalues --   -0.46299  -0.45379  -0.44005  -0.43610  -0.40220
 Alpha  occ. eigenvalues --   -0.38476  -0.37668  -0.36912  -0.36279  -0.33811
 Alpha  occ. eigenvalues --   -0.33071  -0.31279  -0.29193  -0.26673
 Alpha virt. eigenvalues --    0.01233   0.06994   0.08023   0.11141   0.11667
 Alpha virt. eigenvalues --    0.12610   0.13049   0.14992   0.15570   0.16188
 Alpha virt. eigenvalues --    0.16510   0.18521   0.20086   0.20410   0.22067

 Mulliken charges:
               1
     1  O   -0.330126
     2  C    0.446421
     3  O   -0.257576
     4  C    0.111204
     5  C   -0.221149
     6  C   -0.195348
     7  C   -0.202624
     8  C   -0.226478
     9  C   -0.205665
    10  H    0.096717
    11  H    0.126664
    12  H    0.104797
    13  H    0.103261
    14  H    0.096609
    15  H    0.111028
    16  H    0.101050
    17  H    0.123039
    18  H    0.103521
    19  H    0.114656
 Sum of Mulliken charges =   0.00000

 Dipole moment (field-independent basis, Debye):
    X=             -3.7460    Y=             -0.1929    Z=              1.9648  Tot=              4.2344
 Quadrupole moment (field-independent basis, Debye-Ang):
   XX=            -60.9793   YY=            -53.3747   ZZ=            -51.4712
   XY=             -0.6771   XZ=              4.0412   YZ=             -0.0497

  Exact polarizability:  81.046   4.240  75.605  -1.834  -1.074  65.033
 Approx polarizability: 112.592   9.113 111.420  -9.027  -3.241 101.777

                      1                      2                      3
                      A                      A                      A
 Frequencies --     78.6076               101.1435               206.9311
 Red. masses --      2.8445                 4.9556                 2.8619
 Frc consts  --      0.0104                 0.0299                 0.0722
 IR Inten    --      1.5693                 1.5958                 1.9090

                      4                      5                      6
                      A                      A                      A
 Frequencies --    320.4359               377.6927               431.5614
 Red. masses --      1.6874                 3.8303                 3.6440
 Frc consts  --      0.1021                 0.3219                 0.3999
 IR Inten    --      0.3493                 2.0449                 0.4502

                      7                      8                      9
                      A                      A                      A
 Frequencies --    458.0322               500.7006               599.9647
 Red. masses --      3.2229                 3.4716                 2.3180
 Frc consts  --      0.3984                 0.5128                 0.4916
 IR Inten    --      1.3705                 3.0171                 1.4756

                     10                     11                     12
                      A                      A                      A
 Frequencies --    669.4065               757.5902               778.8204
 Red. masses --      4.7185                 3.5558                 2.1848
 Frc consts  --      1.2458                 1.2024                 0.7808
 IR Inten    --      1.4932                 0.6621                 0.6307

                     13                     14                     15
                      A                      A                      A
 Frequencies --    790.3765               854.8273               878.2055
 Red. masses --      2.7371                 2.4527                 2.4350
 Frc consts  --      1.0074                 1.0560                 1.1065
 IR Inten    --      6.9899                 2.0691                15.2617

                     16                     17                     18
                      A                      A                      A
 Frequencies --    883.7877               948.5077               954.7721
 Red. masses --      3.1147                 1.8647                 2.5215
 Frc consts  --      1.4334                 0.9884                 1.3543
 IR Inten    --     25.6505                39.6129                 7.6114

                     19                     20                     21
                      A                      A                      A
 Frequencies --   1005.1148              1054.7071              1080.9856
 Red. masses --      2.5101                 1.8313                 1.8972
 Frc consts  --      1.4941                 1.2002                 1.3062
 IR Inten    --      4.5867                 0.8404                19.0438

                     22                     23                     24
                      A                      A                      A
 Frequencies --   1095.8528              1127.2259              1143.2460
 Red. masses --      1.9063                 1.7862                 1.6134
 Frc consts  --      1.3488                 1.3372                 1.2424
 IR Inten    --     26.9142                41.3066                19.6696

                     25                     26                     27
                      A                      A                      A
 Frequencies --   1160.8389              1172.1123              1235.0247
 Red. masses --      2.1211                 1.3451                 1.5304
 Frc consts  --      1.6841                 1.0888                 1.3753
 IR Inten    --     10.4817                14.4528                 4.4322

                     28                     29                     30
                      A                      A                      A
 Frequencies --   1278.0401              1292.0130              1317.4281
 Red. masses --      1.4479                 1.2942                 1.4209
 Frc consts  --      1.3934                 1.2729                 1.4530
 IR Inten    --      8.4245                 1.4237                 9.2673

                     31                     32                     33
                      A                      A                      A
 Frequencies --   1331.1313              1353.8193              1370.0738
 Red. masses --      1.7718                 1.2957                 1.4392
 Frc consts  --      1.8497                 1.3992                 1.5917
 IR Inten    --      5.8481                 0.9896                 6.7269

                     34                     35                     36
                      A                      A                      A
 Frequencies --   1381.5821              1389.0533              1393.7503
 Red. masses --      1.4156                 1.4538                 1.4349
 Frc consts  --      1.5920                 1.6527                 1.6422
 IR Inten    --      7.7309                 4.2294                 1.4371

                     37                     38                     39
                      A                      A                      A
 Frequencies --   1481.5370              1486.6009              1491.9164
 Red. masses --      1.0831                 1.0865                 1.0834
 Frc consts  --      1.4006                 1.4147                 1.4207
 IR Inten    --      2.6762                 3.9158                 7.2254

                     40                     41                     42
                      A                      A                      A
 Frequencies --   1501.1258              1930.6162              3014.6716
 Red. masses --      1.0940                12.8540                 1.0684
 Frc consts  --      1.4524                28.2281                 5.7211
 IR Inten    --      1.7162               411.7775                16.0384

                     43                     44                     45
                      A                      A                      A
 Frequencies --   3023.5204              3029.7894              3045.3619
 Red. masses --      1.0655                 1.0617                 1.0616
 Frc consts  --      5.7387                 5.7419                 5.8010
 IR Inten    --     16.6456                29.4268                11.6627

                     46                     47                     48
                      A                      A                      A
 Frequencies --   3066.2114              3071.5789              3074.0483
 Red. masses --      1.0846                 1.0963                 1.0919
 Frc consts  --      6.0080                 6.0941                 6.0795
 IR Inten    --      8.5905                37.4030                39.6019

                     49                     50                     51
                      A                      A                      A
 Frequencies --   3079.2616              3083.4047              3099.9808
 Red. masses --      1.1030                 1.0975                 1.0949
 Frc consts  --      6.1619                 6.1478                 6.1993
 IR Inten    --     27.5200                 5.9697                53.2982

 - Thermochemistry -
 -------------------
 Temperature   298.150 Kelvin.  Pressure   1.00000 Atm.
 Atom     1 has atomic number  8 and mass  15.99491

 Molecular mass:   126.06808 amu.
 Principal axes and moments of inertia in atomic units:
                           1         2         3
     Eigenvalues --   649.574991197.596611541.20355
           X            0.99981  -0.00223   0.01961
           Y            0.00209   0.99997   0.00697
           Z           -0.01963  -0.00693   0.99978
 This molecule is an asymmetric top.
 Rotational symmetry number  1.
 Warning -- assumption of classical behavior for rotation
           may cause significant error
 Rotational temperatures (Kelvin)      0.13334     0.07232     0.05620
 Rotational constants (GHZ):           2.77834     1.50697     1.17099
 Zero-point vibrational energy     426187.5 (Joules/Mol)
                                  101.86126 (Kcal/Mol)
 Warning -- explicit consideration of   9 degrees of freedom as
           vibrations may cause significant error
 Vibrational temperatures:    113.10   145.52   297.73   461.04   543.41
          (Kelvin)            620.92   659.01   720.40   863.21   963.13
                             1090.00  1120.55  1137.17  1229.90  1263.54
                             1271.57  1364.69  1373.70  1446.13  1517.49
                             1555.30  1576.69  1621.82  1644.87  1670.19
                             1686.41  1776.92  1838.81  1858.92  1895.48
                             1915.20  1947.84  1971.23  1987.79  1998.54
                             2005.29  2131.60  2138.88  2146.53  2159.78
                             2777.72  4337.43  4350.17  4359.19  4381.59
                             4411.59  4419.31  4422.86  4430.37  4436.33
                             4460.18

 Zero-point correction=                           0.162326 (Hartree/Particle)
 Thermal correction to Energy=                    0.169838
 Thermal correction to Enthalpy=                  0.170782
 Thermal correction to Gibbs Free Energy=         0.129912
 Sum of electronic and zero-point Energies=           -423.077441
 Sum of electronic and thermal Energies=              -423.069930
 Sum of electronic and thermal Enthalpies=            -423.068986
 Sum of electronic and thermal Free Energies=         -423.109855

                     E (Thermal)             CV                S
                      KCal/Mol        Cal/Mol-Kelvin    Cal/Mol-Kelvin
 Total                  106.575             29.227             86.017
 Electronic               0.000              0.000              0.000
 Translational            0.889              2.981             40.409
 Rotational               0.889              2.981             28.574
 Vibrational            104.797             23.265             17.035
 Vibration     1          0.600              1.964              3.925
 Vibration     2          0.604              1.948              3.432
 Vibration     3          0.641              1.830              2.071
 Vibration     4          0.706              1.634              1.308
 Vibration     5          0.748              1.518              1.048
 Vibration     6          0.793              1.401              0.854
 Vibration     7          0.816              1.343              0.772
 Vibration     8          0.856              1.248              0.656
 Vibration     9          0.958              1.032              0.450

 Optimization completed.
    -- Stationary point found.
 Normal termination of Gaussian 09 at Mon Jan 27 13:43:28 2020.
