 Gaussian 09, Revision D.01,
 Gaussian 09:  ES64L-G09RevD.01 24-Apr-2013

 -----------------------------
 # b3lyp 6-31G(2df,p) opt Freq
 -----------------------------

 -----
 titel
 -----
 Symbolic Z-matrix:
 Charge =  0 Multiplicity = 1

 SCF Done:  E(RB3LYP) =  -423.194520868     A.U. after   13 cycles
 Optimization completed.
    -- Stationary point found.
 Normal termination of Gaussian 09 at Tue Jan 28 03:59:25 2020.

 ----------------------------------------------------------------------
 #N Geom=AllCheck Guess=TCheck SCRF=Check GenChk RB3LYP/6-31G(2df,p) Fr
 eq
 ----------------------------------------------------------------------

 Structure from the checkpoint file:  "/scratch/puck/g09_1a65b65d-421e-4afa-89f9-1d096fc4f15f/Gau-69801.chk"
 -----
 titel
 -----
 Charge =  0 Multiplicity = 1

                         Standard orientation:
 ---------------------------------------------------------------------
 Center     Atomic      Atomic             Coordinates (Angstroms)
 Number     Number       Type             X           Y           Z
 ---------------------------------------------------------------------
      1          8           0        2.426106    0.015903   -0.034316
      2          6           0        1.152275   -0.017951   -0.655451
      3          6           0        0.382105    1.327854   -0.546059
      4          6           0       -0.954551    1.064275    0.177327
      5          8           0       -1.731494    0.177352   -0.654899
      6          6           0       -1.093238   -1.082184   -0.846838
      7          6           0        0.242792   -1.135536   -0.070138
      8          6           0       -0.056708   -0.783904    1.366651
      9          6           0       -0.680905    0.389848    1.501434
     10          1           0        2.280190    0.201135    0.900728
     11          1           0        1.359918   -0.252369   -1.704143
     12          1           0        0.992277    2.054005   -0.000194
     13          1           0        0.172953    1.745621   -1.535043
     14          1           0       -1.553878    1.970716    0.272905
     15          1           0       -1.767212   -1.877785   -0.504835
     16          1           0       -0.910015   -1.228955   -1.921562
     17          1           0        0.721161   -2.109565   -0.187728
     18          1           0        0.195781   -1.445156    2.188303
     19          1           0       -0.998698    0.821893    2.443727
 ---------------------------------------------------------------------

 SCF Done:  E(RB3LYP) =  -423.194520868     A.U. after    1 cycles

 The electronic state is 1-A.
 Alpha  occ. eigenvalues --  -19.13411 -19.13206 -10.23547 -10.23383 -10.22773
 Alpha  occ. eigenvalues --  -10.19276 -10.18963 -10.18663 -10.18031  -1.02990
 Alpha  occ. eigenvalues --   -1.01484  -0.82827  -0.76923  -0.74287  -0.63856
 Alpha  occ. eigenvalues --   -0.62290  -0.60307  -0.53642  -0.50154  -0.48853
 Alpha  occ. eigenvalues --   -0.47288  -0.44662  -0.42855  -0.42012  -0.40251
 Alpha  occ. eigenvalues --   -0.39608  -0.37926  -0.36547  -0.34785  -0.32008
 Alpha  occ. eigenvalues --   -0.29661  -0.27139  -0.25484  -0.24067
 Alpha virt. eigenvalues --    0.00202   0.08387   0.10397   0.11053   0.11992
 Alpha virt. eigenvalues --    0.13619   0.14232   0.16138   0.17427   0.17465
 Alpha virt. eigenvalues --    0.17855   0.19279   0.20019   0.20455   0.21649

 Mulliken charges:
               1
     1  O   -0.447803
     2  C    0.153939
     3  C   -0.251421
     4  C    0.059968
     5  O   -0.274129
     6  C   -0.069504
     7  C   -0.109904
     8  C   -0.105725
     9  C   -0.070139
    10  H    0.274589
    11  H    0.088930
    12  H    0.101248
    13  H    0.108280
    14  H    0.076645
    15  H    0.099514
    16  H    0.095216
    17  H    0.073479
    18  H    0.097864
    19  H    0.098952
 Sum of Mulliken charges =   0.00000

 Dipole moment (field-independent basis, Debye):
    X=             -0.1383    Y=             -0.0828    Z=              1.2331  Tot=              1.2436
 Quadrupole moment (field-independent basis, Debye-Ang):
   XX=            -62.5048   YY=            -49.5825   ZZ=            -49.7005
   XY=              0.1908   XZ=              0.4913   YZ=              1.3233

  Exact polarizability:  69.721  -3.613  77.265  -0.615   2.155  74.919
 Approx polarizability: 105.422 -11.452 119.712   0.632   4.611 111.029

                      1                      2                      3
                      A                      A                      A
 Frequencies --    119.8603               236.5646               302.4383
 Red. masses --      3.6149                 2.5698                 2.9295
 Frc consts  --      0.0306                 0.0847                 0.1579
 IR Inten    --      3.5830                 2.6061                 0.1353

                      4                      5                      6
                      A                      A                      A
 Frequencies --    365.4695               385.2546               418.5655
 Red. masses --      2.0394                 1.6345                 2.6877
 Frc consts  --      0.1605                 0.1429                 0.2774
 IR Inten    --     17.2496                44.9257                 1.1473

                      7                      8                      9
                      A                      A                      A
 Frequencies --    425.3225               503.2590               597.2547
 Red. masses --      2.9916                 2.8011                 4.7520
 Frc consts  --      0.3189                 0.4180                 0.9987
 IR Inten    --     24.5500                 5.0106                 1.5545

                     10                     11                     12
                      A                      A                      A
 Frequencies --    660.6881               695.4604               739.9404
 Red. masses --      6.3085                 3.2050                 1.6855
 Frc consts  --      1.6224                 0.9133                 0.5437
 IR Inten    --      0.1971                 1.9908                19.9099

                     13                     14                     15
                      A                      A                      A
 Frequencies --    796.2932               836.8725               862.8522
 Red. masses --      3.1470                 3.2360                 2.7303
 Frc consts  --      1.1757                 1.3353                 1.1977
 IR Inten    --     15.3484                13.4558                11.3445

                     16                     17                     18
                      A                      A                      A
 Frequencies --    915.7832               953.3185               970.9408
 Red. masses --      2.3758                 2.0733                 1.8223
 Frc consts  --      1.1739                 1.1101                 1.0122
 IR Inten    --      4.0481                 1.5924                 3.5327

                     19                     20                     21
                      A                      A                      A
 Frequencies --    974.4861               994.1600              1011.3500
 Red. masses --      1.4217                 2.5979                 2.8870
 Frc consts  --      0.7955                 1.5128                 1.7398
 IR Inten    --      2.4502                11.1225                28.3656

                     22                     23                     24
                      A                      A                      A
 Frequencies --   1046.1667              1064.9047              1095.5951
 Red. masses --      2.3725                 5.0943                 2.8600
 Frc consts  --      1.5299                 3.4037                 2.0226
 IR Inten    --     10.0183                62.4081                77.1069

                     25                     26                     27
                      A                      A                      A
 Frequencies --   1118.3602              1139.0517              1179.9159
 Red. masses --      2.0669                 1.1373                 1.1022
 Frc consts  --      1.5231                 0.8694                 0.9041
 IR Inten    --     25.9534                 6.9622                22.7991

                     28                     29                     30
                      A                      A                      A
 Frequencies --   1205.0129              1234.5880              1264.8330
 Red. masses --      1.3329                 1.1850                 1.4766
 Frc consts  --      1.1404                 1.0641                 1.3919
 IR Inten    --      3.1996                 6.3732                19.3097

                     31                     32                     33
                      A                      A                      A
 Frequencies --   1302.1454              1319.2681              1328.7212
 Red. masses --      1.6570                 1.4266                 1.3149
 Frc consts  --      1.6554                 1.4629                 1.3678
 IR Inten    --      2.1100                 6.6443                 0.8264

                     34                     35                     36
                      A                      A                      A
 Frequencies --   1339.8187              1362.7258              1390.6141
 Red. masses --      1.2345                 1.4388                 1.5941
 Frc consts  --      1.3056                 1.5743                 1.8162
 IR Inten    --      1.1693                 2.6788                 9.6922

                     37                     38                     39
                      A                      A                      A
 Frequencies --   1406.1288              1436.7082              1476.4513
 Red. masses --      1.4743                 1.2121                 1.0896
 Frc consts  --      1.7174                 1.4741                 1.3994
 IR Inten    --      4.1317                62.8592                 2.0196

                     40                     41                     42
                      A                      A                      A
 Frequencies --   1520.6186              1671.3049              2991.3346
 Red. masses --      1.0859                 5.8077                 1.0614
 Frc consts  --      1.4794                 9.5580                 5.5957
 IR Inten    --      0.8527                 1.1313                67.8039

                     43                     44                     45
                      A                      A                      A
 Frequencies --   3035.3184              3049.6998              3060.7471
 Red. masses --      1.1030                 1.0638                 1.0829
 Frc consts  --      5.9872                 5.8294                 5.9774
 IR Inten    --     43.5182                16.1911                28.4852

                     46                     47                     48
                      A                      A                      A
 Frequencies --   3096.8299              3100.4453              3104.4667
 Red. masses --      1.0882                 1.1025                 1.0898
 Frc consts  --      6.1486                 6.2445                 6.1882
 IR Inten    --     32.8605                28.4470                23.4804

                     49                     50                     51
                      A                      A                      A
 Frequencies --   3176.9550              3201.0548              3790.4171
 Red. masses --      1.0855                 1.1029                 1.0654
 Frc consts  --      6.4549                 6.6586                 9.0184
 IR Inten    --      6.4812                19.4028                13.9644

 - Thermochemistry -
 -------------------
 Temperature   298.150 Kelvin.  Pressure   1.00000 Atm.
 Atom     1 has atomic number  8 and mass  15.99491

 Molecular mass:   126.06808 amu.
 Principal axes and moments of inertia in atomic units:
                           1         2         3
     Eigenvalues --   688.613341079.556501090.99895
           X            0.99993   0.01166  -0.00024
           Y           -0.01091   0.94272   0.33340
           Z            0.00412  -0.33337   0.94279
 This molecule is an asymmetric top.
 Rotational symmetry number  1.
 Warning -- assumption of classical behavior for rotation
           may cause significant error
 Rotational temperatures (Kelvin)      0.12578     0.08023     0.07939
 Rotational constants (GHZ):           2.62083     1.67174     1.65421
 Zero-point vibrational energy     426327.2 (Joules/Mol)
                                  101.89464 (Kcal/Mol)
 Warning -- explicit consideration of   9 degrees of freedom as
           vibrations may cause significant error
 Vibrational temperatures:    172.45   340.36   435.14   525.83   554.29
          (Kelvin)            602.22   611.94   724.08   859.32   950.58
                             1000.61  1064.61  1145.69  1204.07  1241.45
                             1317.61  1371.61  1396.97  1402.07  1430.37
                             1455.11  1505.20  1532.16  1576.31  1609.07
                             1638.84  1697.63  1733.74  1776.29  1819.81
                             1873.49  1898.13  1911.73  1927.70  1960.66
                             2000.78  2023.10  2067.10  2124.28  2187.83
                             2404.63  4303.86  4367.14  4387.83  4403.73
                             4455.64  4460.84  4466.63  4570.92  4605.60
                             5453.56

 Zero-point correction=                           0.162379 (Hartree/Particle)
 Thermal correction to Energy=                    0.169537
 Thermal correction to Enthalpy=                  0.170481
 Thermal correction to Gibbs Free Energy=         0.131179
 Sum of electronic and zero-point Energies=           -423.032141
 Sum of electronic and thermal Energies=              -423.024984
 Sum of electronic and thermal Enthalpies=            -423.024040
 Sum of electronic and thermal Free Energies=         -423.063342

                     E (Thermal)             CV                S
                      KCal/Mol        Cal/Mol-Kelvin    Cal/Mol-Kelvin
 Total                  106.386             29.670             82.719
 Electronic               0.000              0.000              0.000
 Translational            0.889              2.981             40.409
 Rotational               0.889              2.981             28.186
 Vibrational            104.609             23.709             14.125
 Vibration     1          0.609              1.933              3.103
 Vibration     2          0.655              1.785              1.829
 Vibration     3          0.694              1.669              1.403
 Vibration     4          0.739              1.543              1.099
 Vibration     5          0.754              1.502              1.018
 Vibration     6          0.781              1.430              0.897
 Vibration     7          0.787              1.415              0.874
 Vibration     8          0.859              1.243              0.650
 Vibration     9          0.955              1.038              0.454

 Normal termination of Gaussian 09 at Tue Jan 28 04:50:16 2020.
