 Gaussian 09, Revision D.01,
 Gaussian 09:  ES64L-G09RevD.01 24-Apr-2013

 -----------------------------
 # b3lyp 6-31G(2df,p) opt Freq
 -----------------------------

 -----
 titel
 -----
 Symbolic Z-matrix:
 Charge =  0 Multiplicity = 1

 SCF Done:  E(RB3LYP) =  -423.177779016     A.U. after   13 cycles
 Optimization completed.
    -- Stationary point found.
 Normal termination of Gaussian 09 at Mon Jan 27 13:41:39 2020.

 ----------------------------------------------------------------------
 #N Geom=AllCheck Guess=TCheck SCRF=Check GenChk RB3LYP/6-31G(2df,p) Fr
 eq
 ----------------------------------------------------------------------

 Structure from the checkpoint file:  "/scratch/puck/g09_21507c69-2183-4b95-b725-c2837339a225/Gau-169571.chk"
 -----
 titel
 -----
 Charge =  0 Multiplicity = 1

                         Standard orientation:
 ---------------------------------------------------------------------
 Center     Atomic      Atomic             Coordinates (Angstroms)
 Number     Number       Type             X           Y           Z
 ---------------------------------------------------------------------
      1          8           0        3.268722   -0.368291    0.826101
      2          6           0        2.900352   -0.469988   -0.310719
      3          8           0        1.661441   -0.236461   -0.773580
      4          6           0        0.696028    0.186427    0.180760
      5          6           0        0.159392    1.581737    0.052004
      6          6           0       -0.688531    0.384429   -0.347309
      7          6           0       -1.879550   -0.032887    0.454411
      8          6           0       -2.714071   -1.214434    0.023435
      9          6           0       -3.273068    0.183169   -0.083287
     10          1           0        3.530163   -0.786666   -1.156380
     11          1           0        0.855916   -0.238279    1.164023
     12          1           0       -0.083409    2.115604    0.964862
     13          1           0        0.563128    2.196441   -0.744367
     14          1           0       -0.784745    0.234545   -1.419903
     15          1           0       -1.760156    0.099207    1.527003
     16          1           0       -2.435290   -1.720414   -0.895051
     17          1           0       -3.109458   -1.872897    0.788809
     18          1           0       -3.368531    0.616598   -1.073455
     19          1           0       -4.052240    0.483157    0.608514
 ---------------------------------------------------------------------

 SCF Done:  E(RB3LYP) =  -423.177779016     A.U. after    1 cycles

 The electronic state is 1-A.
 Alpha  occ. eigenvalues --  -19.19242 -19.13285 -10.30815 -10.24595 -10.20179
 Alpha  occ. eigenvalues --  -10.19848 -10.19208 -10.18734 -10.18708  -1.10749
 Alpha  occ. eigenvalues --   -1.02367  -0.87933  -0.84333  -0.67882  -0.64007
 Alpha  occ. eigenvalues --   -0.60183  -0.57827  -0.56962  -0.52766  -0.49989
 Alpha  occ. eigenvalues --   -0.47994  -0.47012  -0.45703  -0.43608  -0.41150
 Alpha  occ. eigenvalues --   -0.37609  -0.36685  -0.35591  -0.34690  -0.33956
 Alpha  occ. eigenvalues --   -0.30420  -0.28156  -0.27300  -0.25940
 Alpha virt. eigenvalues --    0.00905   0.07977   0.09213   0.11177   0.11895
 Alpha virt. eigenvalues --    0.13447   0.14015   0.14308   0.14752   0.16827
 Alpha virt. eigenvalues --    0.17801   0.19001   0.20780   0.22336   0.22728

 Mulliken charges:
               1
     1  O   -0.300231
     2  C    0.180108
     3  O   -0.214321
     4  C    0.120839
     5  C   -0.323912
     6  C   -0.053660
     7  C    0.016595
     8  C   -0.269443
     9  C   -0.268930
    10  H    0.109789
    11  H    0.127480
    12  H    0.121731
    13  H    0.123096
    14  H    0.095321
    15  H    0.081576
    16  H    0.114227
    17  H    0.114022
    18  H    0.112687
    19  H    0.113026
 Sum of Mulliken charges =   0.00000

 Dipole moment (field-independent basis, Debye):
    X=             -1.7996    Y=              0.2617    Z=             -1.0921  Tot=              2.1212
 Quadrupole moment (field-independent basis, Debye-Ang):
   XX=            -58.0569   YY=            -52.2970   ZZ=            -52.2332
   XY=              0.0399   XZ=             -7.0046   YZ=              0.4359

  Exact polarizability:  98.764  -1.406  68.825   0.148   1.185  67.948
 Approx polarizability: 119.357  -2.536  99.783   6.804   2.197 110.177

                      1                      2                      3
                      A                      A                      A
 Frequencies --     21.7832                63.5936               129.5082
 Red. masses --      6.9438                 2.9332                 3.4990
 Frc consts  --      0.0019                 0.0070                 0.0346
 IR Inten    --      1.4003                 0.1715                 2.2087

                      4                      5                      6
                      A                      A                      A
 Frequencies --    143.9163               241.5522               271.5609
 Red. masses --      3.1133                 4.1278                 2.3295
 Frc consts  --      0.0380                 0.1419                 0.1012
 IR Inten    --      2.0353                 3.6546                 6.4530

                      7                      8                      9
                      A                      A                      A
 Frequencies --    335.5190               388.5989               416.0704
 Red. masses --      3.6242                 3.3118                 2.9722
 Frc consts  --      0.2404                 0.2947                 0.3032
 IR Inten    --      0.1422                 3.7091                 7.9644

                     10                     11                     12
                      A                      A                      A
 Frequencies --    489.1799               748.8588               753.5393
 Red. masses --      2.3185                 1.5725                 2.5737
 Frc consts  --      0.3269                 0.5196                 0.8610
 IR Inten    --      6.8816                 0.7836                 0.9658

                     13                     14                     15
                      A                      A                      A
 Frequencies --    802.3379               820.0926               838.4712
 Red. masses --      1.1986                 1.2968                 2.6025
 Frc consts  --      0.4546                 0.5139                 1.0780
 IR Inten    --      0.2916                 4.6489                10.0824

                     16                     17                     18
                      A                      A                      A
 Frequencies --    887.9779               919.8121               971.4943
 Red. masses --      2.5098                 3.1996                 2.6092
 Frc consts  --      1.1660                 1.5949                 1.4509
 IR Inten    --      9.1917                14.0301                23.5591

                     19                     20                     21
                      A                      A                      A
 Frequencies --    975.0157              1012.8143              1028.5629
 Red. masses --      2.7492                 2.1811                 1.4738
 Frc consts  --      1.5399                 1.3182                 0.9187
 IR Inten    --      0.7549                 3.4656                 1.7114

                     22                     23                     24
                      A                      A                      A
 Frequencies --   1042.5725              1059.7162              1068.0434
 Red. masses --      1.5818                 1.3571                 1.6788
 Frc consts  --      1.0130                 0.8979                 1.1283
 IR Inten    --      0.4639                 3.1679                 1.8688

                     25                     26                     27
                      A                      A                      A
 Frequencies --   1077.6071              1099.2894              1132.7395
 Red. masses --      1.3457                 1.2021                 1.1654
 Frc consts  --      0.9207                 0.8559                 0.8810
 IR Inten    --      1.0897                 0.5077                 0.4040

                     28                     29                     30
                      A                      A                      A
 Frequencies --   1150.8213              1198.0946              1205.4786
 Red. masses --      1.5462                 1.3865                 5.0247
 Frc consts  --      1.2065                 1.1726                 4.3021
 IR Inten    --      2.0249                 0.5903               342.2856

                     31                     32                     33
                      A                      A                      A
 Frequencies --   1221.5800              1232.7163              1241.4666
 Red. masses --      2.3631                 1.5669                 2.3166
 Frc consts  --      2.0777                 1.4029                 2.1037
 IR Inten    --      2.6901                38.8323                76.6699

                     34                     35                     36
                      A                      A                      A
 Frequencies --   1301.6891              1382.2845              1410.8077
 Red. masses --      1.2689                 1.4004                 1.1571
 Frc consts  --      1.2668                 1.5765                 1.3569
 IR Inten    --      9.8303                 9.5965                 1.3637

                     37                     38                     39
                      A                      A                      A
 Frequencies --   1447.2726              1469.7791              1489.9369
 Red. masses --      1.3019                 1.0865                 1.5820
 Frc consts  --      1.6067                 1.3829                 2.0692
 IR Inten    --      2.1033                 1.2941                 8.8121

                     40                     41                     42
                      A                      A                      A
 Frequencies --   1510.6685              1824.0347              3030.7331
 Red. masses --      1.6740                 9.5176                 1.0907
 Frc consts  --      2.2508                18.6571                 5.9026
 IR Inten    --      4.2478               324.2402                67.7082

                     43                     44                     45
                      A                      A                      A
 Frequencies --   3129.7087              3130.6117              3134.4858
 Red. masses --      1.0784                 1.0509                 1.0555
 Frc consts  --      6.2238                 6.0681                 6.1101
 IR Inten    --      5.5322                20.4580                11.9836

                     46                     47                     48
                      A                      A                      A
 Frequencies --   3136.6748              3144.8465              3193.4519
 Red. masses --      1.0665                 1.0880                 1.0900
 Frc consts  --      6.1824                 6.3399                 6.5494
 IR Inten    --      3.1277                10.9932                 3.1977

                     49                     50                     51
                      A                      A                      A
 Frequencies --   3209.0102              3224.1039              3226.7361
 Red. masses --      1.1179                 1.1154                 1.1160
 Frc consts  --      6.7826                 6.8315                 6.8458
 IR Inten    --      0.2203                18.9155                 7.1317

 - Thermochemistry -
 -------------------
 Temperature   298.150 Kelvin.  Pressure   1.00000 Atm.
 Atom     1 has atomic number  8 and mass  15.99491

 Molecular mass:   126.06808 amu.
 Principal axes and moments of inertia in atomic units:
                           1         2         3
     Eigenvalues --   395.966582446.174282573.53139
           X            0.99996   0.00632  -0.00684
           Y           -0.00622   0.99987   0.01458
           Z            0.00693  -0.01454   0.99987
 This molecule is an asymmetric top.
 Rotational symmetry number  1.
 Rotational temperatures (Kelvin)      0.21874     0.03541     0.03366
 Rotational constants (GHZ):           4.55781     0.73778     0.70127
 Zero-point vibrational energy     415027.7 (Joules/Mol)
                                   99.19401 (Kcal/Mol)
 Warning -- explicit consideration of  10 degrees of freedom as
           vibrations may cause significant error
 Vibrational temperatures:     31.34    91.50   186.33   207.06   347.54
          (Kelvin)            390.72   482.74   559.11   598.63   703.82
                             1077.44  1084.17  1154.38  1179.93  1206.37
                             1277.60  1323.40  1397.76  1402.83  1457.21
                             1479.87  1500.03  1524.69  1536.67  1550.43
                             1581.63  1629.76  1655.77  1723.79  1734.41
                             1757.58  1773.60  1786.19  1872.84  1988.80
                             2029.84  2082.30  2114.68  2143.68  2173.51
                             2624.38  4360.54  4502.95  4504.25  4509.82
                             4512.97  4524.73  4594.66  4617.04  4638.76
                             4642.55

 Zero-point correction=                           0.158076 (Hartree/Particle)
 Thermal correction to Energy=                    0.167096
 Thermal correction to Enthalpy=                  0.168040
 Thermal correction to Gibbs Free Energy=         0.122461
 Sum of electronic and zero-point Energies=           -423.019703
 Sum of electronic and thermal Energies=              -423.010683
 Sum of electronic and thermal Enthalpies=            -423.009739
 Sum of electronic and thermal Free Energies=         -423.055318

                     E (Thermal)             CV                S
                      KCal/Mol        Cal/Mol-Kelvin    Cal/Mol-Kelvin
 Total                  104.854             32.603             95.930
 Electronic               0.000              0.000              0.000
 Translational            0.889              2.981             40.409
 Rotational               0.889              2.981             29.301
 Vibrational            103.077             26.641             26.221
 Vibration     1          0.593              1.985              6.465
 Vibration     2          0.597              1.972              4.342
 Vibration     3          0.612              1.924              2.953
 Vibration     4          0.616              1.909              2.751
 Vibration     5          0.658              1.777              1.791
 Vibration     6          0.675              1.726              1.586
 Vibration     7          0.717              1.605              1.233
 Vibration     8          0.757              1.495              1.006
 Vibration     9          0.779              1.435              0.905
 Vibration    10          0.845              1.274              0.686

 Optimization completed.
    -- Stationary point found.
 Normal termination of Gaussian 09 at Mon Jan 27 14:15:20 2020.
