 Gaussian 09, Revision D.01,
 Gaussian 09:  ES64L-G09RevD.01 24-Apr-2013

 -----------------------------
 # b3lyp 6-31G(2df,p) opt Freq
 -----------------------------

 -----
 titel
 -----
 Symbolic Z-matrix:
 Charge =  0 Multiplicity = 1

 SCF Done:  E(RB3LYP) =  -423.113314193     A.U. after   13 cycles
 Optimization completed.
    -- Stationary point found.
 Normal termination of Gaussian 09 at Tue Jan 28 10:19:17 2020.

 ----------------------------------------------------------------------
 #N Geom=AllCheck Guess=TCheck SCRF=Check GenChk RB3LYP/6-31G(2df,p) Fr
 eq
 ----------------------------------------------------------------------

 Structure from the checkpoint file:  "/scratch/puck/g09_d65dfb06-1580-4172-93e8-91008323d925/Gau-916.chk"
 -----
 titel
 -----
 Charge =  0 Multiplicity = 1

                         Standard orientation:
 ---------------------------------------------------------------------
 Center     Atomic      Atomic             Coordinates (Angstroms)
 Number     Number       Type             X           Y           Z
 ---------------------------------------------------------------------
      1          6           0        2.509288   -0.272717   -0.515186
      2          8           0        1.641809   -0.210349    0.613011
      3          6           0        0.315148   -0.400868    0.277825
      4          6           0       -0.377724   -1.616285   -0.325142
      5          6           0       -1.687765   -0.876085    0.084290
      6          6           0       -1.744856    0.393909   -0.824219
      7          6           0       -0.536535    0.847634   -0.034655
      8          8           0        0.038390    2.098615   -0.075396
      9          6           0       -0.864498   -0.045234    1.152978
     10          1           0        2.233432    0.468093   -1.277205
     11          1           0        3.517526   -0.063569   -0.151755
     12          1           0        2.494322   -1.270652   -0.972421
     13          1           0       -0.241172   -1.849242   -1.387624
     14          1           0       -0.215696   -2.513066    0.280755
     15          1           0       -2.591618   -1.437824    0.301604
     16          1           0       -1.647823    0.250455   -1.907012
     17          1           0       -2.626015    1.004595   -0.606598
     18          1           0        0.922146    2.012622    0.306987
     19          1           0       -0.965049    0.110343    2.217009
 ---------------------------------------------------------------------

 SCF Done:  E(RB3LYP) =  -423.113314193     A.U. after    1 cycles

 The electronic state is 1-A.
 Alpha  occ. eigenvalues --  -19.15964 -19.14487 -10.23454 -10.23433 -10.23263
 Alpha  occ. eigenvalues --  -10.20069 -10.18539 -10.18202 -10.18064  -1.05609
 Alpha  occ. eigenvalues --   -1.02651  -0.91866  -0.72850  -0.71376  -0.68024
 Alpha  occ. eigenvalues --   -0.62145  -0.55850  -0.53672  -0.52715  -0.48995
 Alpha  occ. eigenvalues --   -0.46596  -0.45420  -0.44036  -0.43111  -0.39583
 Alpha  occ. eigenvalues --   -0.38739  -0.37031  -0.35240  -0.33185  -0.32392
 Alpha  occ. eigenvalues --   -0.31451  -0.29220  -0.24189  -0.21496
 Alpha virt. eigenvalues --    0.07339   0.10049   0.11308   0.13002   0.13222
 Alpha virt. eigenvalues --    0.13736   0.14296   0.14633   0.15561   0.16589
 Alpha virt. eigenvalues --    0.16954   0.18111   0.19316   0.20372   0.22544

 Mulliken charges:
               1
     1  C   -0.270972
     2  O   -0.299360
     3  C    0.359878
     4  C   -0.306801
     5  C   -0.068030
     6  C   -0.280555
     7  C    0.373746
     8  O   -0.477340
     9  C   -0.258874
    10  H    0.121625
    11  H    0.130423
    12  H    0.122776
    13  H    0.088891
    14  H    0.103105
    15  H    0.080974
    16  H    0.087379
    17  H    0.106099
    18  H    0.287718
    19  H    0.099316
 Sum of Mulliken charges =   0.00000

 Dipole moment (field-independent basis, Debye):
    X=              0.6675    Y=             -1.2452    Z=             -0.5078  Tot=              1.5013
 Quadrupole moment (field-independent basis, Debye-Ang):
   XX=            -48.5049   YY=            -56.1789   ZZ=            -53.0208
   XY=              2.3660   XZ=             -2.2624   YZ=              1.5961

  Exact polarizability:  84.284   0.586  73.376  -1.143   0.266  67.147
 Approx polarizability: 113.847   0.900 108.863  -1.297  -1.224 105.712

                      1                      2                      3
                      A                      A                      A
 Frequencies --     88.3782               164.8516               185.5313
 Red. masses --      2.8950                 2.4563                 1.3100
 Frc consts  --      0.0133                 0.0393                 0.0266
 IR Inten    --      7.2132                 4.4160                 0.2437

                      4                      5                      6
                      A                      A                      A
 Frequencies --    244.5494               286.4001               376.9830
 Red. masses --      3.0971                 3.3637                 1.1573
 Frc consts  --      0.1091                 0.1626                 0.0969
 IR Inten    --     12.9830                 5.1022                69.3052

                      7                      8                      9
                      A                      A                      A
 Frequencies --    416.4865               428.0077               450.0471
 Red. masses --      2.3692                 1.9185                 3.2565
 Frc consts  --      0.2421                 0.2071                 0.3886
 IR Inten    --      1.4519                 3.3949                 4.7684

                     10                     11                     12
                      A                      A                      A
 Frequencies --    481.0742               652.0005               661.1720
 Red. masses --      3.6209                 3.6126                 4.1196
 Frc consts  --      0.4937                 0.9048                 1.0610
 IR Inten    --      1.5118                20.6702                 3.6795

                     13                     14                     15
                      A                      A                      A
 Frequencies --    679.5920               791.8599               804.7475
 Red. masses --      4.0030                 2.8629                 2.1919
 Frc consts  --      1.0893                 1.0577                 0.8364
 IR Inten    --      9.6836                 5.2129                 1.4478

                     16                     17                     18
                      A                      A                      A
 Frequencies --    869.0617               874.2339               918.7340
 Red. masses --      2.2137                 1.6434                 2.1689
 Frc consts  --      0.9851                 0.7400                 1.0786
 IR Inten    --      2.1011                 2.3192                 4.1962

                     19                     20                     21
                      A                      A                      A
 Frequencies --    981.8220               996.0530              1035.2413
 Red. masses --      1.4680                 3.3999                 4.1953
 Frc consts  --      0.8338                 1.9874                 2.6491
 IR Inten    --      2.8042                11.1672                39.2677

                     22                     23                     24
                      A                      A                      A
 Frequencies --   1066.2742              1074.8094              1094.6581
 Red. masses --      1.7409                 2.5660                 2.0096
 Frc consts  --      1.1662                 1.7465                 1.4188
 IR Inten    --      1.8077                11.1541                30.0377

                     25                     26                     27
                      A                      A                      A
 Frequencies --   1113.3202              1139.0953              1146.1122
 Red. masses --      1.3529                 1.8605                 1.3981
 Frc consts  --      0.9880                 1.4224                 1.0820
 IR Inten    --     13.9077                17.0459                 7.5783

                     28                     29                     30
                      A                      A                      A
 Frequencies --   1181.4233              1200.1122              1205.3230
 Red. masses --      1.2867                 1.5313                 1.6171
 Frc consts  --      1.0582                 1.2994                 1.3841
 IR Inten    --      2.2288                 6.6325                24.4584

                     31                     32                     33
                      A                      A                      A
 Frequencies --   1244.4519              1257.3191              1273.2255
 Red. masses --      1.6657                 1.9170                 1.8017
 Frc consts  --      1.5199                 1.7855                 1.7209
 IR Inten    --     31.7880                30.9747                24.0276

                     34                     35                     36
                      A                      A                      A
 Frequencies --   1329.3402              1409.9527              1421.1483
 Red. masses --      2.5738                 3.6224                 2.2305
 Frc consts  --      2.6797                 4.2428                 2.6542
 IR Inten    --    107.2885                88.7149                65.5013

                     37                     38                     39
                      A                      A                      A
 Frequencies --   1479.9657              1489.4129              1498.9063
 Red. masses --      1.1808                 1.0502                 1.2486
 Frc consts  --      1.5239                 1.3727                 1.6528
 IR Inten    --      2.5257                 6.2405                 4.5692

                     40                     41                     42
                      A                      A                      A
 Frequencies --   1509.3610              1512.4290              3003.0798
 Red. masses --      1.0627                 1.2185                 1.0337
 Frc consts  --      1.4264                 1.6423                 5.4925
 IR Inten    --      5.8836                15.6762                38.2143

                     43                     44                     45
                      A                      A                      A
 Frequencies --   3026.2157              3032.5431              3061.9801
 Red. masses --      1.0595                 1.0587                 1.1045
 Frc consts  --      5.7166                 5.7362                 6.1015
 IR Inten    --     40.9938                65.1174                38.8462

                     46                     47                     48
                      A                      A                      A
 Frequencies --   3090.6261              3093.5190              3126.8774
 Red. masses --      1.1049                 1.1052                 1.1000
 Frc consts  --      6.2184                 6.2317                 6.3367
 IR Inten    --     23.8332                30.7640                25.9739

                     49                     50                     51
                      A                      A                      A
 Frequencies --   3156.9724              3227.1652              3757.0712
 Red. masses --      1.0917                 1.0971                 1.0650
 Frc consts  --      6.4108                 6.7320                 8.8570
 IR Inten    --     26.7277                 3.1274                31.2377

 - Thermochemistry -
 -------------------
 Temperature   298.150 Kelvin.  Pressure   1.00000 Atm.
 Atom     1 has atomic number  6 and mass  12.00000

 Molecular mass:   126.06808 amu.
 Principal axes and moments of inertia in atomic units:
                           1         2         3
     Eigenvalues --   690.036531057.939931395.69393
           X            0.99979   0.01069  -0.01726
           Y           -0.01035   0.99975   0.02006
           Z            0.01747  -0.01988   0.99965
 This molecule is an asymmetric top.
 Rotational symmetry number  1.
 Warning -- assumption of classical behavior for rotation
           may cause significant error
 Rotational temperatures (Kelvin)      0.12552     0.08187     0.06206
 Rotational constants (GHZ):           2.61543     1.70590     1.29308
 Zero-point vibrational energy     416357.4 (Joules/Mol)
                                   99.51180 (Kcal/Mol)
 Warning -- explicit consideration of  10 degrees of freedom as
           vibrations may cause significant error
 Vibrational temperatures:    127.16   237.18   266.94   351.85   412.07
          (Kelvin)            542.39   599.23   615.81   647.52   692.16
                              938.08   951.28   977.78  1139.31  1157.85
                             1250.38  1257.83  1321.85  1412.62  1433.10
                             1489.48  1534.13  1546.41  1574.97  1601.82
                             1638.90  1649.00  1699.80  1726.69  1734.19
                             1790.49  1809.00  1831.89  1912.62  2028.60
                             2044.71  2129.34  2142.93  2156.59  2171.63
                             2176.05  4320.76  4354.04  4363.15  4405.50
                             4446.72  4450.88  4498.87  4542.17  4643.17
                             5405.58

 Zero-point correction=                           0.158582 (Hartree/Particle)
 Thermal correction to Energy=                    0.166825
 Thermal correction to Enthalpy=                  0.167769
 Thermal correction to Gibbs Free Energy=         0.126066
 Sum of electronic and zero-point Energies=           -422.954732
 Sum of electronic and thermal Energies=              -422.946489
 Sum of electronic and thermal Enthalpies=            -422.945545
 Sum of electronic and thermal Free Energies=         -422.987248

                     E (Thermal)             CV                S
                      KCal/Mol        Cal/Mol-Kelvin    Cal/Mol-Kelvin
 Total                  104.684             32.334             87.771
 Electronic               0.000              0.000              0.000
 Translational            0.889              2.981             40.409
 Rotational               0.889              2.981             28.412
 Vibrational            102.907             26.372             18.950
 Vibration     1          0.601              1.957              3.696
 Vibration     2          0.623              1.886              2.493
 Vibration     3          0.632              1.860              2.272
 Vibration     4          0.660              1.772              1.770
 Vibration     5          0.684              1.699              1.495
 Vibration     6          0.748              1.519              1.051
 Vibration     7          0.780              1.434              0.904
 Vibration     8          0.790              1.409              0.865
 Vibration     9          0.809              1.361              0.796
 Vibration    10          0.837              1.292              0.707

 Optimization completed.
    -- Stationary point found.
 Normal termination of Gaussian 09 at Tue Jan 28 12:20:08 2020.
