 Gaussian 09, Revision D.01,
 Gaussian 09:  ES64L-G09RevD.01 24-Apr-2013

 -----------------------------
 # b3lyp 6-31G(2df,p) opt Freq
 -----------------------------

 -----
 titel
 -----
 Symbolic Z-matrix:
 Charge =  0 Multiplicity = 1

 SCF Done:  E(RB3LYP) =  -423.125139686     A.U. after   14 cycles
 Optimization completed.
    -- Stationary point found.
 Normal termination of Gaussian 09 at Tue Jan 28 08:57:31 2020.

 ----------------------------------------------------------------------
 #N Geom=AllCheck Guess=TCheck SCRF=Check GenChk RB3LYP/6-31G(2df,p) Fr
 eq
 ----------------------------------------------------------------------

 Structure from the checkpoint file:  "/scratch/puck/g09_ed347030-a8e4-452d-9cea-20553e4e6c1d/Gau-129744.chk"
 -----
 titel
 -----
 Charge =  0 Multiplicity = 1

                         Standard orientation:
 ---------------------------------------------------------------------
 Center     Atomic      Atomic             Coordinates (Angstroms)
 Number     Number       Type             X           Y           Z
 ---------------------------------------------------------------------
      1          8           0       -2.148423   -1.563866   -0.320683
      2          6           0       -1.146367   -1.171548    0.591977
      3          6           0       -0.369824    0.086742    0.157835
      4          6           0        0.636411   -0.207980   -1.013124
      5          6           0        1.770186   -0.365103    0.038299
      6          8           0        2.983491    0.311751   -0.185382
      7          6           0        0.875300    0.331751    1.080958
      8          6           0       -1.261658    1.216252   -0.033693
      9          6           0       -1.979797    2.169214   -0.183398
     10          1           0       -1.735194   -1.707947   -1.178321
     11          1           0       -1.662495   -0.966590    1.535244
     12          1           0       -0.427223   -1.986286    0.777698
     13          1           0        0.414950   -1.059045   -1.666126
     14          1           0        0.804188    0.680727   -1.623955
     15          1           0        1.947575   -1.419776    0.289324
     16          1           0        3.498935   -0.187045   -0.827285
     17          1           0        0.834099   -0.089408    2.088516
     18          1           0        1.121920    1.393076    1.138684
     19          1           0       -2.622799    3.003245   -0.318385
 ---------------------------------------------------------------------

 SCF Done:  E(RB3LYP) =  -423.125139686     A.U. after    1 cycles

 The electronic state is 1-A.
 Alpha  occ. eigenvalues --  -19.14353 -19.13775 -10.24087 -10.23312 -10.21820
 Alpha  occ. eigenvalues --  -10.19083 -10.18837 -10.17418 -10.16665  -1.02716
 Alpha  occ. eigenvalues --   -1.02087  -0.85884  -0.74717  -0.70418  -0.67572
 Alpha  occ. eigenvalues --   -0.63655  -0.56948  -0.54273  -0.51329  -0.50270
 Alpha  occ. eigenvalues --   -0.49071  -0.45336  -0.43607  -0.40955  -0.39741
 Alpha  occ. eigenvalues --   -0.38430  -0.36612  -0.34575  -0.32847  -0.31413
 Alpha  occ. eigenvalues --   -0.27917  -0.26982  -0.25641  -0.25192
 Alpha virt. eigenvalues --    0.04895   0.05305   0.06225   0.07795   0.10058
 Alpha virt. eigenvalues --    0.11200   0.13465   0.14073   0.14582   0.15850
 Alpha virt. eigenvalues --    0.17462   0.19703   0.20296   0.20743   0.21346

 Mulliken charges:
               1
     1  O   -0.410890
     2  C   -0.103402
     3  C    0.071800
     4  C   -0.307746
     5  C    0.139881
     6  O   -0.428703
     7  C   -0.279944
     8  C    0.284556
     9  C   -0.441391
    10  H    0.283408
    11  H    0.120158
    12  H    0.083830
    13  H    0.084921
    14  H    0.123702
    15  H    0.070113
    16  H    0.283250
    17  H    0.106385
    18  H    0.129254
    19  H    0.190816
 Sum of Mulliken charges =   0.00000

 Dipole moment (field-independent basis, Debye):
    X=              1.6976    Y=             -1.2326    Z=             -1.0676  Tot=              2.3539
 Quadrupole moment (field-independent basis, Debye-Ang):
   XX=            -57.2470   YY=            -51.5124   ZZ=            -49.8135
   XY=             -7.7160   XZ=             -2.6578   YZ=              1.2969

  Exact polarizability:  87.220 -12.476  80.633   0.351  -0.995  65.807
 Approx polarizability: 120.060 -22.079 122.922   2.116  -2.160  97.958

                      1                      2                      3
                      A                      A                      A
 Frequencies --     77.7908               111.5379               163.6302
 Red. masses --      4.1923                 3.5583                 3.6696
 Frc consts  --      0.0149                 0.0261                 0.0579
 IR Inten    --      0.3926                 1.9626                 2.5694

                      4                      5                      6
                      A                      A                      A
 Frequencies --    169.8877               216.3835               270.3310
 Red. masses --      3.0750                 1.8489                 1.2030
 Frc consts  --      0.0523                 0.0510                 0.0518
 IR Inten    --      4.5618                11.7864               119.0459

                      7                      8                      9
                      A                      A                      A
 Frequencies --    275.5474               332.0921               358.4560
 Red. masses --      1.5872                 2.1169                 4.1363
 Frc consts  --      0.0710                 0.1375                 0.3131
 IR Inten    --     35.8562                54.9935                 3.6539

                     10                     11                     12
                      A                      A                      A
 Frequencies --    408.5924               457.2683               500.3662
 Red. masses --      3.3049                 2.1446                 4.5712
 Frc consts  --      0.3251                 0.2642                 0.6743
 IR Inten    --      5.6281                 5.2108                 5.1945

                     13                     14                     15
                      A                      A                      A
 Frequencies --    546.6216               621.4222               626.0498
 Red. masses --      4.4319                 1.4145                 1.2778
 Frc consts  --      0.7802                 0.3218                 0.2951
 IR Inten    --      1.5848                25.8531                34.6381

                     16                     17                     18
                      A                      A                      A
 Frequencies --    635.3641               730.4743               830.8886
 Red. masses --      2.3667                 3.1947                 1.3932
 Frc consts  --      0.5629                 1.0044                 0.5667
 IR Inten    --     30.0714                 5.1762                 2.1965

                     19                     20                     21
                      A                      A                      A
 Frequencies --    889.5382               904.8552               940.8361
 Red. masses --      2.3346                 2.2616                 2.5142
 Frc consts  --      1.0884                 1.0910                 1.3112
 IR Inten    --      5.6162                 5.2435                 1.4550

                     22                     23                     24
                      A                      A                      A
 Frequencies --    984.2132              1027.1035              1065.7629
 Red. masses --      2.6013                 2.4748                 2.9348
 Frc consts  --      1.4846                 1.5382                 1.9641
 IR Inten    --     11.0162                 8.0435               151.2822

                     25                     26                     27
                      A                      A                      A
 Frequencies --   1071.0717              1092.5050              1143.6890
 Red. masses --      1.3435                 2.7453                 2.7069
 Frc consts  --      0.9081                 1.9306                 2.0861
 IR Inten    --     29.7152                17.5335                 8.2960

                     28                     29                     30
                      A                      A                      A
 Frequencies --   1180.4747              1224.3714              1235.2230
 Red. masses --      1.8035                 1.3959                 1.3880
 Frc consts  --      1.4807                 1.2329                 1.2477
 IR Inten    --      7.4921                 2.3648                11.9200

                     31                     32                     33
                      A                      A                      A
 Frequencies --   1249.9716              1271.3262              1300.8178
 Red. masses --      1.4034                 1.5131                 2.0137
 Frc consts  --      1.2919                 1.4409                 2.0076
 IR Inten    --     58.9176                 0.4573                10.4410

                     34                     35                     36
                      A                      A                      A
 Frequencies --   1324.4035              1382.4069              1417.2216
 Red. masses --      1.4099                 1.2407                 1.2343
 Frc consts  --      1.4571                 1.3970                 1.4606
 IR Inten    --     58.2450                 6.9499                52.5660

                     37                     38                     39
                      A                      A                      A
 Frequencies --   1430.5712              1465.3058              1490.9749
 Red. masses --      1.3940                 1.0890                 1.1511
 Frc consts  --      1.6808                 1.3776                 1.5076
 IR Inten    --      8.0935                 7.1281                 4.2815

                     40                     41                     42
                      A                      A                      A
 Frequencies --   1501.6729              2232.5963              2968.8780
 Red. masses --      1.0843                 5.9763                 1.0706
 Frc consts  --      1.4406                17.5510                 5.5600
 IR Inten    --      1.1473                 2.9077                46.4551

                     43                     44                     45
                      A                      A                      A
 Frequencies --   3001.2157              3043.6274              3069.8923
 Red. masses --      1.0842                 1.0644                 1.0609
 Frc consts  --      5.7540                 5.8094                 5.8906
 IR Inten    --     59.5762                42.6003                18.2239

                     46                     47                     48
                      A                      A                      A
 Frequencies --   3079.8137              3125.4143              3136.9835
 Red. masses --      1.0920                 1.1017                 1.1063
 Frc consts  --      6.1024                 6.3403                 6.4142
 IR Inten    --     25.0915                12.6448                14.4395

                     49                     50                     51
                      A                      A                      A
 Frequencies --   3503.2899              3812.1836              3816.3183
 Red. masses --      1.1609                 1.0657                 1.0661
 Frc consts  --      8.3943                 9.1253                 9.1484
 IR Inten    --     69.7567                11.9508                24.5667

 - Thermochemistry -
 -------------------
 Temperature   298.150 Kelvin.  Pressure   1.00000 Atm.
 Atom     1 has atomic number  8 and mass  15.99491

 Molecular mass:   126.06808 amu.
 Principal axes and moments of inertia in atomic units:
                           1         2         3
     Eigenvalues --   740.024951547.105541930.84142
           X            0.99981  -0.01889  -0.00388
           Y            0.01888   0.99982  -0.00143
           Z            0.00391   0.00135   0.99999
 This molecule is an asymmetric top.
 Rotational symmetry number  1.
 Warning -- assumption of classical behavior for rotation
           may cause significant error
 Rotational temperatures (Kelvin)      0.11704     0.05598     0.04486
 Rotational constants (GHZ):           2.43876     1.16653     0.93469
 Zero-point vibrational energy     411020.3 (Joules/Mol)
                                   98.23622 (Kcal/Mol)
 Warning -- explicit consideration of  13 degrees of freedom as
           vibrations may cause significant error
 Vibrational temperatures:    111.92   160.48   235.43   244.43   311.33
          (Kelvin)            388.95   396.45   477.81   515.74   587.87
                              657.91   719.91   786.47   894.09   900.74
                              914.15  1050.99  1195.46  1279.85  1301.88
                             1353.65  1416.06  1477.77  1533.39  1541.03
                             1571.87  1645.51  1698.44  1761.60  1777.21
                             1798.43  1829.15  1871.58  1905.52  1988.97
                             2039.06  2058.27  2108.25  2145.18  2160.57
                             3212.20  4271.55  4318.07  4379.10  4416.88
                             4431.16  4496.77  4513.41  5040.45  5484.88
                             5490.82

 Zero-point correction=                           0.156549 (Hartree/Particle)
 Thermal correction to Energy=                    0.166327
 Thermal correction to Enthalpy=                  0.167271
 Thermal correction to Gibbs Free Energy=         0.122135
 Sum of electronic and zero-point Energies=           -422.968590
 Sum of electronic and thermal Energies=              -422.958813
 Sum of electronic and thermal Enthalpies=            -422.957869
 Sum of electronic and thermal Free Energies=         -423.003004

                     E (Thermal)             CV                S
                      KCal/Mol        Cal/Mol-Kelvin    Cal/Mol-Kelvin
 Total                  104.372             36.658             94.996
 Electronic               0.000              0.000              0.000
 Translational            0.889              2.981             40.409
 Rotational               0.889              2.981             29.182
 Vibrational            102.594             30.697             25.406
 Vibration     1          0.599              1.964              3.946
 Vibration     2          0.607              1.940              3.242
 Vibration     3          0.623              1.887              2.507
 Vibration     4          0.625              1.880              2.437
 Vibration     5          0.645              1.816              1.989
 Vibration     6          0.674              1.728              1.594
 Vibration     7          0.677              1.719              1.561
 Vibration     8          0.714              1.611              1.250
 Vibration     9          0.733              1.558              1.129
 Vibration    10          0.773              1.452              0.932
 Vibration    11          0.815              1.345              0.774
 Vibration    12          0.856              1.249              0.657
 Vibration    13          0.902              1.147              0.551

 Optimization completed.
    -- Stationary point found.
 Normal termination of Gaussian 09 at Tue Jan 28 09:38:16 2020.
