 Gaussian 09, Revision D.01,
 Gaussian 09:  ES64L-G09RevD.01 24-Apr-2013

 -----------------------------
 # b3lyp 6-31G(2df,p) opt Freq
 -----------------------------

 -----
 titel
 -----
 Symbolic Z-matrix:
 Charge =  0 Multiplicity = 1

 SCF Done:  E(RB3LYP) =  -423.166498375     A.U. after   14 cycles
 Optimization completed.
    -- Stationary point found.
 Normal termination of Gaussian 09 at Tue Jan 28 09:15:53 2020.

 ----------------------------------------------------------------------
 #N Geom=AllCheck Guess=TCheck SCRF=Check GenChk RB3LYP/6-31G(2df,p) Fr
 eq
 ----------------------------------------------------------------------

 Structure from the checkpoint file:  "/scratch/puck/g09_9b874945-4075-47ed-b762-b1d916ff330a/Gau-11111.chk"
 -----
 titel
 -----
 Charge =  0 Multiplicity = 1

                         Standard orientation:
 ---------------------------------------------------------------------
 Center     Atomic      Atomic             Coordinates (Angstroms)
 Number     Number       Type             X           Y           Z
 ---------------------------------------------------------------------
      1          8           0       -2.632983    0.428727    0.488078
      2          6           0       -1.884190   -0.291944   -0.479747
      3          6           0       -0.419371   -0.128493   -0.138804
      4          6           0        0.180204   -0.914687    1.052658
      5          6           0        1.364430   -1.056476    0.068015
      6          8           0        0.424555   -0.900390   -1.045739
      7          6           0        2.226294    0.187194    0.138305
      8          6           0        1.579616    1.346977    0.024571
      9          6           0        0.075863    1.330726   -0.150459
     10          1           0       -3.566323    0.332739    0.279694
     11          1           0       -2.131514   -1.363612   -0.477323
     12          1           0       -2.055643    0.090750   -1.499151
     13          1           0        0.352769   -0.399393    1.998079
     14          1           0       -0.350011   -1.856573    1.208590
     15          1           0        1.918764   -1.994819    0.009164
     16          1           0        3.299427    0.112586    0.276553
     17          1           0        2.091683    2.304693    0.041591
     18          1           0       -0.425400    1.902631    0.638826
     19          1           0       -0.203395    1.804517   -1.101969
 ---------------------------------------------------------------------

 SCF Done:  E(RB3LYP) =  -423.166498375     A.U. after    1 cycles

 The electronic state is 1-A.
 Alpha  occ. eigenvalues --  -19.14102 -19.12393 -10.23455 -10.23214 -10.22626
 Alpha  occ. eigenvalues --  -10.18134 -10.18027 -10.17982 -10.17469  -1.03634
 Alpha  occ. eigenvalues --   -1.01915  -0.80142  -0.75711  -0.72574  -0.67467
 Alpha  occ. eigenvalues --   -0.61017  -0.56811  -0.51768  -0.51112  -0.49053
 Alpha  occ. eigenvalues --   -0.45654  -0.44102  -0.43034  -0.42085  -0.40050
 Alpha  occ. eigenvalues --   -0.38813  -0.37524  -0.34853  -0.34097  -0.31246
 Alpha  occ. eigenvalues --   -0.29962  -0.27213  -0.24571  -0.23242
 Alpha virt. eigenvalues --    0.00937   0.06730   0.09970   0.12410   0.12885
 Alpha virt. eigenvalues --    0.13339   0.14943   0.16117   0.16772   0.17526
 Alpha virt. eigenvalues --    0.18581   0.19234   0.19490   0.21264   0.22891

 Mulliken charges:
               1
     1  O   -0.425225
     2  C   -0.179319
     3  C    0.411266
     4  C   -0.268422
     5  C    0.035083
     6  O   -0.334738
     7  C   -0.057875
     8  C   -0.067815
     9  C   -0.284626
    10  H    0.293605
    11  H    0.092698
    12  H    0.094295
    13  H    0.104010
    14  H    0.100520
    15  H    0.072173
    16  H    0.089466
    17  H    0.092913
    18  H    0.124985
    19  H    0.107004
 Sum of Mulliken charges =   0.00000

 Dipole moment (field-independent basis, Debye):
    X=             -0.9668    Y=              0.0631    Z=              0.5658  Tot=              1.1220
 Quadrupole moment (field-independent basis, Debye-Ang):
   XX=            -43.9505   YY=            -51.7820   ZZ=            -56.5024
   XY=              0.6765   XZ=              3.4102   YZ=             -2.3286

  Exact polarizability:  87.355  -2.909  78.802   2.436  -2.209  59.106
 Approx polarizability: 115.828 -11.497 122.499   2.948  -0.518  95.059

                      1                      2                      3
                      A                      A                      A
 Frequencies --     81.6793               166.6153               230.8393
 Red. masses --      3.7362                 3.8554                 1.1454
 Frc consts  --      0.0147                 0.0631                 0.0360
 IR Inten    --      1.6967                 5.5178                95.8868

                      4                      5                      6
                      A                      A                      A
 Frequencies --    259.5499               332.2318               346.0076
 Red. masses --      2.0661                 2.3774                 3.0661
 Frc consts  --      0.0820                 0.1546                 0.2163
 IR Inten    --      8.6269                 2.5930                 1.0489

                      7                      8                      9
                      A                      A                      A
 Frequencies --    424.5333               470.8691               499.6307
 Red. masses --      4.2742                 2.4482                 2.4633
 Frc consts  --      0.4539                 0.3198                 0.3623
 IR Inten    --      0.4928                 4.9748                 4.6099

                     10                     11                     12
                      A                      A                      A
 Frequencies --    558.1126               672.9128               696.5305
 Red. masses --      4.8726                 3.0317                 1.8080
 Frc consts  --      0.8942                 0.8088                 0.5168
 IR Inten    --      1.8846                 6.4600                 9.9003

                     13                     14                     15
                      A                      A                      A
 Frequencies --    734.7798               862.7193               870.4705
 Red. masses --      3.0257                 2.2418                 2.4406
 Frc consts  --      0.9625                 0.9831                 1.0896
 IR Inten    --     15.4649                12.6078                 6.3518

                     16                     17                     18
                      A                      A                      A
 Frequencies --    908.5086               932.8612               948.9230
 Red. masses --      4.6971                 2.3423                 2.3096
 Frc consts  --      2.2842                 1.2009                 1.2253
 IR Inten    --     33.9000                15.8267                 7.1372

                     19                     20                     21
                      A                      A                      A
 Frequencies --    955.3430               967.4626               988.2993
 Red. masses --      4.2868                 1.3043                 1.5356
 Frc consts  --      2.3052                 0.7193                 0.8837
 IR Inten    --     40.5421                 1.6424                 5.5881

                     22                     23                     24
                      A                      A                      A
 Frequencies --   1016.7721              1061.4453              1083.3747
 Red. masses --      2.2715                 2.4716                 1.9361
 Frc consts  --      1.3836                 1.6407                 1.3389
 IR Inten    --      9.7355                34.3702                16.9346

                     25                     26                     27
                      A                      A                      A
 Frequencies --   1086.8757              1162.4662              1183.5248
 Red. masses --      1.9533                 1.1245                 1.3332
 Frc consts  --      1.3595                 0.8953                 1.1003
 IR Inten    --     20.2869                 0.8526                21.4214

                     28                     29                     30
                      A                      A                      A
 Frequencies --   1199.5444              1207.5521              1234.7610
 Red. masses --      1.2699                 1.7474                 1.7049
 Frc consts  --      1.0766                 1.5012                 1.5315
 IR Inten    --     27.4731                 6.9532                 6.9907

                     31                     32                     33
                      A                      A                      A
 Frequencies --   1243.2132              1279.5629              1310.5176
 Red. masses --      1.2554                 1.3783                 1.7545
 Frc consts  --      1.1432                 1.3296                 1.7754
 IR Inten    --      9.8600                12.3001                 3.3570

                     34                     35                     36
                      A                      A                      A
 Frequencies --   1337.7587              1367.4834              1388.8944
 Red. masses --      1.4924                 1.8926                 1.6127
 Frc consts  --      1.5736                 2.0852                 1.8329
 IR Inten    --      6.7234                10.9706                 5.7475

                     37                     38                     39
                      A                      A                      A
 Frequencies --   1462.5674              1464.2713              1487.4987
 Red. masses --      1.2643                 1.3528                 1.1674
 Frc consts  --      1.5934                 1.7089                 1.5219
 IR Inten    --      3.3051                 3.8269                 1.4585

                     40                     41                     42
                      A                      A                      A
 Frequencies --   1520.3553              1695.4350              2971.0571
 Red. masses --      1.0831                 6.2251                 1.0583
 Frc consts  --      1.4750                10.5429                 5.5038
 IR Inten    --      3.7691                 5.6642                47.1784

                     43                     44                     45
                      A                      A                      A
 Frequencies --   3012.3615              3015.0452              3064.8317
 Red. masses --      1.0866                 1.0824                 1.0931
 Frc consts  --      5.8095                 5.7975                 6.0498
 IR Inten    --     11.4602                63.8131                 8.7658

                     46                     47                     48
                      A                      A                      A
 Frequencies --   3072.8702              3096.7901              3140.6316
 Red. masses --      1.0583                 1.0887                 1.1099
 Frc consts  --      5.8879                 6.1516                 6.4499
 IR Inten    --     28.9785                53.4024                22.9805

                     49                     50                     51
                      A                      A                      A
 Frequencies --   3164.2570              3193.3575              3838.9737
 Red. masses --      1.0855                 1.0998                 1.0666
 Frc consts  --      6.4038                 6.6077                 9.2613
 IR Inten    --     11.0330                28.1638                29.9292

 - Thermochemistry -
 -------------------
 Temperature   298.150 Kelvin.  Pressure   1.00000 Atm.
 Atom     1 has atomic number  8 and mass  15.99491

 Molecular mass:   126.06808 amu.
 Principal axes and moments of inertia in atomic units:
                           1         2         3
     Eigenvalues --   549.095351284.521221492.95378
           X            0.99981   0.01174   0.01581
           Y           -0.01090   0.99860  -0.05184
           Z           -0.01640   0.05166   0.99853
 This molecule is an asymmetric top.
 Rotational symmetry number  1.
 Warning -- assumption of classical behavior for rotation
           may cause significant error
 Rotational temperatures (Kelvin)      0.15774     0.06743     0.05802
 Rotational constants (GHZ):           3.28675     1.40499     1.20884
 Zero-point vibrational energy     420325.5 (Joules/Mol)
                                  100.46019 (Kcal/Mol)
 Warning -- explicit consideration of  10 degrees of freedom as
           vibrations may cause significant error
 Vibrational temperatures:    117.52   239.72   332.13   373.43   478.01
          (Kelvin)            497.83   610.81   677.47   718.86   803.00
                              968.17  1002.15  1057.18  1241.26  1252.41
                             1307.14  1342.18  1365.29  1374.52  1391.96
                             1421.94  1462.91  1527.18  1558.73  1563.77
                             1672.53  1702.83  1725.87  1737.40  1776.54
                             1788.70  1841.00  1885.54  1924.73  1967.50
                             1998.31  2104.31  2106.76  2140.18  2187.45
                             2439.35  4274.68  4334.11  4337.97  4409.60
                             4421.17  4455.58  4518.66  4552.65  4594.52
                             5523.42

 Zero-point correction=                           0.160094 (Hartree/Particle)
 Thermal correction to Energy=                    0.168004
 Thermal correction to Enthalpy=                  0.168948
 Thermal correction to Gibbs Free Energy=         0.127809
 Sum of electronic and zero-point Energies=           -423.006405
 Sum of electronic and thermal Energies=              -422.998495
 Sum of electronic and thermal Enthalpies=            -422.997550
 Sum of electronic and thermal Free Energies=         -423.038689

                     E (Thermal)             CV                S
                      KCal/Mol        Cal/Mol-Kelvin    Cal/Mol-Kelvin
 Total                  105.424             31.327             86.583
 Electronic               0.000              0.000              0.000
 Translational            0.889              2.981             40.409
 Rotational               0.889              2.981             28.445
 Vibrational            103.646             25.366             17.730
 Vibration     1          0.600              1.962              3.850
 Vibration     2          0.624              1.884              2.473
 Vibration     3          0.653              1.794              1.872
 Vibration     4          0.668              1.747              1.665
 Vibration     5          0.714              1.611              1.249
 Vibration     6          0.724              1.583              1.184
 Vibration     7          0.787              1.417              0.877
 Vibration     8          0.828              1.315              0.735
 Vibration     9          0.855              1.251              0.659
 Vibration    10          0.914              1.122              0.528

 Normal termination of Gaussian 09 at Tue Jan 28 10:03:20 2020.
