 Gaussian 09, Revision D.01,
 Gaussian 09:  ES64L-G09RevD.01 24-Apr-2013

 -----------------------------
 # b3lyp 6-31G(2df,p) opt Freq
 -----------------------------

 -----
 titel
 -----
 Symbolic Z-matrix:
 Charge =  0 Multiplicity = 1

 SCF Done:  E(RB3LYP) =  -423.161806749     A.U. after   14 cycles
 Optimization completed.
    -- Stationary point found.
 Normal termination of Gaussian 09 at Tue Jan 28 14:27:51 2020.

 ----------------------------------------------------------------------
 #N Geom=AllCheck Guess=TCheck SCRF=Check GenChk RB3LYP/6-31G(2df,p) Fr
 eq
 ----------------------------------------------------------------------

 Structure from the checkpoint file:  "/scratch/puck/g09_b762a27a-a231-4731-91dd-54ea7526c403/Gau-35072.chk"
 -----
 titel
 -----
 Charge =  0 Multiplicity = 1

                         Standard orientation:
 ---------------------------------------------------------------------
 Center     Atomic      Atomic             Coordinates (Angstroms)
 Number     Number       Type             X           Y           Z
 ---------------------------------------------------------------------
      1          6           0       -3.433230   -1.245260   -0.286530
      2          8           0       -2.628601   -0.327016    0.414618
      3          6           0       -1.416406   -0.046764   -0.247396
      4          6           0       -0.650271    0.976066    0.593609
      5          6           0        0.719236    1.295505    0.015768
      6          8           0        1.004395    2.390737   -0.421638
      7          6           0        1.676280    0.204761    0.016435
      8          6           0        2.477909   -0.698134    0.021519
      9          6           0        3.455997   -1.772200    0.017935
     10          1           0       -3.710267   -0.868233   -1.283709
     11          1           0       -2.928737   -2.216143   -0.415982
     12          1           0       -4.343103   -1.395594    0.299351
     13          1           0       -0.818903   -0.964835   -0.371163
     14          1           0       -1.608666    0.357653   -1.255557
     15          1           0       -1.215217    1.908541    0.658690
     16          1           0       -0.528454    0.563402    1.602040
     17          1           0        3.123544   -2.621807    0.623102
     18          1           0        3.629838   -2.131150   -1.002478
     19          1           0        4.416525   -1.425446    0.413829
 ---------------------------------------------------------------------

 SCF Done:  E(RB3LYP) =  -423.161806749     A.U. after    1 cycles

 The electronic state is 1-A.
 Alpha  occ. eigenvalues --  -19.14374 -19.13157 -10.28484 -10.23628 -10.22691
 Alpha  occ. eigenvalues --  -10.22183 -10.20778 -10.19037 -10.18619  -1.04186
 Alpha  occ. eigenvalues --   -1.03713  -0.80302  -0.78431  -0.72849  -0.69028
 Alpha  occ. eigenvalues --   -0.63057  -0.60268  -0.50359  -0.48768  -0.47980
 Alpha  occ. eigenvalues --   -0.46916  -0.44998  -0.44601  -0.44481  -0.42569
 Alpha  occ. eigenvalues --   -0.42064  -0.40123  -0.36381  -0.35472  -0.32200
 Alpha  occ. eigenvalues --   -0.28048  -0.27886  -0.25841  -0.25423
 Alpha virt. eigenvalues --   -0.04974   0.04025   0.08768   0.09233   0.09696
 Alpha virt. eigenvalues --    0.12504   0.13812   0.14020   0.15727   0.16680
 Alpha virt. eigenvalues --    0.17029   0.17585   0.17827   0.19396   0.19804

 Mulliken charges:
               1
     1  C   -0.230036
     2  O   -0.227338
     3  C   -0.057086
     4  C   -0.303860
     5  C    0.223677
     6  O   -0.281710
     7  C    0.069819
     8  C    0.029621
     9  C   -0.501517
    10  H    0.106500
    11  H    0.103526
    12  H    0.129293
    13  H    0.096626
    14  H    0.098251
    15  H    0.130166
    16  H    0.127082
    17  H    0.158048
    18  H    0.164049
    19  H    0.164888
 Sum of Mulliken charges =   0.00000

 Dipole moment (field-independent basis, Debye):
    X=              0.4569    Y=             -3.9180    Z=             -0.0206  Tot=              3.9446
 Quadrupole moment (field-independent basis, Debye-Ang):
   XX=            -45.3706   YY=            -56.4806   ZZ=            -53.2472
   XY=             -6.4379   XZ=              3.4655   YZ=              2.5344

  Exact polarizability: 100.987 -14.038  91.113  -0.444  -1.754  58.561
 Approx polarizability: 125.555 -29.239 148.747  -1.956  -7.303  89.006

                      1                      2                      3
                      A                      A                      A
 Frequencies --      5.5039                30.2421                61.9456
 Red. masses --      1.0158                 3.1329                 2.1787
 Frc consts  --      0.0000                 0.0017                 0.0049
 IR Inten    --      0.1033                 1.2923                 0.7958

                      4                      5                      6
                      A                      A                      A
 Frequencies --     95.2654               103.5449               131.6906
 Red. masses --      3.4534                 3.1054                 3.4144
 Frc consts  --      0.0185                 0.0196                 0.0349
 IR Inten    --      1.7366                 2.1484                 3.9056

                      7                      8                      9
                      A                      A                      A
 Frequencies --    167.7951               228.1265               277.7070
 Red. masses --      3.9720                 1.2459                 4.0929
 Frc consts  --      0.0659                 0.0382                 0.1860
 IR Inten    --      3.0796                 3.7217                 0.3812

                     10                     11                     12
                      A                      A                      A
 Frequencies --    342.9502               387.9169               396.5437
 Red. masses --      4.1013                 4.5144                 4.2848
 Frc consts  --      0.2842                 0.4002                 0.3970
 IR Inten    --      5.9286                 2.8583                 4.3271

                     13                     14                     15
                      A                      A                      A
 Frequencies --    440.8272               587.3802               675.9838
 Red. masses --      3.4508                 5.0533                 3.7622
 Frc consts  --      0.3951                 1.0272                 1.0129
 IR Inten    --      2.4325                 0.8382                20.5613

                     16                     17                     18
                      A                      A                      A
 Frequencies --    730.4351               825.6552               977.2703
 Red. masses --      4.0371                 1.3196                 4.2841
 Frc consts  --      1.2691                 0.5300                 2.4107
 IR Inten    --     21.7688                 3.3430                17.1283

                     19                     20                     21
                      A                      A                      A
 Frequencies --   1010.7709              1044.3099              1054.5748
 Red. masses --      3.1776                 1.4506                 1.5039
 Frc consts  --      1.9127                 0.9321                 0.9854
 IR Inten    --     46.0265                 3.0730                 1.3841

                     22                     23                     24
                      A                      A                      A
 Frequencies --   1055.2177              1073.0492              1159.1855
 Red. masses --      2.7655                 2.1090                 5.3763
 Frc consts  --      1.8143                 1.4308                 4.2564
 IR Inten    --      2.8291                 2.5539               192.6226

                     25                     26                     27
                      A                      A                      A
 Frequencies --   1178.0601              1215.7537              1224.3233
 Red. masses --      1.2728                 1.6134                 1.7061
 Frc consts  --      1.0408                 1.4050                 1.5068
 IR Inten    --      1.9837                53.7783                21.6826

                     28                     29                     30
                      A                      A                      A
 Frequencies --   1263.7378              1291.2148              1307.2790
 Red. masses --      2.0909                 1.7020                 1.1249
 Frc consts  --      1.9674                 1.6719                 1.1327
 IR Inten    --     77.3222                61.5704                 5.7608

                     31                     32                     33
                      A                      A                      A
 Frequencies --   1409.7124              1419.0353              1469.6334
 Red. masses --      1.2391                 1.3329                 1.0424
 Frc consts  --      1.4508                 1.5813                 1.3264
 IR Inten    --      3.6634                33.4097                 6.0264

                     34                     35                     36
                      A                      A                      A
 Frequencies --   1471.2740              1473.7523              1480.4351
 Red. masses --      1.0881                 1.0405                 1.1562
 Frc consts  --      1.3878                 1.3315                 1.4930
 IR Inten    --      7.2486                 6.5429                 0.5063

                     37                     38                     39
                      A                      A                      A
 Frequencies --   1484.9478              1504.2839              1533.3339
 Red. masses --      1.0480                 1.0597                 1.0931
 Frc consts  --      1.3615                 1.4128                 1.5143
 IR Inten    --      5.2201                10.4323                 1.7699

                     40                     41                     42
                      A                      A                      A
 Frequencies --   1761.3690              2336.1867              2956.4884
 Red. masses --     11.8860                11.9099                 1.0512
 Frc consts  --     21.7263                38.2978                 5.4136
 IR Inten    --    202.6143               138.1400                27.4049

                     43                     44                     45
                      A                      A                      A
 Frequencies --   2972.3460              2990.7760              3013.9814
 Red. masses --      1.0407                 1.1042                 1.1031
 Frc consts  --      5.4175                 5.8191                 5.9042
 IR Inten    --     69.0063                54.0845                52.6585

                     46                     47                     48
                      A                      A                      A
 Frequencies --   3032.4299              3046.8580              3095.9051
 Red. masses --      1.0345                 1.0616                 1.0995
 Frc consts  --      5.6050                 5.8065                 6.2090
 IR Inten    --     13.8396                 8.4739                 4.2558

                     49                     50                     51
                      A                      A                      A
 Frequencies --   3100.1031              3115.9946              3121.2994
 Red. masses --      1.1010                 1.0958                 1.1009
 Frc consts  --      6.2343                 6.2688                 6.3192
 IR Inten    --      5.7404                29.2086                12.8623

 - Thermochemistry -
 -------------------
 Temperature   298.150 Kelvin.  Pressure   1.00000 Atm.
 Atom     1 has atomic number  6 and mass  12.00000

 Molecular mass:   126.06808 amu.
 Principal axes and moments of inertia in atomic units:
                           1         2         3
     Eigenvalues --   830.804902368.754783058.90486
           X            0.99976  -0.01995   0.00851
           Y            0.01979   0.99964   0.01833
           Z           -0.00887  -0.01815   0.99980
 This molecule is an asymmetric top.
 Rotational symmetry number  1.
 Warning -- assumption of classical behavior for rotation
           may cause significant error
 Rotational temperatures (Kelvin)      0.10425     0.03657     0.02832
 Rotational constants (GHZ):           2.17228     0.76189     0.59000
 Zero-point vibrational energy     407534.2 (Joules/Mol)
                                   97.40302 (Kcal/Mol)
 Warning -- explicit consideration of  14 degrees of freedom as
           vibrations may cause significant error
 Vibrational temperatures:      7.92    43.51    89.13   137.07   148.98
          (Kelvin)            189.47   241.42   328.22   399.56   493.43
                              558.13   570.54   634.25   845.11   972.59
                             1050.93  1187.93  1406.07  1454.27  1502.53
                             1517.30  1518.22  1543.88  1667.81  1694.96
                             1749.20  1761.53  1818.23  1857.77  1880.88
                             2028.26  2041.67  2114.47  2116.83  2120.40
                             2130.01  2136.51  2164.33  2206.12  2534.21
                             3361.25  4253.72  4276.54  4303.05  4336.44
                             4362.98  4383.74  4454.31  4460.35  4483.22
                             4490.85

 Zero-point correction=                           0.155222 (Hartree/Particle)
 Thermal correction to Energy=                    0.166487
 Thermal correction to Enthalpy=                  0.167431
 Thermal correction to Gibbs Free Energy=         0.114267
 Sum of electronic and zero-point Energies=           -423.006585
 Sum of electronic and thermal Energies=              -422.995320
 Sum of electronic and thermal Enthalpies=            -422.994375
 Sum of electronic and thermal Free Energies=         -423.047540

                     E (Thermal)             CV                S
                      KCal/Mol        Cal/Mol-Kelvin    Cal/Mol-Kelvin
 Total                  104.472             36.510            111.894
 Electronic               0.000              0.000              0.000
 Translational            0.889              2.981             40.409
 Rotational               0.889              2.981             30.177
 Vibrational            102.695             30.548             41.308
 Vibration     1          0.593              1.987              9.198
 Vibration     2          0.594              1.984              5.813
 Vibration     3          0.597              1.972              4.394
 Vibration     4          0.603              1.953              3.549
 Vibration     5          0.605              1.946              3.386
 Vibration     6          0.612              1.922              2.921
 Vibration     7          0.625              1.882              2.460
 Vibration     8          0.651              1.798              1.894
 Vibration     9          0.679              1.715              1.548
 Vibration    10          0.722              1.590              1.198
 Vibration    11          0.756              1.496              1.008
 Vibration    12          0.763              1.478              0.975
 Vibration    13          0.801              1.381              0.824
 Vibration    14          0.945              1.059              0.472

 Optimization completed on the basis of negligible forces.
    -- Stationary point found.
 Normal termination of Gaussian 09 at Tue Jan 28 14:58:13 2020.
