 Gaussian 09, Revision D.01,
 Gaussian 09:  ES64L-G09RevD.01 24-Apr-2013

 -----------------------------
 # b3lyp 6-31G(2df,p) opt Freq
 -----------------------------

 -----
 titel
 -----
 Symbolic Z-matrix:
 Charge =  0 Multiplicity = 1

 SCF Done:  E(RB3LYP) =  -423.154774864     A.U. after   13 cycles
 Optimization completed.
    -- Stationary point found.
 Normal termination of Gaussian 09 at Mon Jan 27 17:03:56 2020.

 ----------------------------------------------------------------------
 #N Geom=AllCheck Guess=TCheck SCRF=Check GenChk RB3LYP/6-31G(2df,p) Fr
 eq
 ----------------------------------------------------------------------

 Structure from the checkpoint file:  "/scratch/puck/g09_40f92ae7-7cc4-44c1-8950-d339a7b1b666/Gau-49237.chk"
 -----
 titel
 -----
 Charge =  0 Multiplicity = 1

                         Standard orientation:
 ---------------------------------------------------------------------
 Center     Atomic      Atomic             Coordinates (Angstroms)
 Number     Number       Type             X           Y           Z
 ---------------------------------------------------------------------
      1          8           0       -2.227225    0.077355   -0.994207
      2          6           0       -1.069657    0.040947   -0.241734
      3          6           0       -0.288495    1.227384    0.260396
      4          6           0        1.171311    1.435748   -0.116060
      5          6           0        1.996617    0.133591   -0.190370
      6          6           0        1.220250   -1.046597   -0.801314
      7          6           0       -0.137577   -1.180309   -0.121779
      8          8           0       -0.032340   -0.975841    1.326614
      9          6           0       -0.847250    0.191348    1.232811
     10          1           0       -2.057619    0.591758   -1.790734
     11          1           0       -0.895746    2.131782    0.285109
     12          1           0        1.189700    1.935507   -1.094928
     13          1           0        1.648417    2.129487    0.586199
     14          1           0        2.913218    0.316251   -0.760714
     15          1           0        2.298773   -0.154782    0.819280
     16          1           0        1.053350   -0.906559   -1.878509
     17          1           0        1.801535   -1.968381   -0.688700
     18          1           0       -0.645818   -2.126256   -0.332691
     19          1           0       -1.500475    0.426411    2.064728
 ---------------------------------------------------------------------

 SCF Done:  E(RB3LYP) =  -423.154774864     A.U. after    1 cycles

 The electronic state is 1-A.
 Alpha  occ. eigenvalues --  -19.15413 -19.13275 -10.23472 -10.23178 -10.22994
 Alpha  occ. eigenvalues --  -10.19214 -10.18493 -10.18167 -10.17818  -1.05514
 Alpha  occ. eigenvalues --   -1.02758  -0.83495  -0.78717  -0.72878  -0.65133
 Alpha  occ. eigenvalues --   -0.61513  -0.56344  -0.54929  -0.52454  -0.47324
 Alpha  occ. eigenvalues --   -0.46385  -0.44518  -0.43018  -0.41432  -0.39989
 Alpha  occ. eigenvalues --   -0.38403  -0.36807  -0.35185  -0.33626  -0.32977
 Alpha  occ. eigenvalues --   -0.31944  -0.27591  -0.25392  -0.22310
 Alpha virt. eigenvalues --    0.06876   0.08249   0.09494   0.12184   0.13137
 Alpha virt. eigenvalues --    0.13710   0.14704   0.16002   0.16135   0.17493
 Alpha virt. eigenvalues --    0.17955   0.20077   0.20674   0.21651   0.23095

 Mulliken charges:
               1
     1  O   -0.459750
     2  C    0.294020
     3  C   -0.128945
     4  C   -0.227336
     5  C   -0.194460
     6  C   -0.226005
     7  C    0.046115
     8  O   -0.301789
     9  C    0.026683
    10  H    0.287551
    11  H    0.087626
    12  H    0.091629
    13  H    0.101676
    14  H    0.087547
    15  H    0.123184
    16  H    0.093444
    17  H    0.103321
    18  H    0.085830
    19  H    0.109659
 Sum of Mulliken charges =   0.00000

 Dipole moment (field-independent basis, Debye):
    X=              0.5324    Y=              1.4746    Z=             -1.8362  Tot=              2.4144
 Quadrupole moment (field-independent basis, Debye-Ang):
   XX=            -55.6985   YY=            -51.8058   ZZ=            -51.2245
   XY=             -2.0019   XZ=             -0.4687   YZ=              1.0016

  Exact polarizability:  75.925  -0.422  74.679  -1.995   1.770  70.067
 Approx polarizability: 103.414  -0.241 108.669   0.855  -0.690 112.040

                      1                      2                      3
                      A                      A                      A
 Frequencies --    175.4487               192.9212               255.8254
 Red. masses --      3.0899                 2.1231                 1.5969
 Frc consts  --      0.0560                 0.0466                 0.0616
 IR Inten    --      5.1816                15.8222                39.9494

                      4                      5                      6
                      A                      A                      A
 Frequencies --    292.0973               330.4177               371.8351
 Red. masses --      1.4618                 5.9248                 3.3093
 Frc consts  --      0.0735                 0.3811                 0.2696
 IR Inten    --     24.0223                10.6971                 1.8782

                      7                      8                      9
                      A                      A                      A
 Frequencies --    419.9002               484.6507               619.0632
 Red. masses --      2.9828                 3.5103                 3.2035
 Frc consts  --      0.3099                 0.4858                 0.7233
 IR Inten    --      0.7375                 7.9821                 4.1786

                     10                     11                     12
                      A                      A                      A
 Frequencies --    641.4201               688.0786               714.8963
 Red. masses --      2.7388                 2.7759                 4.0069
 Frc consts  --      0.6639                 0.7743                 1.2065
 IR Inten    --      5.2114                 4.5211                 1.1887

                     13                     14                     15
                      A                      A                      A
 Frequencies --    781.5771               853.7781               863.7646
 Red. masses --      3.3868                 2.7353                 2.0304
 Frc consts  --      1.2190                 1.1747                 0.8925
 IR Inten    --      2.5073                11.5810                 6.0051

                     16                     17                     18
                      A                      A                      A
 Frequencies --    896.7439               935.0731               943.4526
 Red. masses --      2.1628                 1.6395                 2.6905
 Frc consts  --      1.0247                 0.8446                 1.4110
 IR Inten    --      6.2259                 6.8129                23.8385

                     19                     20                     21
                      A                      A                      A
 Frequencies --    956.6241               998.4889              1022.5642
 Red. masses --      2.0048                 2.4447                 1.9775
 Frc consts  --      1.0810                 1.4360                 1.2183
 IR Inten    --      3.0767                10.6190                14.0581

                     22                     23                     24
                      A                      A                      A
 Frequencies --   1058.8522              1087.5740              1089.7502
 Red. masses --      2.0279                 1.7867                 1.8451
 Frc consts  --      1.3396                 1.2452                 1.2910
 IR Inten    --     31.4515                 3.3798                 6.3861

                     25                     26                     27
                      A                      A                      A
 Frequencies --   1114.7718              1166.8864              1194.6204
 Red. masses --      2.0608                 1.3439                 1.4380
 Frc consts  --      1.5089                 1.0781                 1.2091
 IR Inten    --      1.8520                20.2280                10.9242

                     28                     29                     30
                      A                      A                      A
 Frequencies --   1215.4902              1237.4990              1258.8357
 Red. masses --      1.9587                 2.0459                 1.4786
 Frc consts  --      1.7050                 1.8460                 1.3805
 IR Inten    --     22.5176               112.1213                 7.8473

                     31                     32                     33
                      A                      A                      A
 Frequencies --   1292.0159              1325.1249              1331.2477
 Red. masses --      1.3042                 1.3680                 1.6720
 Frc consts  --      1.2827                 1.4154                 1.7459
 IR Inten    --      2.1935                36.1176                 6.5548

                     34                     35                     36
                      A                      A                      A
 Frequencies --   1349.8338              1369.9660              1383.2435
 Red. masses --      1.5731                 1.4415                 1.5046
 Frc consts  --      1.6888                 1.5940                 1.6962
 IR Inten    --      5.2218                 1.2406                 3.2280

                     37                     38                     39
                      A                      A                      A
 Frequencies --   1393.2025              1478.7704              1482.3690
 Red. masses --      1.4476                 1.0896                 1.1629
 Frc consts  --      1.6555                 1.4038                 1.5055
 IR Inten    --      2.0359                 4.1335                 9.2830

                     40                     41                     42
                      A                      A                      A
 Frequencies --   1497.5033              1501.8935              3003.9401
 Red. masses --      1.1950                 2.3576                 1.0664
 Frc consts  --      1.5789                 3.1333                 5.6698
 IR Inten    --      2.8790                21.1071                39.1368

                     43                     44                     45
                      A                      A                      A
 Frequencies --   3016.1849              3046.1113              3053.8532
 Red. masses --      1.0640                 1.0836                 1.0779
 Frc consts  --      5.7030                 5.9237                 5.9229
 IR Inten    --     25.2142                17.1034                44.2900

                     46                     47                     48
                      A                      A                      A
 Frequencies --   3061.4318              3070.4799              3104.5666
 Red. masses --      1.0917                 1.0917                 1.0998
 Frc consts  --      6.0287                 6.0640                 6.2456
 IR Inten    --     38.2335                46.2517                26.4029

                     49                     50                     51
                      A                      A                      A
 Frequencies --   3122.0315              3187.9383              3797.4326
 Red. masses --      1.0859                 1.0942                 1.0665
 Frc consts  --      6.2361                 6.5520                 9.0610
 IR Inten    --     14.2054                19.6538                18.7756

 - Thermochemistry -
 -------------------
 Temperature   298.150 Kelvin.  Pressure   1.00000 Atm.
 Atom     1 has atomic number  8 and mass  15.99491

 Molecular mass:   126.06808 amu.
 Principal axes and moments of inertia in atomic units:
                           1         2         3
     Eigenvalues --   707.493781076.349211167.61708
           X            0.99964  -0.00013  -0.02683
           Y            0.00318   0.99352   0.11359
           Z            0.02664  -0.11363   0.99317
 This molecule is an asymmetric top.
 Rotational symmetry number  1.
 Warning -- assumption of classical behavior for rotation
           may cause significant error
 Rotational temperatures (Kelvin)      0.12242     0.08047     0.07418
 Rotational constants (GHZ):           2.55089     1.67672     1.54566
 Zero-point vibrational energy     423071.6 (Joules/Mol)
                                  101.11653 (Kcal/Mol)
 Warning -- explicit consideration of   9 degrees of freedom as
           vibrations may cause significant error
 Vibrational temperatures:    252.43   277.57   368.08   420.26   475.40
          (Kelvin)            534.99   604.14   697.30   890.69   922.86
                              989.99  1028.58  1124.51  1228.39  1242.76
                             1290.21  1345.36  1357.42  1376.37  1436.60
                             1471.24  1523.45  1564.77  1567.91  1603.91
                             1678.89  1718.79  1748.82  1780.48  1811.18
                             1858.92  1906.56  1915.37  1942.11  1971.07
                             1990.18  2004.51  2127.62  2132.80  2154.57
                             2160.89  4321.99  4339.61  4382.67  4393.81
                             4404.71  4417.73  4466.77  4491.90  4586.73
                             5463.65

 Zero-point correction=                           0.161139 (Hartree/Particle)
 Thermal correction to Energy=                    0.168555
 Thermal correction to Enthalpy=                  0.169499
 Thermal correction to Gibbs Free Energy=         0.129762
 Sum of electronic and zero-point Energies=           -422.993635
 Sum of electronic and thermal Energies=              -422.986220
 Sum of electronic and thermal Enthalpies=            -422.985276
 Sum of electronic and thermal Free Energies=         -423.025013

                     E (Thermal)             CV                S
                      KCal/Mol        Cal/Mol-Kelvin    Cal/Mol-Kelvin
 Total                  105.770             30.274             83.633
 Electronic               0.000              0.000              0.000
 Translational            0.889              2.981             40.409
 Rotational               0.889              2.981             28.277
 Vibrational            103.992             24.312             14.948
 Vibration     1          0.627              1.873              2.376
 Vibration     2          0.635              1.850              2.200
 Vibration     3          0.666              1.753              1.690
 Vibration     4          0.687              1.688              1.462
 Vibration     5          0.713              1.615              1.258
 Vibration     6          0.744              1.530              1.072
 Vibration     7          0.783              1.427              0.892
 Vibration     8          0.841              1.284              0.698
 Vibration     9          0.979              0.992              0.418

 Normal termination of Gaussian 09 at Mon Jan 27 17:50:18 2020.
