 Gaussian 09, Revision D.01,
 Gaussian 09:  ES64L-G09RevD.01 24-Apr-2013

 -----------------------------
 # b3lyp 6-31G(2df,p) opt Freq
 -----------------------------

 -----
 titel
 -----
 Symbolic Z-matrix:
 Charge =  0 Multiplicity = 1

 SCF Done:  E(RB3LYP) =  -423.167756456     A.U. after   14 cycles
 Optimization completed.
    -- Stationary point found.
 Normal termination of Gaussian 09 at Tue Jan 28 08:14:14 2020.

 ----------------------------------------------------------------------
 #N Geom=AllCheck Guess=TCheck SCRF=Check GenChk RB3LYP/6-31G(2df,p) Fr
 eq
 ----------------------------------------------------------------------

 Structure from the checkpoint file:  "/scratch/puck/g09_6519e295-63f5-4445-b7db-a878dfe57f72/Gau-25852.chk"
 -----
 titel
 -----
 Charge =  0 Multiplicity = 1

                         Standard orientation:
 ---------------------------------------------------------------------
 Center     Atomic      Atomic             Coordinates (Angstroms)
 Number     Number       Type             X           Y           Z
 ---------------------------------------------------------------------
      1          8           0       -2.506704   -0.287178   -0.253533
      2          6           0       -1.085784   -0.231672   -0.306274
      3          6           0       -0.570225   -1.613401    0.116664
      4          6           0        0.939081   -1.649358    0.465881
      5          6           0        1.823701   -0.798714   -0.425757
      6          6           0        1.795319    0.535266   -0.430824
      7          6           0        0.867623    1.301568    0.449439
      8          8           0       -0.165092    2.088852   -0.168846
      9          6           0       -0.543963    0.903494    0.548825
     10          1           0       -2.846626    0.516082   -0.661607
     11          1           0       -0.749063   -0.027878   -1.330482
     12          1           0       -1.147019   -1.949608    0.985058
     13          1           0       -0.795613   -2.313553   -0.694238
     14          1           0        1.063472   -1.314771    1.501929
     15          1           0        1.280024   -2.688334    0.443616
     16          1           0        2.517736   -1.315548   -1.084375
     17          1           0        2.461934    1.108211   -1.070622
     18          1           0        1.323473    1.803475    1.305719
     19          1           0       -1.088467    1.085441    1.476312
 ---------------------------------------------------------------------

 SCF Done:  E(RB3LYP) =  -423.167756456     A.U. after    1 cycles

 The electronic state is 1-A.
 Alpha  occ. eigenvalues --  -19.14833 -19.13550 -10.23853 -10.23138 -10.23116
 Alpha  occ. eigenvalues --  -10.19282 -10.19169 -10.18672 -10.18505  -1.06714
 Alpha  occ. eigenvalues --   -1.01684  -0.81887  -0.76100  -0.71140  -0.65163
 Alpha  occ. eigenvalues --   -0.64173  -0.56457  -0.54220  -0.52477  -0.48784
 Alpha  occ. eigenvalues --   -0.47671  -0.45162  -0.43864  -0.42166  -0.39115
 Alpha  occ. eigenvalues --   -0.38033  -0.37104  -0.35398  -0.33855  -0.32476
 Alpha  occ. eigenvalues --   -0.30278  -0.27523  -0.26294  -0.25093
 Alpha virt. eigenvalues --    0.00036   0.07671   0.09222   0.09446   0.11695
 Alpha virt. eigenvalues --    0.12911   0.14413   0.15936   0.16455   0.17254
 Alpha virt. eigenvalues --    0.17792   0.18435   0.19752   0.20931   0.23377

 Mulliken charges:
               1
     1  O   -0.439927
     2  C    0.106144
     3  C   -0.198581
     4  C   -0.270805
     5  C   -0.046735
     6  C   -0.097946
     7  C    0.016700
     8  O   -0.267366
     9  C   -0.003856
    10  H    0.287429
    11  H    0.086641
    12  H    0.111925
    13  H    0.110129
    14  H    0.117220
    15  H    0.103856
    16  H    0.095693
    17  H    0.098232
    18  H    0.097746
    19  H    0.093500
 Sum of Mulliken charges =   0.00000

 Dipole moment (field-independent basis, Debye):
    X=              1.1256    Y=             -0.8111    Z=              0.2999  Tot=              1.4194
 Quadrupole moment (field-independent basis, Debye-Ang):
   XX=            -53.0359   YY=            -55.4525   ZZ=            -51.2214
   XY=             -2.7880   XZ=              0.5999   YZ=              1.1280

  Exact polarizability:  80.245   0.221  84.233  -4.263   0.433  61.411
 Approx polarizability: 110.874   0.570 130.536  -5.370  -2.769  95.326

                      1                      2                      3
                      A                      A                      A
 Frequencies --    126.9799               167.8283               231.7007
 Red. masses --      3.0721                 2.2867                 3.9965
 Frc consts  --      0.0292                 0.0379                 0.1264
 IR Inten    --      1.2239                 0.3484                 9.9230

                      4                      5                      6
                      A                      A                      A
 Frequencies --    282.0402               315.3817               338.5027
 Red. masses --      3.4541                 2.7324                 1.1808
 Frc consts  --      0.1619                 0.1601                 0.0797
 IR Inten    --      0.5552                 3.5829                83.1776

                      7                      8                      9
                      A                      A                      A
 Frequencies --    384.9470               386.8434               487.3218
 Red. masses --      3.9023                 4.3362                 4.2512
 Frc consts  --      0.3407                 0.3823                 0.5948
 IR Inten    --      1.2944                25.1519                 2.2278

                     10                     11                     12
                      A                      A                      A
 Frequencies --    537.3670               590.4564               690.0488
 Red. masses --      3.2373                 2.8959                 1.8860
 Frc consts  --      0.5508                 0.5949                 0.5291
 IR Inten    --      9.6119                 2.1833                 4.7925

                     13                     14                     15
                      A                      A                      A
 Frequencies --    759.2259               832.0011               844.7553
 Red. masses --      2.0776                 2.6941                 2.6057
 Frc consts  --      0.7056                 1.0988                 1.0956
 IR Inten    --     15.3753                14.9114                 5.7994

                     16                     17                     18
                      A                      A                      A
 Frequencies --    875.7081               887.1791               946.8740
 Red. masses --      2.5392                 3.3043                 2.3856
 Frc consts  --      1.1473                 1.5323                 1.2602
 IR Inten    --      6.8646                22.5765                 5.3559

                     19                     20                     21
                      A                      A                      A
 Frequencies --    984.9894               997.5880              1028.4764
 Red. masses --      2.8917                 1.2790                 1.9750
 Frc consts  --      1.6530                 0.7499                 1.2308
 IR Inten    --     39.4506                 0.7716                11.8796

                     22                     23                     24
                      A                      A                      A
 Frequencies --   1063.4744              1078.2979              1096.5042
 Red. masses --      2.3612                 2.2245                 3.3666
 Frc consts  --      1.5734                 1.5239                 2.3849
 IR Inten    --     20.1310                18.8722                52.8651

                     25                     26                     27
                      A                      A                      A
 Frequencies --   1126.7470              1142.0412              1205.9309
 Red. masses --      1.8514                 1.2365                 1.3618
 Frc consts  --      1.3848                 0.9502                 1.1668
 IR Inten    --      3.8641                 1.3772                 3.8837

                     28                     29                     30
                      A                      A                      A
 Frequencies --   1213.4329              1252.8327              1277.3125
 Red. masses --      1.1631                 1.2803                 1.1849
 Frc consts  --      1.0090                 1.1840                 1.1390
 IR Inten    --      4.0532                 7.2817                10.0961

                     31                     32                     33
                      A                      A                      A
 Frequencies --   1293.1989              1317.6483              1339.2740
 Red. masses --      1.2612                 1.2811                 1.2392
 Frc consts  --      1.2427                 1.3105                 1.3096
 IR Inten    --     27.4844                 0.8141                 3.1188

                     34                     35                     36
                      A                      A                      A
 Frequencies --   1357.1939              1388.2117              1414.8950
 Red. masses --      1.3209                 1.4664                 1.5729
 Frc consts  --      1.4335                 1.6650                 1.8552
 IR Inten    --      1.7485                10.1414                 3.2007

                     37                     38                     39
                      A                      A                      A
 Frequencies --   1420.8827              1467.2570              1488.0662
 Red. masses --      1.5291                 2.6870                 1.0924
 Frc consts  --      1.8188                 3.4083                 1.4252
 IR Inten    --     10.1954                16.3048                 1.7899

                     40                     41                     42
                      A                      A                      A
 Frequencies --   1502.7224              1706.3636              3023.2867
 Red. masses --      1.1209                 7.0197                 1.0837
 Frc consts  --      1.4913                12.0424                 5.8360
 IR Inten    --      4.6075                 1.9948                17.4578

                     43                     44                     45
                      A                      A                      A
 Frequencies --   3038.1496              3045.6346              3078.3581
 Red. masses --      1.0648                 1.0613                 1.0849
 Frc consts  --      5.7905                 5.8001                 6.0574
 IR Inten    --     17.5810                25.8610                26.2639

                     46                     47                     48
                      A                      A                      A
 Frequencies --   3079.6339              3093.2649              3108.2533
 Red. masses --      1.0965                 1.1034                 1.0894
 Frc consts  --      6.1272                 6.2202                 6.2011
 IR Inten    --     20.5860                27.5498                34.8502

                     49                     50                     51
                      A                      A                      A
 Frequencies --   3146.9121              3169.4458              3812.6758
 Red. masses --      1.0835                 1.0971                 1.0662
 Frc consts  --      6.3218                 6.4930                 9.1319
 IR Inten    --      6.7885                29.4437                22.7115

 - Thermochemistry -
 -------------------
 Temperature   298.150 Kelvin.  Pressure   1.00000 Atm.
 Atom     1 has atomic number  8 and mass  15.99491

 Molecular mass:   126.06808 amu.
 Principal axes and moments of inertia in atomic units:
                           1         2         3
     Eigenvalues --   824.15317 992.552581615.11878
           X            0.99938  -0.03507  -0.00342
           Y            0.03508   0.99938   0.00217
           Z            0.00334  -0.00229   0.99999
 This molecule is an asymmetric top.
 Rotational symmetry number  1.
 Warning -- assumption of classical behavior for rotation
           may cause significant error
 Rotational temperatures (Kelvin)      0.10509     0.08726     0.05363
 Rotational constants (GHZ):           2.18981     1.81828     1.11740
 Zero-point vibrational energy     421349.4 (Joules/Mol)
                                  100.70492 (Kcal/Mol)
 Warning -- explicit consideration of  11 degrees of freedom as
           vibrations may cause significant error
 Vibrational temperatures:    182.70   241.47   333.37   405.79   453.76
          (Kelvin)            487.03   553.85   556.58   701.15   773.15
                              849.53   992.83  1092.36  1197.06  1215.41
                             1259.95  1276.45  1362.34  1417.18  1435.30
                             1479.75  1530.10  1551.43  1577.62  1621.14
                             1643.14  1735.06  1745.86  1802.54  1837.77
                             1860.62  1895.80  1926.91  1952.70  1997.32
                             2035.72  2044.33  2111.05  2140.99  2162.08
                             2455.07  4349.83  4371.21  4381.98  4429.07
                             4430.90  4450.51  4472.08  4527.70  4560.12
                             5485.58

 Zero-point correction=                           0.160484 (Hartree/Particle)
 Thermal correction to Energy=                    0.168465
 Thermal correction to Enthalpy=                  0.169409
 Thermal correction to Gibbs Free Energy=         0.128315
 Sum of electronic and zero-point Energies=           -423.007273
 Sum of electronic and thermal Energies=              -422.999292
 Sum of electronic and thermal Enthalpies=            -422.998348
 Sum of electronic and thermal Free Energies=         -423.039441

                     E (Thermal)             CV                S
                      KCal/Mol        Cal/Mol-Kelvin    Cal/Mol-Kelvin
 Total                  105.713             31.624             86.489
 Electronic               0.000              0.000              0.000
 Translational            0.889              2.981             40.409
 Rotational               0.889              2.981             28.670
 Vibrational            103.936             25.663             17.410
 Vibration     1          0.611              1.926              2.991
 Vibration     2          0.625              1.882              2.460
 Vibration     3          0.653              1.793              1.866
 Vibration     4          0.681              1.707              1.521
 Vibration     5          0.703              1.644              1.334
 Vibration     6          0.719              1.599              1.219
 Vibration     7          0.754              1.502              1.020
 Vibration     8          0.755              1.498              1.012
 Vibration     9          0.843              1.278              0.691
 Vibration    10          0.892              1.167              0.571
 Vibration    11          0.948              1.052              0.466

 Optimization completed.
    -- Stationary point found.
 Normal termination of Gaussian 09 at Tue Jan 28 09:01:49 2020.
