 Gaussian 09, Revision D.01,
 Gaussian 09:  ES64L-G09RevD.01 24-Apr-2013

 -----------------------------
 # b3lyp 6-31G(2df,p) opt Freq
 -----------------------------

 -----
 titel
 -----
 Symbolic Z-matrix:
 Charge =  0 Multiplicity = 1

 SCF Done:  E(RB3LYP) =  -423.192833323     A.U. after   14 cycles
 Optimization completed.
    -- Stationary point found.
 Normal termination of Gaussian 09 at Mon Jan 27 22:56:22 2020.

 ----------------------------------------------------------------------
 #N Geom=AllCheck Guess=TCheck SCRF=Check GenChk RB3LYP/6-31G(2df,p) Fr
 eq
 ----------------------------------------------------------------------

 Structure from the checkpoint file:  "/scratch/puck/g09_cc8591f6-f21c-4ab0-8ddd-232fb9deb0e6/Gau-191573.chk"
 -----
 titel
 -----
 Charge =  0 Multiplicity = 1

                         Standard orientation:
 ---------------------------------------------------------------------
 Center     Atomic      Atomic             Coordinates (Angstroms)
 Number     Number       Type             X           Y           Z
 ---------------------------------------------------------------------
      1          6           0        2.452903    0.148963   -0.528051
      2          6           0        1.305922   -0.115102    0.445821
      3          6           0        0.444717   -1.357794    0.133904
      4          6           0       -0.822509   -1.183620    0.993891
      5          6           0       -1.030499   -0.052279   -0.050167
      6          6           0       -2.342100    0.525108   -0.480438
      7          8           0       -0.323548   -0.901967   -1.031508
      8          6           0        0.138056    0.891476    0.299088
      9          8           0        0.144980    2.088411    0.385684
     10          1           0        2.103788    0.047614   -1.559207
     11          1           0        2.836092    1.164603   -0.394298
     12          1           0        3.277231   -0.553082   -0.367753
     13          1           0        1.670546   -0.106825    1.480000
     14          1           0        0.940523   -2.316839   -0.013190
     15          1           0       -1.542566   -1.990195    0.846201
     16          1           0       -0.719506   -0.924513    2.051414
     17          1           0       -2.203006    1.167290   -1.355069
     18          1           0       -3.058358   -0.261958   -0.729297
     19          1           0       -2.755136    1.141841    0.323511
 ---------------------------------------------------------------------

 SCF Done:  E(RB3LYP) =  -423.192833323     A.U. after    1 cycles

 The electronic state is 1-A.
 Alpha  occ. eigenvalues --  -19.14724 -19.13837 -10.26698 -10.25015 -10.24792
 Alpha  occ. eigenvalues --  -10.20179 -10.19871 -10.18585 -10.18061  -1.06435
 Alpha  occ. eigenvalues --   -1.04051  -0.80646  -0.77355  -0.73426  -0.66956
 Alpha  occ. eigenvalues --   -0.64802  -0.56314  -0.51226  -0.50106  -0.47906
 Alpha  occ. eigenvalues --   -0.46102  -0.45172  -0.42522  -0.42288  -0.39202
 Alpha  occ. eigenvalues --   -0.39044  -0.38505  -0.37340  -0.36158  -0.35288
 Alpha  occ. eigenvalues --   -0.33155  -0.32523  -0.28101  -0.22699
 Alpha virt. eigenvalues --   -0.01609   0.08920   0.09975   0.10350   0.12035
 Alpha virt. eigenvalues --    0.12635   0.14229   0.15567   0.16057   0.16459
 Alpha virt. eigenvalues --    0.17182   0.17750   0.18879   0.19216   0.21016

 Mulliken charges:
               1
     1  C   -0.414177
     2  C   -0.099675
     3  C    0.065900
     4  C   -0.290983
     5  C    0.293871
     6  C   -0.504491
     7  O   -0.330214
     8  C    0.417370
     9  O   -0.339633
    10  H    0.136979
    11  H    0.136244
    12  H    0.114225
    13  H    0.094920
    14  H    0.087263
    15  H    0.117818
    16  H    0.106273
    17  H    0.143543
    18  H    0.127124
    19  H    0.137642
 Sum of Mulliken charges =   0.00000

 Dipole moment (field-independent basis, Debye):
    X=             -0.1585    Y=             -2.2454    Z=              1.2827  Tot=              2.5908
 Quadrupole moment (field-independent basis, Debye-Ang):
   XX=            -48.8823   YY=            -58.2086   ZZ=            -53.7034
   XY=             -1.4250   XZ=             -0.2501   YZ=             -3.0767

  Exact polarizability:  85.095  -1.267  76.722   0.066  -1.416  63.484
 Approx polarizability: 108.881  -2.322 121.213   1.636   2.554 102.219

                      1                      2                      3
                      A                      A                      A
 Frequencies --    104.0049               155.0902               203.4343
 Red. masses --      3.4573                 1.0974                 2.3170
 Frc consts  --      0.0220                 0.0156                 0.0565
 IR Inten    --      3.2178                 0.2041                 1.0043

                      4                      5                      6
                      A                      A                      A
 Frequencies --    216.2386               238.4361               249.0012
 Red. masses --      1.1261                 3.4802                 3.2859
 Frc consts  --      0.0310                 0.1166                 0.1200
 IR Inten    --      0.2146                 4.4567                 3.2505

                      7                      8                      9
                      A                      A                      A
 Frequencies --    323.7543               440.4068               476.0920
 Red. masses --      2.7308                 2.5277                 3.6392
 Frc consts  --      0.1686                 0.2889                 0.4860
 IR Inten    --      3.5393                 1.8669                 0.9725

                     10                     11                     12
                      A                      A                      A
 Frequencies --    531.6518               627.5689               668.3300
 Red. masses --      4.2089                 3.8873                 4.6102
 Frc consts  --      0.7009                 0.9020                 1.2132
 IR Inten    --      7.0854                 4.5416                 7.6255

                     13                     14                     15
                      A                      A                      A
 Frequencies --    697.9565               779.3002               815.2722
 Red. masses --      3.3362                 3.3802                 2.8122
 Frc consts  --      0.9576                 1.2095                 1.1013
 IR Inten    --      5.0023                 5.8629                 4.9812

                     16                     17                     18
                      A                      A                      A
 Frequencies --    838.4973               883.8460               900.5550
 Red. masses --      2.3945                 3.0364                 3.1455
 Frc consts  --      0.9919                 1.3975                 1.5030
 IR Inten    --      7.6423                23.2835                17.0288

                     19                     20                     21
                      A                      A                      A
 Frequencies --    955.3050               980.9612              1012.1122
 Red. masses --      2.2101                 2.1551                 1.9183
 Frc consts  --      1.1883                 1.2218                 1.1578
 IR Inten    --     36.7854                 4.5665                 7.1862

                     22                     23                     24
                      A                      A                      A
 Frequencies --   1036.7615              1069.9597              1080.8160
 Red. masses --      1.2463                 1.7406                 1.6178
 Frc consts  --      0.7893                 1.1741                 1.1134
 IR Inten    --      7.5532                13.7210                 7.7042

                     25                     26                     27
                      A                      A                      A
 Frequencies --   1110.8008              1139.3227              1202.2599
 Red. masses --      1.8365                 2.0958                 1.9509
 Frc consts  --      1.3351                 1.6028                 1.6614
 IR Inten    --      5.5008                 7.0683                 6.7362

                     28                     29                     30
                      A                      A                      A
 Frequencies --   1212.8409              1255.2225              1259.8485
 Red. masses --      1.6927                 1.8593                 1.6041
 Frc consts  --      1.4670                 1.7260                 1.5001
 IR Inten    --     14.1797                 2.7214                 5.4347

                     31                     32                     33
                      A                      A                      A
 Frequencies --   1297.0842              1344.4354              1351.3932
 Red. masses --      1.4113                 1.9100                 2.2385
 Frc consts  --      1.3989                 2.0340                 2.4086
 IR Inten    --      8.3798                 5.5210                 1.2071

                     34                     35                     36
                      A                      A                      A
 Frequencies --   1401.0751              1418.4075              1474.6067
 Red. masses --      1.2187                 1.5754                 1.0516
 Frc consts  --      1.4095                 1.8674                 1.3473
 IR Inten    --      3.4855                11.4854                 3.7055

                     37                     38                     39
                      A                      A                      A
 Frequencies --   1484.0979              1487.5908              1493.2409
 Red. masses --      1.1334                 1.0752                 1.0519
 Frc consts  --      1.4708                 1.4018                 1.3819
 IR Inten    --      4.1273                 2.7828                 7.1791

                     40                     41                     42
                      A                      A                      A
 Frequencies --   1505.9488              1873.9230              3039.8922
 Red. masses --      1.0504                12.7452                 1.0463
 Frc consts  --      1.4036                26.3694                 5.6968
 IR Inten    --      2.6535               199.7449                23.6336

                     43                     44                     45
                      A                      A                      A
 Frequencies --   3042.0189              3046.7941              3061.3609
 Red. masses --      1.0699                 1.0350                 1.0586
 Frc consts  --      5.8332                 5.6607                 5.8455
 IR Inten    --     12.7847                12.0479                28.9825

                     46                     47                     48
                      A                      A                      A
 Frequencies --   3110.6261              3119.4515              3124.4429
 Red. masses --      1.1014                 1.1003                 1.0940
 Frc consts  --      6.2791                 6.3085                 6.2922
 IR Inten    --     14.7838                 7.7486                33.8710

                     49                     50                     51
                      A                      A                      A
 Frequencies --   3124.6033              3126.5380              3135.6397
 Red. masses --      1.1015                 1.1027                 1.1069
 Frc consts  --      6.3363                 6.3508                 6.4121
 IR Inten    --     14.8387                 7.7042                22.4990

 - Thermochemistry -
 -------------------
 Temperature   298.150 Kelvin.  Pressure   1.00000 Atm.
 Atom     1 has atomic number  6 and mass  12.00000

 Molecular mass:   126.06808 amu.
 Principal axes and moments of inertia in atomic units:
                           1         2         3
     Eigenvalues --   725.226491032.785631378.02299
           X            0.99969  -0.02347  -0.00811
           Y            0.02302   0.99839  -0.05177
           Z            0.00931   0.05157   0.99863
 This molecule is an asymmetric top.
 Rotational symmetry number  1.
 Warning -- assumption of classical behavior for rotation
           may cause significant error
 Rotational temperatures (Kelvin)      0.11943     0.08386     0.06285
 Rotational constants (GHZ):           2.48852     1.74745     1.30966
 Zero-point vibrational energy     415874.7 (Joules/Mol)
                                   99.39643 (Kcal/Mol)
 Warning -- explicit consideration of  10 degrees of freedom as
           vibrations may cause significant error
 Vibrational temperatures:    149.64   223.14   292.70   311.12   343.06
          (Kelvin)            358.26   465.81   633.65   684.99   764.93
                              902.93   961.58  1004.20  1121.24  1172.99
                             1206.41  1271.66  1295.70  1374.47  1411.38
                             1456.20  1491.67  1539.43  1555.05  1598.19
                             1639.23  1729.78  1745.01  1805.98  1812.64
                             1866.21  1934.34  1944.35  2015.83  2040.77
                             2121.63  2135.28  2140.31  2148.44  2166.72
                             2696.15  4373.72  4376.78  4383.65  4404.61
                             4475.49  4488.19  4495.37  4495.60  4498.39
                             4511.48

 Zero-point correction=                           0.158398 (Hartree/Particle)
 Thermal correction to Energy=                    0.166885
 Thermal correction to Enthalpy=                  0.167829
 Thermal correction to Gibbs Free Energy=         0.125647
 Sum of electronic and zero-point Energies=           -423.034435
 Sum of electronic and thermal Energies=              -423.025948
 Sum of electronic and thermal Enthalpies=            -423.025004
 Sum of electronic and thermal Free Energies=         -423.067186

                     E (Thermal)             CV                S
                      KCal/Mol        Cal/Mol-Kelvin    Cal/Mol-Kelvin
 Total                  104.722             32.525             88.780
 Electronic               0.000              0.000              0.000
 Translational            0.889              2.981             40.409
 Rotational               0.889              2.981             28.425
 Vibrational            102.945             26.564             19.947
 Vibration     1          0.605              1.946              3.378
 Vibration     2          0.620              1.897              2.609
 Vibration     3          0.639              1.835              2.102
 Vibration     4          0.645              1.816              1.990
 Vibration     5          0.656              1.782              1.815
 Vibration     6          0.662              1.764              1.738
 Vibration     7          0.708              1.628              1.291
 Vibration     8          0.800              1.382              0.825
 Vibration     9          0.833              1.303              0.721
 Vibration    10          0.887              1.180              0.584

 Normal termination of Gaussian 09 at Mon Jan 27 23:42:14 2020.
