 Gaussian 09, Revision D.01,
 Gaussian 09:  ES64L-G09RevD.01 24-Apr-2013

 -----------------------------
 # b3lyp 6-31G(2df,p) opt Freq
 -----------------------------

 -----
 titel
 -----
 Symbolic Z-matrix:
 Charge =  0 Multiplicity = 1

 SCF Done:  E(RB3LYP) =  -423.122700378     A.U. after   14 cycles
 Optimization completed.
    -- Stationary point found.
 Normal termination of Gaussian 09 at Mon Jan 27 16:12:46 2020.

 ----------------------------------------------------------------------
 #N Geom=AllCheck Guess=TCheck SCRF=Check GenChk RB3LYP/6-31G(2df,p) Fr
 eq
 ----------------------------------------------------------------------

 Structure from the checkpoint file:  "/scratch/puck/g09_58b41ecc-1ccb-4b30-b536-bc9f14efacd2/Gau-163313.chk"
 -----
 titel
 -----
 Charge =  0 Multiplicity = 1

                         Standard orientation:
 ---------------------------------------------------------------------
 Center     Atomic      Atomic             Coordinates (Angstroms)
 Number     Number       Type             X           Y           Z
 ---------------------------------------------------------------------
      1          6           0        2.240129    1.062967   -0.307978
      2          6           0        1.346848   -0.112014    0.017066
      3          8           0        1.657562   -1.286500   -0.694151
      4          6           0        0.776307   -0.281434    1.410514
      5          6           0       -0.119775    0.071306    0.249090
      6          6           0       -0.972971    1.338602   -0.018659
      7          6           0       -2.036527    0.401248   -0.623291
      8          8           0       -2.413466   -0.537571    0.387638
      9          6           0       -1.210388   -0.788331   -0.359172
     10          1           0        2.218690    1.277393   -1.381579
     11          1           0        1.930969    1.961963    0.232457
     12          1           0        3.278660    0.847730   -0.028159
     13          1           0        2.485696   -1.633418   -0.343868
     14          1           0        0.705066   -1.290565    1.803262
     15          1           0        0.982852    0.485487    2.151040
     16          1           0       -1.302169    1.909361    0.853496
     17          1           0       -0.520516    2.009699   -0.754301
     18          1           0       -2.753308    0.605666   -1.409853
     19          1           0       -1.120449   -1.734815   -0.875818
 ---------------------------------------------------------------------

 SCF Done:  E(RB3LYP) =  -423.122700378     A.U. after    1 cycles

 The electronic state is 1-A.
 Alpha  occ. eigenvalues --  -19.14369 -19.14258 -10.24239 -10.23214 -10.22971
 Alpha  occ. eigenvalues --  -10.19718 -10.18922 -10.18279 -10.18060  -1.06912
 Alpha  occ. eigenvalues --   -1.02945  -0.85709  -0.76593  -0.71709  -0.64907
 Alpha  occ. eigenvalues --   -0.60265  -0.59047  -0.53395  -0.52079  -0.48872
 Alpha  occ. eigenvalues --   -0.45443  -0.44365  -0.43124  -0.41533  -0.40147
 Alpha  occ. eigenvalues --   -0.38634  -0.37871  -0.36576  -0.34171  -0.31814
 Alpha  occ. eigenvalues --   -0.29742  -0.26672  -0.25717  -0.24401
 Alpha virt. eigenvalues --    0.07047   0.09416   0.10295   0.10488   0.11910
 Alpha virt. eigenvalues --    0.12705   0.14431   0.15597   0.15876   0.16743
 Alpha virt. eigenvalues --    0.17043   0.17830   0.18423   0.19927   0.22371

 Mulliken charges:
               1
     1  C   -0.445893
     2  C    0.318108
     3  O   -0.464477
     4  C   -0.416859
     5  C    0.326676
     6  C   -0.352914
     7  C    0.036731
     8  O   -0.250885
     9  C   -0.052180
    10  H    0.125979
    11  H    0.121755
    12  H    0.110180
    13  H    0.281890
    14  H    0.116175
    15  H    0.110656
    16  H    0.110572
    17  H    0.108918
    18  H    0.103557
    19  H    0.112012
 Sum of Mulliken charges =   0.00000

 Dipole moment (field-independent basis, Debye):
    X=              2.2617    Y=              0.9289    Z=             -0.3249  Tot=              2.4666
 Quadrupole moment (field-independent basis, Debye-Ang):
   XX=            -52.6898   YY=            -50.7835   ZZ=            -53.6606
   XY=             -3.4993   XZ=              4.8132   YZ=             -0.7470

  Exact polarizability:  86.891  -2.586  73.858   3.505  -1.175  66.838
 Approx polarizability: 116.807  -5.331 109.896   1.528  -2.127 103.158

                      1                      2                      3
                      A                      A                      A
 Frequencies --    121.5326               152.3240               170.0249
 Red. masses --      3.5890                 3.4935                 3.2803
 Frc consts  --      0.0312                 0.0478                 0.0559
 IR Inten    --      2.4721                 0.6759                 2.9542

                      4                      5                      6
                      A                      A                      A
 Frequencies --    226.0148               283.5587               290.2455
 Red. masses --      1.0990                 1.1241                 3.0067
 Frc consts  --      0.0331                 0.0533                 0.1492
 IR Inten    --      0.1923                87.2341                 0.9128

                      7                      8                      9
                      A                      A                      A
 Frequencies --    380.6417               399.9235               429.3951
 Red. masses --      2.3306                 2.3063                 3.6492
 Frc consts  --      0.1990                 0.2173                 0.3964
 IR Inten    --      1.9436                 3.1665                 4.1473

                     10                     11                     12
                      A                      A                      A
 Frequencies --    444.0808               568.9990               587.8922
 Red. masses --      2.7313                 3.0751                 3.7167
 Frc consts  --      0.3174                 0.5866                 0.7568
 IR Inten    --     13.2038                 8.1815                 5.3234

                     13                     14                     15
                      A                      A                      A
 Frequencies --    716.7626               790.6525               840.7629
 Red. masses --      3.6408                 4.8365                 2.0091
 Frc consts  --      1.1020                 1.7814                 0.8368
 IR Inten    --      5.2789                 3.2722                15.3280

                     16                     17                     18
                      A                      A                      A
 Frequencies --    858.2647               876.7687               903.4612
 Red. masses --      2.2116                 2.0300                 1.4843
 Frc consts  --      0.9599                 0.9194                 0.7138
 IR Inten    --     17.9531                 7.9313                 2.8830

                     19                     20                     21
                      A                      A                      A
 Frequencies --    918.0834               934.2791               970.7617
 Red. masses --      2.2286                 2.5074                 1.9164
 Frc consts  --      1.1067                 1.2895                 1.0641
 IR Inten    --      0.8732                 6.8210                10.6242

                     22                     23                     24
                      A                      A                      A
 Frequencies --    986.2433              1031.6323              1040.5696
 Red. masses --      1.8751                 1.6373                 1.3380
 Frc consts  --      1.0746                 1.0266                 0.8536
 IR Inten    --     24.7217                 4.0887                 3.1448

                     25                     26                     27
                      A                      A                      A
 Frequencies --   1072.6095              1081.1735              1135.9392
 Red. masses --      1.8401                 1.5323                 1.7434
 Frc consts  --      1.2473                 1.0553                 1.3254
 IR Inten    --      2.7057                35.2800                 0.9559

                     28                     29                     30
                      A                      A                      A
 Frequencies --   1164.1536              1173.6509              1223.6755
 Red. masses --      1.8144                 2.1214                 1.4105
 Frc consts  --      1.4488                 1.7217                 1.2444
 IR Inten    --      8.7913                15.4187                 6.3232

                     31                     32                     33
                      A                      A                      A
 Frequencies --   1235.1453              1252.8000              1276.1851
 Red. masses --      1.9769                 1.8515                 2.2697
 Frc consts  --      1.7769                 1.7121                 2.1779
 IR Inten    --     17.2701                34.7353                55.2654

                     34                     35                     36
                      A                      A                      A
 Frequencies --   1319.9732              1376.8155              1407.3024
 Red. masses --      1.6159                 3.4380                 1.3153
 Frc consts  --      1.6588                 3.8398                 1.5348
 IR Inten    --     17.2110                20.3165                 5.7468

                     37                     38                     39
                      A                      A                      A
 Frequencies --   1423.6439              1469.1633              1481.8160
 Red. masses --      1.4858                 1.1150                 1.2840
 Frc consts  --      1.7743                 1.4180                 1.6612
 IR Inten    --     10.7730                 1.8334                 9.2137

                     40                     41                     42
                      A                      A                      A
 Frequencies --   1485.8884              1510.6029              3025.4257
 Red. masses --      1.0925                 1.5859                 1.0378
 Frc consts  --      1.4212                 2.1321                 5.5969
 IR Inten    --      2.0553                 8.0740                28.2064

                     43                     44                     45
                      A                      A                      A
 Frequencies --   3056.4745              3087.9582              3112.9599
 Red. masses --      1.0569                 1.0985                 1.1072
 Frc consts  --      5.8173                 6.1713                 6.3218
 IR Inten    --     26.1272                24.4441                28.1340

                     46                     47                     48
                      A                      A                      A
 Frequencies --   3115.3121              3121.3581              3186.2319
 Red. masses --      1.0996                 1.0560                 1.0906
 Frc consts  --      6.2876                 6.0617                 6.5233
 IR Inten    --      5.8159                12.3446                21.0125

                     49                     50                     51
                      A                      A                      A
 Frequencies --   3211.1529              3213.0791              3791.5944
 Red. masses --      1.1168                 1.0983                 1.0661
 Frc consts  --      6.7852                 6.6806                 9.0298
 IR Inten    --      5.8156                12.7565                15.1585

 - Thermochemistry -
 -------------------
 Temperature   298.150 Kelvin.  Pressure   1.00000 Atm.
 Atom     1 has atomic number  6 and mass  12.00000

 Molecular mass:   126.06808 amu.
 Principal axes and moments of inertia in atomic units:
                           1         2         3
     Eigenvalues --   552.424851425.816131577.43960
           X            0.99988   0.00799   0.01352
           Y           -0.00759   0.99955  -0.02892
           Z           -0.01375   0.02881   0.99949
 This molecule is an asymmetric top.
 Rotational symmetry number  1.
 Warning -- assumption of classical behavior for rotation
           may cause significant error
 Rotational temperatures (Kelvin)      0.15679     0.06075     0.05491
 Rotational constants (GHZ):           3.26694     1.26576     1.14410
 Zero-point vibrational energy     412322.6 (Joules/Mol)
                                   98.54747 (Kcal/Mol)
 Warning -- explicit consideration of  12 degrees of freedom as
           vibrations may cause significant error
 Vibrational temperatures:    174.86   219.16   244.63   325.18   407.98
          (Kelvin)            417.60   547.66   575.40   617.80   638.93
                              818.66   845.84  1031.26  1137.57  1209.67
                             1234.85  1261.47  1299.88  1320.92  1344.22
                             1396.71  1418.98  1484.29  1497.15  1543.24
                             1555.57  1634.36  1674.96  1688.62  1760.59
                             1777.10  1802.50  1836.14  1899.14  1980.93
                             2024.79  2048.30  2113.80  2132.00  2137.86
                             2173.42  4352.91  4397.58  4442.88  4478.85
                             4482.23  4490.93  4584.27  4620.13  4622.90
                             5455.25

 Zero-point correction=                           0.157045 (Hartree/Particle)
 Thermal correction to Energy=                    0.165644
 Thermal correction to Enthalpy=                  0.166588
 Thermal correction to Gibbs Free Energy=         0.124292
 Sum of electronic and zero-point Energies=           -422.965655
 Sum of electronic and thermal Energies=              -422.957056
 Sum of electronic and thermal Enthalpies=            -422.956112
 Sum of electronic and thermal Free Energies=         -422.998408

                     E (Thermal)             CV                S
                      KCal/Mol        Cal/Mol-Kelvin    Cal/Mol-Kelvin
 Total                  103.943             33.615             89.020
 Electronic               0.000              0.000              0.000
 Translational            0.889              2.981             40.409
 Rotational               0.889              2.981             28.609
 Vibrational            102.166             27.654             20.002
 Vibration     1          0.609              1.931              3.076
 Vibration     2          0.619              1.900              2.643
 Vibration     3          0.625              1.879              2.435
 Vibration     4          0.650              1.801              1.910
 Vibration     5          0.682              1.704              1.512
 Vibration     6          0.686              1.692              1.473
 Vibration     7          0.750              1.511              1.037
 Vibration     8          0.766              1.470              0.963
 Vibration     9          0.791              1.406              0.861
 Vibration    10          0.804              1.374              0.814
 Vibration    11          0.925              1.098              0.506
 Vibration    12          0.945              1.058              0.471

 Optimization completed.
    -- Stationary point found.
 Normal termination of Gaussian 09 at Mon Jan 27 16:59:16 2020.
