 Gaussian 09, Revision D.01,
 Gaussian 09:  ES64L-G09RevD.01 24-Apr-2013

 -----------------------------
 # b3lyp 6-31G(2df,p) opt Freq
 -----------------------------

 -----
 titel
 -----
 Symbolic Z-matrix:
 Charge =  0 Multiplicity = 1

 SCF Done:  E(RB3LYP) =  -423.088890875     A.U. after   14 cycles
 Optimization completed.
    -- Stationary point found.
 Normal termination of Gaussian 09 at Tue Jan 28 09:18:54 2020.

 ----------------------------------------------------------------------
 #N Geom=AllCheck Guess=TCheck SCRF=Check GenChk RB3LYP/6-31G(2df,p) Fr
 eq
 ----------------------------------------------------------------------

 Structure from the checkpoint file:  "/scratch/puck/g09_3c181e4e-ac16-43de-8eb8-73f236c67343/Gau-84016.chk"
 -----
 titel
 -----
 Charge =  0 Multiplicity = 1

                         Standard orientation:
 ---------------------------------------------------------------------
 Center     Atomic      Atomic             Coordinates (Angstroms)
 Number     Number       Type             X           Y           Z
 ---------------------------------------------------------------------
      1          8           0        2.084881   -1.275033   -0.206021
      2          6           0        1.770439   -0.205927    0.668379
      3          6           0        0.481884    0.445246    0.264986
      4          6           0       -0.233386    1.736571    0.744161
      5          6           0       -0.904240    1.246262   -0.564758
      6          8           0        0.450827    1.002871   -1.126852
      7          6           0       -0.895759   -0.181770   -0.015030
      8          6           0       -1.835183   -1.022700    0.776152
      9          6           0       -1.299147   -1.492767   -0.576885
     10          1           0        1.943646   -0.941685   -1.100797
     11          1           0        1.680348   -0.625069    1.676613
     12          1           0        2.568131    0.553551    0.689876
     13          1           0       -0.813070    1.685796    1.668438
     14          1           0        0.352635    2.651235    0.644401
     15          1           0       -1.628946    1.748089   -1.205612
     16          1           0       -1.466208   -1.518666    1.668633
     17          1           0       -2.878265   -0.727174    0.831969
     18          1           0       -0.561047   -2.286896   -0.579263
     19          1           0       -1.990531   -1.511383   -1.413304
 ---------------------------------------------------------------------

 SCF Done:  E(RB3LYP) =  -423.088890875     A.U. after    1 cycles

 The electronic state is 1-A.
 Alpha  occ. eigenvalues --  -19.13746 -19.13246 -10.25079 -10.25062 -10.23410
 Alpha  occ. eigenvalues --  -10.20346 -10.19509 -10.18961 -10.18463  -1.05633
 Alpha  occ. eigenvalues --   -1.01729  -0.85736  -0.77515  -0.72320  -0.63899
 Alpha  occ. eigenvalues --   -0.61983  -0.60297  -0.52537  -0.51841  -0.48885
 Alpha  occ. eigenvalues --   -0.47362  -0.46095  -0.44585  -0.41732  -0.38422
 Alpha  occ. eigenvalues --   -0.37632  -0.36644  -0.35899  -0.32014  -0.31643
 Alpha  occ. eigenvalues --   -0.30121  -0.28314  -0.26801  -0.23936
 Alpha virt. eigenvalues --    0.07210   0.09207   0.09720   0.11102   0.11433
 Alpha virt. eigenvalues --    0.13258   0.13452   0.14354   0.15313   0.16374
 Alpha virt. eigenvalues --    0.17091   0.17841   0.19214   0.19962   0.22325

 Mulliken charges:
               1
     1  O   -0.414805
     2  C   -0.194710
     3  C    0.289462
     4  C   -0.276178
     5  C   -0.049925
     6  O   -0.359434
     7  C    0.432280
     8  C   -0.366411
     9  C   -0.362717
    10  H    0.298164
    11  H    0.116092
    12  H    0.102505
    13  H    0.101756
    14  H    0.105821
    15  H    0.097449
    16  H    0.117796
    17  H    0.115481
    18  H    0.132418
    19  H    0.114956
 Sum of Mulliken charges =   0.00000

 Dipole moment (field-independent basis, Debye):
    X=             -1.4790    Y=              0.8616    Z=              1.0194  Tot=              1.9922
 Quadrupole moment (field-independent basis, Debye-Ang):
   XX=            -52.9698   YY=            -55.2686   ZZ=            -51.8234
   XY=              0.9631   XZ=              1.3828   YZ=              1.5146

  Exact polarizability:  78.431   2.147  78.643   1.212   1.632  70.671
 Approx polarizability: 109.569   0.499 111.160  -1.920  -0.036 112.597

                      1                      2                      3
                      A                      A                      A
 Frequencies --     94.1203               144.4632               204.1314
 Red. masses --      3.9694                 3.9496                 2.2231
 Frc consts  --      0.0207                 0.0486                 0.0546
 IR Inten    --      5.5904                 0.9706                 0.7145

                      4                      5                      6
                      A                      A                      A
 Frequencies --    211.7212               264.1676               363.7636
 Red. masses --      3.2844                 2.3784                 2.2839
 Frc consts  --      0.0867                 0.0978                 0.1781
 IR Inten    --      1.7347                 4.7834                 7.6032

                      7                      8                      9
                      A                      A                      A
 Frequencies --    408.1960               437.9026               483.6798
 Red. masses --      1.6572                 2.0641                 3.2914
 Frc consts  --      0.1627                 0.2332                 0.4537
 IR Inten    --     61.6839                73.5257                 5.7373

                     10                     11                     12
                      A                      A                      A
 Frequencies --    586.3348               661.0095               686.6105
 Red. masses --      2.6190                 3.6863                 4.6995
 Frc consts  --      0.5305                 0.9490                 1.3053
 IR Inten    --      1.8919                21.0802                19.7186

                     13                     14                     15
                      A                      A                      A
 Frequencies --    713.0689               782.0162               809.1056
 Red. masses --      2.8225                 1.0951                 2.7116
 Frc consts  --      0.8456                 0.3946                 1.0459
 IR Inten    --      1.9103                 0.1248                 5.4322

                     16                     17                     18
                      A                      A                      A
 Frequencies --    880.6284               915.4302               926.9937
 Red. masses --      3.0374                 1.3530                 2.4149
 Frc consts  --      1.3878                 0.6680                 1.2226
 IR Inten    --     33.8855                 3.2244                 7.0754

                     19                     20                     21
                      A                      A                      A
 Frequencies --    975.1457               991.1929              1002.6236
 Red. masses --      2.6767                 2.6629                 2.6038
 Frc consts  --      1.4996                 1.5414                 1.5422
 IR Inten    --     12.4160                 3.5933                 3.5268

                     22                     23                     24
                      A                      A                      A
 Frequencies --   1014.7514              1047.2003              1064.9964
 Red. masses --      1.3861                 1.4383                 2.6646
 Frc consts  --      0.8410                 0.9293                 1.7806
 IR Inten    --      3.2533                 6.7021                33.6368

                     25                     26                     27
                      A                      A                      A
 Frequencies --   1071.1883              1080.3935              1120.4589
 Red. masses --      2.9630                 1.6182                 1.6186
 Frc consts  --      2.0032                 1.1129                 1.1972
 IR Inten    --     64.7055                 1.7028                 1.8777

                     28                     29                     30
                      A                      A                      A
 Frequencies --   1160.3103              1182.1353              1201.0398
 Red. masses --      1.6122                 1.2623                 1.3894
 Frc consts  --      1.2789                 1.0393                 1.1808
 IR Inten    --      6.9401                 0.0579                 9.2981

                     31                     32                     33
                      A                      A                      A
 Frequencies --   1210.0878              1215.6837              1239.2069
 Red. masses --      1.5611                 1.9394                 1.3612
 Frc consts  --      1.3468                 1.6887                 1.2316
 IR Inten    --      2.7815                 5.8793                13.2221

                     34                     35                     36
                      A                      A                      A
 Frequencies --   1311.9467              1371.8128              1425.1996
 Red. masses --      2.5211                 1.3898                 1.5837
 Frc consts  --      2.5567                 1.5409                 1.8953
 IR Inten    --     18.1475                13.9082                 9.7726

                     37                     38                     39
                      A                      A                      A
 Frequencies --   1443.1097              1460.8394              1482.5177
 Red. masses --      1.3946                 1.0889                 1.2446
 Frc consts  --      1.7112                 1.3691                 1.6116
 IR Inten    --     42.5851                 1.3777                 0.3503

                     40                     41                     42
                      A                      A                      A
 Frequencies --   1493.8755              1527.9149              2982.7866
 Red. masses --      1.0863                 2.4680                 1.0692
 Frc consts  --      1.4283                 3.3946                 5.6046
 IR Inten    --      1.3633                 1.1611                51.2793

                     43                     44                     45
                      A                      A                      A
 Frequencies --   3067.7174              3070.8807              3122.6389
 Red. masses --      1.0558                 1.0911                 1.0531
 Frc consts  --      5.8542                 6.0624                 6.0499
 IR Inten    --     26.9376                23.2000                13.7315

                     46                     47                     48
                      A                      A                      A
 Frequencies --   3123.6486              3132.2272              3150.1476
 Red. masses --      1.0937                 1.0558                 1.1117
 Frc consts  --      6.2873                 6.1031                 6.4995
 IR Inten    --     47.7063                11.2312                23.7869

                     49                     50                     51
                      A                      A                      A
 Frequencies --   3202.6630              3222.9636              3786.3536
 Red. masses --      1.1170                 1.1153                 1.0658
 Frc consts  --      6.7503                 6.8261                 9.0030
 IR Inten    --      3.6035                 8.1553                27.1098

 - Thermochemistry -
 -------------------
 Temperature   298.150 Kelvin.  Pressure   1.00000 Atm.
 Atom     1 has atomic number  8 and mass  15.99491

 Molecular mass:   126.06808 amu.
 Principal axes and moments of inertia in atomic units:
                           1         2         3
     Eigenvalues --   814.880411033.886521393.13614
           X            0.99802   0.06209   0.01001
           Y           -0.06237   0.99758   0.03069
           Z           -0.00808  -0.03126   0.99948
 This molecule is an asymmetric top.
 Rotational symmetry number  1.
 Warning -- assumption of classical behavior for rotation
           may cause significant error
 Rotational temperatures (Kelvin)      0.10629     0.08377     0.06217
 Rotational constants (GHZ):           2.21473     1.74559     1.29545
 Zero-point vibrational energy     415875.8 (Joules/Mol)
                                   99.39670 (Kcal/Mol)
 Warning -- explicit consideration of  10 degrees of freedom as
           vibrations may cause significant error
 Vibrational temperatures:    135.42   207.85   293.70   304.62   380.08
          (Kelvin)            523.37   587.30   630.04   695.91   843.60
                              951.04   987.88  1025.95  1125.15  1164.12
                             1267.03  1317.10  1333.74  1403.02  1426.10
                             1442.55  1460.00  1506.69  1532.29  1541.20
                             1554.44  1612.09  1669.43  1700.83  1728.03
                             1741.04  1749.10  1782.94  1887.60  1973.73
                             2050.54  2076.31  2101.82  2133.01  2149.35
                             2198.33  4291.56  4413.76  4418.31  4492.78
                             4494.23  4506.57  4532.35  4607.91  4637.12
                             5447.71

 Zero-point correction=                           0.158399 (Hartree/Particle)
 Thermal correction to Energy=                    0.166633
 Thermal correction to Enthalpy=                  0.167577
 Thermal correction to Gibbs Free Energy=         0.125774
 Sum of electronic and zero-point Energies=           -422.930492
 Sum of electronic and thermal Energies=              -422.922258
 Sum of electronic and thermal Enthalpies=            -422.921314
 Sum of electronic and thermal Free Energies=         -422.963117

                     E (Thermal)             CV                S
                      KCal/Mol        Cal/Mol-Kelvin    Cal/Mol-Kelvin
 Total                  104.563             32.324             87.981
 Electronic               0.000              0.000              0.000
 Translational            0.889              2.981             40.409
 Rotational               0.889              2.981             28.553
 Vibrational            102.786             26.363             19.020
 Vibration     1          0.603              1.953              3.573
 Vibration     2          0.616              1.909              2.744
 Vibration     3          0.640              1.834              2.096
 Vibration     4          0.643              1.823              2.029
 Vibration     5          0.671              1.739              1.634
 Vibration     6          0.737              1.547              1.106
 Vibration     7          0.773              1.452              0.933
 Vibration     8          0.798              1.388              0.833
 Vibration     9          0.840              1.286              0.700
 Vibration    10          0.943              1.061              0.474

 Optimization completed.
    -- Stationary point found.
 Normal termination of Gaussian 09 at Tue Jan 28 10:09:37 2020.
