 Gaussian 09, Revision D.01,
 Gaussian 09:  ES64L-G09RevD.01 24-Apr-2013

 -----------------------------
 # b3lyp 6-31G(2df,p) opt Freq
 -----------------------------

 -----
 titel
 -----
 Symbolic Z-matrix:
 Charge =  0 Multiplicity = 1

 SCF Done:  E(RB3LYP) =  -423.154628814     A.U. after   14 cycles
 Optimization completed.
    -- Stationary point found.
 Normal termination of Gaussian 09 at Mon Jan 27 15:52:40 2020.

 ----------------------------------------------------------------------
 #N Geom=AllCheck Guess=TCheck SCRF=Check GenChk RB3LYP/6-31G(2df,p) Fr
 eq
 ----------------------------------------------------------------------

 Structure from the checkpoint file:  "/scratch/puck/g09_5495f7c7-f09c-4615-a2d4-5f1bc6639679/Gau-35049.chk"
 -----
 titel
 -----
 Charge =  0 Multiplicity = 1

                         Standard orientation:
 ---------------------------------------------------------------------
 Center     Atomic      Atomic             Coordinates (Angstroms)
 Number     Number       Type             X           Y           Z
 ---------------------------------------------------------------------
      1          6           0       -0.862695    1.936516    0.022008
      2          6           0       -0.016869    0.719578   -0.371798
      3          6           0        1.470436    0.980883   -0.024565
      4          6           0        2.356791   -0.147067   -0.286482
      5          6           0        3.065014   -1.097387   -0.492725
      6          6           0       -0.514483   -0.574021    0.300252
      7          8           0       -0.469202   -0.521421    1.720138
      8          6           0       -1.941030   -0.934752   -0.090037
      9          8           0       -2.415122   -0.746836   -1.180395
     10          1           0       -0.885201    2.051758    1.110085
     11          1           0       -0.451076    2.853436   -0.411340
     12          1           0       -1.889821    1.831360   -0.335217
     13          1           0       -0.100831    0.553171   -1.451288
     14          1           0        1.814705    1.856245   -0.588043
     15          1           0        1.540059    1.258042    1.035475
     16          1           0        3.706561   -1.921728   -0.684600
     17          1           0        0.103775   -1.408284   -0.069377
     18          1           0        0.403238   -0.808960    2.003521
     19          1           0       -2.509811   -1.421480    0.732941
 ---------------------------------------------------------------------

 SCF Done:  E(RB3LYP) =  -423.154628814     A.U. after    1 cycles

 The electronic state is 1-A.
 Alpha  occ. eigenvalues --  -19.15355 -19.14471 -10.27153 -10.24371 -10.21544
 Alpha  occ. eigenvalues --  -10.20266 -10.19213 -10.18168 -10.17700  -1.05364
 Alpha  occ. eigenvalues --   -1.03359  -0.82666  -0.76262  -0.71889  -0.69419
 Alpha  occ. eigenvalues --   -0.61772  -0.55378  -0.53785  -0.52414  -0.48875
 Alpha  occ. eigenvalues --   -0.48189  -0.47021  -0.43542  -0.41561  -0.40766
 Alpha  occ. eigenvalues --   -0.38615  -0.37560  -0.36936  -0.35444  -0.33977
 Alpha  occ. eigenvalues --   -0.29103  -0.27449  -0.27282  -0.25298
 Alpha virt. eigenvalues --   -0.02916   0.04269   0.04682   0.06564   0.10920
 Alpha virt. eigenvalues --    0.11963   0.12547   0.13214   0.15091   0.15740
 Alpha virt. eigenvalues --    0.16245   0.18483   0.19810   0.20718   0.23105

 Mulliken charges:
               1
     1  C   -0.414622
     2  C    0.018257
     3  C   -0.380250
     4  C    0.279693
     5  C   -0.434651
     6  C    0.002614
     7  O   -0.436942
     8  C    0.157496
     9  O   -0.252193
    10  H    0.129831
    11  H    0.111940
    12  H    0.134663
    13  H    0.106929
    14  H    0.137142
    15  H    0.131970
    16  H    0.200130
    17  H    0.115594
    18  H    0.299754
    19  H    0.092645
 Sum of Mulliken charges =   0.00000

 Dipole moment (field-independent basis, Debye):
    X=              2.2191    Y=             -0.0916    Z=              1.2279  Tot=              2.5378
 Quadrupole moment (field-independent basis, Debye-Ang):
   XX=            -57.1958   YY=            -48.6102   ZZ=            -56.5819
   XY=             -3.0498   XZ=             -2.2972   YZ=             -1.6372

  Exact polarizability:  89.234  -9.423  78.151  -1.182   0.252  65.167
 Approx polarizability: 118.933 -20.135 117.972   0.853   2.105 105.963

                      1                      2                      3
                      A                      A                      A
 Frequencies --     31.6907                83.5322               110.9412
 Red. masses --      5.4410                 4.0509                 2.5623
 Frc consts  --      0.0032                 0.0167                 0.0186
 IR Inten    --      2.9382                 4.5215                 4.4817

                      4                      5                      6
                      A                      A                      A
 Frequencies --    135.5741               190.9094               217.2831
 Red. masses --      3.3105                 4.2741                 1.2309
 Frc consts  --      0.0359                 0.0918                 0.0342
 IR Inten    --      0.8933                 2.7395                 0.6366

                      7                      8                      9
                      A                      A                      A
 Frequencies --    252.9591               271.9403               309.2906
 Red. masses --      2.7562                 2.8232                 1.2863
 Frc consts  --      0.1039                 0.1230                 0.0725
 IR Inten    --     30.3348                 1.6362                63.7053

                     10                     11                     12
                      A                      A                      A
 Frequencies --    349.5381               365.0072               433.3352
 Red. masses --      2.9962                 2.4315                 3.6913
 Frc consts  --      0.2157                 0.1909                 0.4084
 IR Inten    --      3.8820                 2.6956                 6.8227

                     13                     14                     15
                      A                      A                      A
 Frequencies --    526.2560               590.2851               625.7422
 Red. masses --      5.6557                 2.7764                 1.4777
 Frc consts  --      0.9229                 0.5700                 0.3409
 IR Inten    --      8.8953                 0.4784                31.6339

                     16                     17                     18
                      A                      A                      A
 Frequencies --    633.0683               644.0550               739.6504
 Red. masses --      2.3010                 1.2747                 3.1915
 Frc consts  --      0.5433                 0.3115                 1.0287
 IR Inten    --     37.6890                31.7696                 5.0828

                     19                     20                     21
                      A                      A                      A
 Frequencies --    892.3162               913.7223               944.9372
 Red. masses --      1.6073                 1.7928                 2.4431
 Frc consts  --      0.7540                 0.8819                 1.2853
 IR Inten    --      7.7612                 1.9318                 0.9485

                     22                     23                     24
                      A                      A                      A
 Frequencies --    993.9590              1011.3387              1040.9891
 Red. masses --      2.3124                 2.1972                 2.0281
 Frc consts  --      1.3460                 1.3241                 1.2949
 IR Inten    --      1.8965                49.6248                13.5982

                     25                     26                     27
                      A                      A                      A
 Frequencies --   1113.6417              1122.9774              1156.7150
 Red. masses --      2.0897                 2.3742                 2.4727
 Frc consts  --      1.5269                 1.7640                 1.9493
 IR Inten    --     19.1877                 1.1425                20.6093

                     28                     29                     30
                      A                      A                      A
 Frequencies --   1227.2297              1237.7622              1294.0360
 Red. masses --      1.2509                 1.1507                 1.2700
 Frc consts  --      1.1100                 1.0387                 1.2530
 IR Inten    --      1.4364                55.8923                 9.4115

                     31                     32                     33
                      A                      A                      A
 Frequencies --   1314.6746              1345.2129              1368.1382
 Red. masses --      1.4118                 1.3967                 1.4869
 Frc consts  --      1.4377                 1.4892                 1.6398
 IR Inten    --     19.2660                 8.8053                 6.6407

                     34                     35                     36
                      A                      A                      A
 Frequencies --   1384.8064              1406.6301              1429.5856
 Red. masses --      1.2427                 1.2552                 1.3977
 Frc consts  --      1.4040                 1.4633                 1.6829
 IR Inten    --     10.2573                 4.8876                 4.0063

                     37                     38                     39
                      A                      A                      A
 Frequencies --   1473.1632              1498.1681              1508.8901
 Red. masses --      1.0873                 1.0475                 1.0501
 Frc consts  --      1.3903                 1.3852                 1.4086
 IR Inten    --      3.3213                 4.8267                 5.0740

                     40                     41                     42
                      A                      A                      A
 Frequencies --   1832.8152              2231.5640              2897.3551
 Red. masses --     10.8510                 5.9387                 1.0848
 Frc consts  --     21.4761                17.4244                 5.3653
 IR Inten    --    123.5833                 1.6939               105.3442

                     43                     44                     45
                      A                      A                      A
 Frequencies --   2980.7301              3022.6062              3042.6336
 Red. masses --      1.0803                 1.0608                 1.0367
 Frc consts  --      5.6551                 5.7103                 5.6544
 IR Inten    --     19.7976                10.6247                18.9452

                     46                     47                     48
                      A                      A                      A
 Frequencies --   3052.4828              3066.2781              3109.8097
 Red. masses --      1.0888                 1.0924                 1.1010
 Frc consts  --      5.9774                 6.0514                 6.2732
 IR Inten    --      7.7397                11.8243                21.9545

                     49                     50                     51
                      A                      A                      A
 Frequencies --   3127.0146              3503.8037              3840.0607
 Red. masses --      1.1012                 1.1616                 1.0669
 Frc consts  --      6.3442                 8.4023                 9.2690
 IR Inten    --     15.3757                69.5692                34.8665

 - Thermochemistry -
 -------------------
 Temperature   298.150 Kelvin.  Pressure   1.00000 Atm.
 Atom     1 has atomic number  6 and mass  12.00000

 Molecular mass:   126.06808 amu.
 Principal axes and moments of inertia in atomic units:
                           1         2         3
     Eigenvalues --   789.102851702.309321874.13172
           X            0.99974  -0.02073  -0.00948
           Y            0.02048   0.99946  -0.02573
           Z            0.01000   0.02552   0.99962
 This molecule is an asymmetric top.
 Rotational symmetry number  1.
 Warning -- assumption of classical behavior for rotation
           may cause significant error
 Rotational temperatures (Kelvin)      0.10976     0.05088     0.04622
 Rotational constants (GHZ):           2.28708     1.06017     0.96297
 Zero-point vibrational energy     406114.9 (Joules/Mol)
                                   97.06378 (Kcal/Mol)
 Warning -- explicit consideration of  14 degrees of freedom as
           vibrations may cause significant error
 Vibrational temperatures:     45.60   120.18   159.62   195.06   274.68
          (Kelvin)            312.62   363.95   391.26   445.00   502.91
                              525.16   623.47   757.16   849.29   900.30
                              910.84   926.65  1064.19  1283.84  1314.64
                             1359.55  1430.08  1455.09  1497.75  1602.28
                             1615.71  1664.25  1765.71  1780.86  1861.83
                             1891.52  1935.46  1968.44  1992.42  2023.82
                             2056.85  2119.55  2155.53  2170.95  2637.01
                             3210.72  4168.64  4288.60  4348.85  4377.67
                             4391.84  4411.68  4474.32  4499.07  5041.19
                             5524.98

 Zero-point correction=                           0.154681 (Hartree/Particle)
 Thermal correction to Energy=                    0.165304
 Thermal correction to Enthalpy=                  0.166248
 Thermal correction to Gibbs Free Energy=         0.118291
 Sum of electronic and zero-point Energies=           -422.999948
 Sum of electronic and thermal Energies=              -422.989325
 Sum of electronic and thermal Enthalpies=            -422.988381
 Sum of electronic and thermal Free Energies=         -423.036337

                     E (Thermal)             CV                S
                      KCal/Mol        Cal/Mol-Kelvin    Cal/Mol-Kelvin
 Total                  103.730             37.725            100.933
 Electronic               0.000              0.000              0.000
 Translational            0.889              2.981             40.409
 Rotational               0.889              2.981             29.311
 Vibrational            101.952             31.763             31.214
 Vibration     1          0.594              1.983              5.721
 Vibration     2          0.600              1.961              3.806
 Vibration     3          0.607              1.940              3.252
 Vibration     4          0.613              1.918              2.865
 Vibration     5          0.634              1.852              2.219
 Vibration     6          0.646              1.815              1.982
 Vibration     7          0.664              1.758              1.710
 Vibration     8          0.675              1.725              1.584
 Vibration     9          0.699              1.656              1.366
 Vibration    10          0.727              1.576              1.168
 Vibration    11          0.738              1.544              1.101
 Vibration    12          0.794              1.398              0.848
 Vibration    13          0.881              1.192              0.596
 Vibration    14          0.948              1.052              0.467

 Optimization completed.
    -- Stationary point found.
 Normal termination of Gaussian 09 at Mon Jan 27 16:43:29 2020.
