 Gaussian 09, Revision D.01,
 Gaussian 09:  ES64L-G09RevD.01 24-Apr-2013

 -----------------------------
 # b3lyp 6-31G(2df,p) opt Freq
 -----------------------------

 -----
 titel
 -----
 Symbolic Z-matrix:
 Charge =  0 Multiplicity = 1

 SCF Done:  E(RB3LYP) =  -423.154758299     A.U. after   13 cycles
 Optimization completed.
    -- Stationary point found.
 Normal termination of Gaussian 09 at Mon Jan 27 11:19:16 2020.

 ----------------------------------------------------------------------
 #N Geom=AllCheck Guess=TCheck SCRF=Check GenChk RB3LYP/6-31G(2df,p) Fr
 eq
 ----------------------------------------------------------------------

 Structure from the checkpoint file:  "/scratch/puck/g09_a2fa3d16-a6b4-439a-be0c-7d70cf152f5d/Gau-32435.chk"
 -----
 titel
 -----
 Charge =  0 Multiplicity = 1

                         Standard orientation:
 ---------------------------------------------------------------------
 Center     Atomic      Atomic             Coordinates (Angstroms)
 Number     Number       Type             X           Y           Z
 ---------------------------------------------------------------------
      1          6           0        1.779710   -0.948983   -0.555503
      2          6           0        1.625422    0.432844   -0.010539
      3          8           0        0.716703    1.281964   -0.650602
      4          6           0       -0.330746    1.696074    0.222128
      5          6           0       -1.242424    0.525081    0.559549
      6          6           0       -1.875637   -0.204260   -0.641140
      7          8           0       -1.080596   -1.385001   -0.405219
      8          6           0       -0.477440   -0.817209    0.781294
      9          6           0        1.037132   -0.737853    0.748601
     10          1           0        1.169283   -1.209772   -1.411090
     11          1           0        2.758355   -1.413291   -0.513412
     12          1           0        2.493722    0.945881    0.401573
     13          1           0        0.086912    2.139159    1.139421
     14          1           0       -0.879370    2.479953   -0.310303
     15          1           0       -1.938276    0.793637    1.357449
     16          1           0       -2.949271   -0.410929   -0.555408
     17          1           0       -1.666072    0.235398   -1.623365
     18          1           0       -0.797909   -1.367506    1.673732
     19          1           0        1.537675   -1.042406    1.661636
 ---------------------------------------------------------------------

 SCF Done:  E(RB3LYP) =  -423.154758299     A.U. after    1 cycles

 The electronic state is 1-A.
 Alpha  occ. eigenvalues --  -19.14496 -19.12886 -10.23635 -10.23228 -10.23180
 Alpha  occ. eigenvalues --  -10.22467 -10.19163 -10.18887 -10.18191  -1.04641
 Alpha  occ. eigenvalues --   -1.02812  -0.84987  -0.77306  -0.69979  -0.66503
 Alpha  occ. eigenvalues --   -0.60387  -0.58850  -0.53236  -0.50871  -0.49511
 Alpha  occ. eigenvalues --   -0.47746  -0.46934  -0.43765  -0.43071  -0.40569
 Alpha  occ. eigenvalues --   -0.39619  -0.37589  -0.35046  -0.32382  -0.30490
 Alpha  occ. eigenvalues --   -0.30209  -0.27075  -0.25802  -0.23938
 Alpha virt. eigenvalues --    0.07472   0.08012   0.10886   0.12148   0.12673
 Alpha virt. eigenvalues --    0.13235   0.14071   0.15798   0.16540   0.17505
 Alpha virt. eigenvalues --    0.17561   0.17998   0.19256   0.20694   0.24014

 Mulliken charges:
               1
     1  C   -0.301744
     2  C    0.095254
     3  O   -0.251012
     4  C   -0.100839
     5  C   -0.084053
     6  C   -0.079761
     7  O   -0.284686
     8  C    0.113056
     9  C   -0.088064
    10  H    0.142208
    11  H    0.110608
    12  H    0.084140
    13  H    0.092023
    14  H    0.109838
    15  H    0.076557
    16  H    0.097132
    17  H    0.109361
    18  H    0.074761
    19  H    0.085220
 Sum of Mulliken charges =   0.00000

 Dipole moment (field-independent basis, Debye):
    X=             -0.2448    Y=              1.0316    Z=              1.8645  Tot=              2.1449
 Quadrupole moment (field-independent basis, Debye-Ang):
   XX=            -49.2834   YY=            -55.9195   ZZ=            -52.4593
   XY=             -3.7519   XZ=              1.0510   YZ=              0.2119

  Exact polarizability:  83.212  -4.200  71.169   0.915   0.292  67.088
 Approx polarizability: 110.363  -4.015 104.256   0.268  -0.589 105.101

                      1                      2                      3
                      A                      A                      A
 Frequencies --    111.1473               193.5953               257.5462
 Red. masses --      3.5712                 3.2609                 3.3364
 Frc consts  --      0.0260                 0.0720                 0.1304
 IR Inten    --      2.1721                 0.1696                10.1811

                      4                      5                      6
                      A                      A                      A
 Frequencies --    336.9303               400.8658               463.4744
 Red. masses --      2.1976                 3.0213                 3.6586
 Frc consts  --      0.1470                 0.2860                 0.4630
 IR Inten    --      0.3345                 3.0023                 1.2177

                      7                      8                      9
                      A                      A                      A
 Frequencies --    508.7810               572.2697               686.8730
 Red. masses --      3.7461                 3.7760                 3.3575
 Frc consts  --      0.5713                 0.7286                 0.9333
 IR Inten    --      0.2160                 8.0988                 2.4906

                     10                     11                     12
                      A                      A                      A
 Frequencies --    766.2450               786.1018               801.8640
 Red. masses --      2.8682                 2.4368                 1.8970
 Frc consts  --      0.9922                 0.8872                 0.7187
 IR Inten    --      5.8098                 5.0906                 6.6862

                     13                     14                     15
                      A                      A                      A
 Frequencies --    834.6514               886.6529               913.4632
 Red. masses --      1.6270                 2.9103                 2.1779
 Frc consts  --      0.6678                 1.3480                 1.0707
 IR Inten    --      5.2211                 7.7900                 1.8277

                     16                     17                     18
                      A                      A                      A
 Frequencies --    953.1808               977.9886              1004.8620
 Red. masses --      3.0046                 2.5983                 2.3085
 Frc consts  --      1.6084                 1.4642                 1.3734
 IR Inten    --     17.3865                 2.8115                15.9259

                     19                     20                     21
                      A                      A                      A
 Frequencies --   1006.5691              1026.8978              1057.7801
 Red. masses --      2.6093                 4.6242                 1.3008
 Frc consts  --      1.5576                 2.8731                 0.8576
 IR Inten    --     19.2801                65.7360                10.7859

                     22                     23                     24
                      A                      A                      A
 Frequencies --   1076.0371              1103.5834              1121.5105
 Red. masses --      2.3077                 2.1949                 1.3373
 Frc consts  --      1.5743                 1.5750                 0.9910
 IR Inten    --      9.5968                36.2094                 5.3836

                     25                     26                     27
                      A                      A                      A
 Frequencies --   1124.1110              1133.0900              1170.1122
 Red. masses --      1.5596                 2.0067                 1.2125
 Frc consts  --      1.1612                 1.5179                 0.9781
 IR Inten    --     13.3914                13.9356                 6.6056

                     28                     29                     30
                      A                      A                      A
 Frequencies --   1171.3176              1224.6395              1240.4320
 Red. masses --      1.6669                 1.7113                 1.9539
 Frc consts  --      1.3474                 1.5121                 1.7713
 IR Inten    --     24.8162                 3.7744                40.0839

                     31                     32                     33
                      A                      A                      A
 Frequencies --   1266.8339              1310.5218              1338.6959
 Red. masses --      1.2985                 1.2672                 1.3583
 Frc consts  --      1.2278                 1.2823                 1.4342
 IR Inten    --      0.9275                 4.4287                 0.3159

                     34                     35                     36
                      A                      A                      A
 Frequencies --   1341.0021              1368.7652              1376.8533
 Red. masses --      1.4479                 1.4209                 1.8371
 Frc consts  --      1.5341                 1.5685                 2.0519
 IR Inten    --      2.3016                 9.9624                17.7856

                     37                     38                     39
                      A                      A                      A
 Frequencies --   1398.6660              1416.0991              1473.5085
 Red. masses --      1.3922                 1.3451                 1.3747
 Frc consts  --      1.6047                 1.5892                 1.7585
 IR Inten    --     12.2222                 4.9722                 9.2853

                     40                     41                     42
                      A                      A                      A
 Frequencies --   1493.5535              1518.8057              2986.6372
 Red. masses --      1.1181                 1.1056                 1.0682
 Frc consts  --      1.4695                 1.5026                 5.6138
 IR Inten    --      4.2207                 0.2780                56.3975

                     43                     44                     45
                      A                      A                      A
 Frequencies --   3016.5002              3025.4948              3062.1200
 Red. masses --      1.0584                 1.0832                 1.1086
 Frc consts  --      5.6742                 5.8421                 6.1242
 IR Inten    --     84.7881                39.3579                19.5462

                     46                     47                     48
                      A                      A                      A
 Frequencies --   3074.8668              3087.6265              3104.5959
 Red. masses --      1.0955                 1.0884                 1.0876
 Frc consts  --      6.1025                 6.1133                 6.1764
 IR Inten    --     33.6950                52.4169                37.9686

                     49                     50                     51
                      A                      A                      A
 Frequencies --   3145.1147              3161.0386              3242.8667
 Red. masses --      1.0556                 1.0896                 1.1161
 Frc consts  --      6.1521                 6.4148                 6.9153
 IR Inten    --     12.1999                20.5340                 3.2614

 - Thermochemistry -
 -------------------
 Temperature   298.150 Kelvin.  Pressure   1.00000 Atm.
 Atom     1 has atomic number  6 and mass  12.00000

 Molecular mass:   126.06808 amu.
 Principal axes and moments of inertia in atomic units:
                           1         2         3
     Eigenvalues --   685.78825 928.444621252.49607
           X            0.99585  -0.09070   0.00718
           Y            0.09059   0.99578   0.01471
           Z           -0.00849  -0.01400   0.99987
 This molecule is an asymmetric top.
 Rotational symmetry number  1.
 Warning -- assumption of classical behavior for rotation
           may cause significant error
 Rotational temperatures (Kelvin)      0.12630     0.09329     0.06915
 Rotational constants (GHZ):           2.63163     1.94383     1.44092
 Zero-point vibrational energy     425408.4 (Joules/Mol)
                                  101.67506 (Kcal/Mol)
 Warning -- explicit consideration of   8 degrees of freedom as
           vibrations may cause significant error
 Vibrational temperatures:    159.92   278.54   370.55   484.77   576.76
          (Kelvin)            666.84   732.02   823.37   988.26  1102.45
                             1131.02  1153.70  1200.88  1275.69  1314.27
                             1371.41  1407.11  1445.77  1448.23  1477.48
                             1521.91  1548.18  1587.81  1613.60  1617.34
                             1630.26  1683.53  1685.26  1761.98  1784.70
                             1822.69  1885.55  1926.08  1929.40  1969.35
                             1980.98  2012.37  2037.45  2120.05  2148.89
                             2185.22  4297.10  4340.07  4353.01  4405.70
                             4424.04  4442.40  4466.82  4525.11  4548.02
                             4665.76

 Zero-point correction=                           0.162030 (Hartree/Particle)
 Thermal correction to Energy=                    0.168991
 Thermal correction to Enthalpy=                  0.169936
 Thermal correction to Gibbs Free Energy=         0.130759
 Sum of electronic and zero-point Energies=           -422.992729
 Sum of electronic and thermal Energies=              -422.985767
 Sum of electronic and thermal Enthalpies=            -422.984823
 Sum of electronic and thermal Free Energies=         -423.024000

                     E (Thermal)             CV                S
                      KCal/Mol        Cal/Mol-Kelvin    Cal/Mol-Kelvin
 Total                  106.044             28.354             82.455
 Electronic               0.000              0.000              0.000
 Translational            0.889              2.981             40.409
 Rotational               0.889              2.981             28.169
 Vibrational            104.266             22.392             13.878
 Vibration     1          0.607              1.940              3.249
 Vibration     2          0.635              1.849              2.193
 Vibration     3          0.667              1.750              1.678
 Vibration     4          0.718              1.602              1.227
 Vibration     5          0.767              1.468              0.959
 Vibration     6          0.821              1.331              0.756
 Vibration     7          0.864              1.231              0.637
 Vibration     8          0.928              1.091              0.500

 Optimization completed.
    -- Stationary point found.
 Normal termination of Gaussian 09 at Mon Jan 27 12:08:00 2020.
