 Gaussian 09, Revision D.01,
 Gaussian 09:  ES64L-G09RevD.01 24-Apr-2013

 -----------------------------
 # b3lyp 6-31G(2df,p) opt Freq
 -----------------------------

 -----
 titel
 -----
 Symbolic Z-matrix:
 Charge =  0 Multiplicity = 1

 SCF Done:  E(RB3LYP) =  -423.111824568     A.U. after   14 cycles
 Optimization completed.
    -- Stationary point found.
 Normal termination of Gaussian 09 at Tue Jan 28 14:24:18 2020.

 ----------------------------------------------------------------------
 #N Geom=AllCheck Guess=TCheck SCRF=Check GenChk RB3LYP/6-31G(2df,p) Fr
 eq
 ----------------------------------------------------------------------

 Structure from the checkpoint file:  "/scratch/puck/g09_39834924-0282-4e63-9950-d68d8f2050a6/Gau-163925.chk"
 -----
 titel
 -----
 Charge =  0 Multiplicity = 1

                         Standard orientation:
 ---------------------------------------------------------------------
 Center     Atomic      Atomic             Coordinates (Angstroms)
 Number     Number       Type             X           Y           Z
 ---------------------------------------------------------------------
      1          6           0       -3.775075    0.707528    0.052305
      2          8           0       -2.616841    0.079062   -0.442547
      3          6           0       -1.460521    0.406252    0.292992
      4          6           0       -0.287004   -0.305292   -0.320293
      5          8           0       -0.021367   -1.641272    0.132912
      6          6           0        0.916651   -0.618659    0.454585
      7          6           0        2.284728   -0.736453   -0.199523
      8          6           0        3.049123    0.501267   -0.099559
      9          6           0        3.654940    1.533882    0.003036
     10          1           0       -3.688973    1.805771    0.022492
     11          1           0       -4.609281    0.401035   -0.582976
     12          1           0       -3.990165    0.409238    1.090559
     13          1           0       -1.281674    1.496336    0.269890
     14          1           0       -1.561461    0.106013    1.348742
     15          1           0       -0.189621   -0.173275   -1.398393
     16          1           0        0.940464   -0.339499    1.509054
     17          1           0        2.836254   -1.555210    0.280616
     18          1           0        2.152198   -1.024805   -1.248659
     19          1           0        4.200869    2.440929    0.084500
 ---------------------------------------------------------------------

 SCF Done:  E(RB3LYP) =  -423.111824568     A.U. after    1 cycles

 The electronic state is 1-A.
 Alpha  occ. eigenvalues --  -19.15349 -19.14358 -10.24714 -10.23986 -10.23534
 Alpha  occ. eigenvalues --  -10.22666 -10.21709 -10.18756 -10.17652  -1.07684
 Alpha  occ. eigenvalues --   -1.03677  -0.79917  -0.75381  -0.71915  -0.66969
 Alpha  occ. eigenvalues --   -0.62133  -0.60066  -0.53699  -0.50511  -0.49963
 Alpha  occ. eigenvalues --   -0.48241  -0.46568  -0.45911  -0.43909  -0.41508
 Alpha  occ. eigenvalues --   -0.41196  -0.37463  -0.37003  -0.32552  -0.30721
 Alpha  occ. eigenvalues --   -0.28165  -0.26962  -0.26426  -0.25888
 Alpha virt. eigenvalues --    0.04520   0.05258   0.08198   0.10028   0.11303
 Alpha virt. eigenvalues --    0.11907   0.12536   0.13489   0.13967   0.15038
 Alpha virt. eigenvalues --    0.16052   0.16994   0.17494   0.18966   0.19293

 Mulliken charges:
               1
     1  C   -0.224680
     2  O   -0.232434
     3  C   -0.080901
     4  C    0.053019
     5  O   -0.252818
     6  C    0.058869
     7  C   -0.381380
     8  C    0.298158
     9  C   -0.453210
    10  H    0.103208
    11  H    0.130590
    12  H    0.106792
    13  H    0.092914
    14  H    0.095643
    15  H    0.101688
    16  H    0.101247
    17  H    0.142414
    18  H    0.141158
    19  H    0.199720
 Sum of Mulliken charges =   0.00000

 Dipole moment (field-independent basis, Debye):
    X=              0.0311    Y=              1.9075    Z=              0.7147  Tot=              2.0372
 Quadrupole moment (field-independent basis, Debye-Ang):
   XX=            -48.7875   YY=            -53.9231   ZZ=            -52.6280
   XY=             -2.3295   XZ=             -1.4640   YZ=              0.5508

  Exact polarizability:  98.662   7.374  76.927   2.626   0.971  60.608
 Approx polarizability: 114.806  18.410 126.589   6.567   2.744  92.236

                      1                      2                      3
                      A                      A                      A
 Frequencies --     45.5932                78.5349                92.4275
 Red. masses --      3.9455                 3.0428                 2.4132
 Frc consts  --      0.0048                 0.0111                 0.0121
 IR Inten    --      0.4030                 3.4627                 2.5640

                      4                      5                      6
                      A                      A                      A
 Frequencies --    117.9456               148.5137               236.7067
 Red. masses --      3.4366                 3.7391                 1.3035
 Frc consts  --      0.0282                 0.0486                 0.0430
 IR Inten    --      0.4814                 0.2751                 2.0109

                      7                      8                      9
                      A                      A                      A
 Frequencies --    269.4062               324.7853               347.6372
 Red. masses --      3.0532                 3.2058                 2.5525
 Frc consts  --      0.1306                 0.1992                 0.1817
 IR Inten    --      2.0550                 1.9605                 1.3473

                     10                     11                     12
                      A                      A                      A
 Frequencies --    364.1706               441.2861               502.6953
 Red. masses --      3.6591                 4.3775                 5.0367
 Frc consts  --      0.2859                 0.5022                 0.7499
 IR Inten    --      5.4207                 5.8268                10.5270

                     13                     14                     15
                      A                      A                      A
 Frequencies --    549.6435               626.5100               652.6813
 Red. masses --      3.0349                 1.2088                 1.2336
 Frc consts  --      0.5402                 0.2796                 0.3096
 IR Inten    --      2.8849                43.9987                42.5320

                     16                     17                     18
                      A                      A                      A
 Frequencies --    806.9549               871.0856               954.5734
 Red. masses --      4.7524                 1.9044                 3.5287
 Frc consts  --      1.8233                 0.8514                 1.8944
 IR Inten    --     20.3595                15.4713                49.4089

                     19                     20                     21
                      A                      A                      A
 Frequencies --    964.0063               982.3629              1017.5022
 Red. masses --      3.3503                 3.3458                 1.8802
 Frc consts  --      1.8344                 1.9024                 1.1469
 IR Inten    --      2.4282                 9.1765                 4.4088

                     22                     23                     24
                      A                      A                      A
 Frequencies --   1065.4437              1090.5254              1124.8741
 Red. masses --      2.5841                 2.0122                 1.6607
 Frc consts  --      1.7283                 1.4099                 1.2381
 IR Inten    --      6.7545                15.4163                24.1774

                     25                     26                     27
                      A                      A                      A
 Frequencies --   1161.7882              1169.9086              1189.0037
 Red. masses --      1.8253                 2.9636                 1.4209
 Frc consts  --      1.4516                 2.3899                 1.1835
 IR Inten    --     30.8699               102.6795                 7.1956

                     28                     29                     30
                      A                      A                      A
 Frequencies --   1223.7981              1230.2321              1266.8015
 Red. masses --      1.2355                 1.6279                 1.1377
 Frc consts  --      1.0902                 1.4517                 1.0757
 IR Inten    --     11.7891                38.8517                 3.0913

                     31                     32                     33
                      A                      A                      A
 Frequencies --   1278.5500              1322.5902              1350.9555
 Red. masses --      1.3640                 1.4237                 1.2113
 Frc consts  --      1.3137                 1.4673                 1.3025
 IR Inten    --      2.3841                 9.3027                19.0844

                     34                     35                     36
                      A                      A                      A
 Frequencies --   1417.5150              1469.1807              1477.2815
 Red. masses --      1.3898                 1.0938                 1.1562
 Frc consts  --      1.6453                 1.3910                 1.4866
 IR Inten    --     11.0925                 7.0825                 6.8624

                     37                     38                     39
                      A                      A                      A
 Frequencies --   1486.8378              1496.0089              1507.5127
 Red. masses --      1.0475                 1.0848                 2.0607
 Frc consts  --      1.3644                 1.4304                 2.7592
 IR Inten    --      4.8633                 6.4257                20.4493

                     40                     41                     42
                      A                      A                      A
 Frequencies --   1521.3935              2241.6071              2945.7187
 Red. masses --      1.2956                 5.9178                 1.0586
 Frc consts  --      1.7668                17.5199                 5.4119
 IR Inten    --      1.7562                 1.8670                34.0748

                     43                     44                     45
                      A                      A                      A
 Frequencies --   2969.5982              2991.2438              3013.3867
 Red. masses --      1.0401                 1.0970                 1.1030
 Frc consts  --      5.4042                 5.7833                 5.9010
 IR Inten    --     69.6793                44.7649                52.7201

                     46                     47                     48
                      A                      A                      A
 Frequencies --   3026.7113              3065.4032              3102.2849
 Red. masses --      1.0609                 1.0982                 1.0897
 Frc consts  --      5.7260                 6.0798                 6.1788
 IR Inten    --     12.7961                 3.6001                13.3496

                     49                     50                     51
                      A                      A                      A
 Frequencies --   3114.6631              3117.6010              3506.6247
 Red. masses --      1.0866                 1.0957                 1.1627
 Frc consts  --      6.2108                 6.2743                 8.4234
 IR Inten    --     27.4723                30.6221                66.1834

 - Thermochemistry -
 -------------------
 Temperature   298.150 Kelvin.  Pressure   1.00000 Atm.
 Atom     1 has atomic number  6 and mass  12.00000

 Molecular mass:   126.06808 amu.
 Principal axes and moments of inertia in atomic units:
                           1         2         3
     Eigenvalues --   457.342852701.628193029.76757
           X            0.99988  -0.01413  -0.00587
           Y            0.01423   0.99974   0.01801
           Z            0.00562  -0.01809   0.99982
 This molecule is an asymmetric top.
 Rotational symmetry number  1.
 Warning -- assumption of classical behavior for rotation
           may cause significant error
 Rotational temperatures (Kelvin)      0.18938     0.03206     0.02859
 Rotational constants (GHZ):           3.94615     0.66802     0.59567
 Zero-point vibrational energy     408764.4 (Joules/Mol)
                                   97.69703 (Kcal/Mol)
 Warning -- explicit consideration of  13 degrees of freedom as
           vibrations may cause significant error
 Vibrational temperatures:     65.60   112.99   132.98   169.70   213.68
          (Kelvin)            340.57   387.61   467.29   500.17   523.96
                              634.91   723.27   790.81   901.41   939.06
                             1161.03  1253.30  1373.42  1386.99  1413.40
                             1463.96  1532.93  1569.02  1618.44  1671.55
                             1683.24  1710.71  1760.77  1770.03  1822.64
                             1839.55  1902.91  1943.72  2039.49  2113.82
                             2125.48  2139.23  2152.42  2168.97  2188.94
                             3225.17  4238.23  4272.58  4303.73  4335.59
                             4354.76  4410.43  4463.49  4481.30  4485.53
                             5045.24

 Zero-point correction=                           0.155690 (Hartree/Particle)
 Thermal correction to Energy=                    0.165809
 Thermal correction to Enthalpy=                  0.166753
 Thermal correction to Gibbs Free Energy=         0.119415
 Sum of electronic and zero-point Energies=           -422.956134
 Sum of electronic and thermal Energies=              -422.946016
 Sum of electronic and thermal Enthalpies=            -422.945072
 Sum of electronic and thermal Free Energies=         -422.992410

                     E (Thermal)             CV                S
                      KCal/Mol        Cal/Mol-Kelvin    Cal/Mol-Kelvin
 Total                  104.046             35.467             99.631
 Electronic               0.000              0.000              0.000
 Translational            0.889              2.981             40.409
 Rotational               0.889              2.981             29.705
 Vibrational            102.269             29.505             29.517
 Vibration     1          0.595              1.979              5.000
 Vibration     2          0.600              1.964              3.927
 Vibration     3          0.602              1.955              3.608
 Vibration     4          0.608              1.934              3.134
 Vibration     5          0.618              1.904              2.691
 Vibration     6          0.656              1.785              1.828
 Vibration     7          0.674              1.729              1.600
 Vibration     8          0.709              1.626              1.286
 Vibration     9          0.725              1.580              1.177
 Vibration    10          0.738              1.546              1.104
 Vibration    11          0.801              1.380              0.823
 Vibration    12          0.858              1.244              0.651
 Vibration    13          0.905              1.140              0.545

 Normal termination of Gaussian 09 at Tue Jan 28 15:00:34 2020.
