 Gaussian 09, Revision D.01,
 Gaussian 09:  ES64L-G09RevD.01 24-Apr-2013

 -----------------------------
 # b3lyp 6-31G(2df,p) opt Freq
 -----------------------------

 -----
 titel
 -----
 Symbolic Z-matrix:
 Charge =  0 Multiplicity = 1

 SCF Done:  E(RB3LYP) =  -423.122358414     A.U. after   14 cycles
 SCF Done:  E(RB3LYP) =  -423.122358427     A.U. after    6 cycles
 Optimization completed.
    -- Stationary point found.
 Normal termination of Gaussian 09 at Tue Jan 28 08:31:42 2020.

 ----------------------------------------------------------------------
 #N Geom=AllCheck Guess=TCheck SCRF=Check GenChk RB3LYP/6-31G(2df,p) Fr
 eq
 ----------------------------------------------------------------------

 Structure from the checkpoint file:  "/scratch/puck/g09_730a1270-6563-4824-94a4-124bdcb938b7/Gau-59919.chk"
 -----
 titel
 -----
 Charge =  0 Multiplicity = 1

                         Standard orientation:
 ---------------------------------------------------------------------
 Center     Atomic      Atomic             Coordinates (Angstroms)
 Number     Number       Type             X           Y           Z
 ---------------------------------------------------------------------
      1          6           0        1.351256    0.593738    1.463103
      2          6           0        1.104378   -0.016271    0.101786
      3          6           0        2.091293   -0.937795   -0.482515
      4          8           0        2.004079    0.418809   -0.924553
      5          6           0       -0.349759   -0.145792   -0.365930
      6          6           0       -1.141912   -1.201868    0.447623
      7          8           0       -2.445100   -1.389644   -0.054990
      8          6           0       -1.063391    1.130570   -0.332574
      9          6           0       -1.700823    2.149280   -0.271896
     10          1           0        0.923925   -0.023360    2.260137
     11          1           0        2.425054    0.690864    1.637947
     12          1           0        0.897375    1.587068    1.524041
     13          1           0        2.988231   -1.191522    0.080844
     14          1           0        1.776277   -1.687130   -1.208338
     15          1           0       -0.321373   -0.495066   -1.404881
     16          1           0       -0.633738   -2.167580    0.365611
     17          1           0       -1.154998   -0.914486    1.509591
     18          1           0       -2.880340   -0.528313   -0.042856
     19          1           0       -2.238500    3.065028   -0.243337
 ---------------------------------------------------------------------

 SCF Done:  E(RB3LYP) =  -423.122358427     A.U. after    1 cycles

 The electronic state is 1-A.
 Alpha  occ. eigenvalues --  -19.15304 -19.13842 -10.25377 -10.23912 -10.23715
 Alpha  occ. eigenvalues --  -10.21939 -10.19252 -10.18599 -10.18441  -1.07561
 Alpha  occ. eigenvalues --   -1.02306  -0.81714  -0.74638  -0.72421  -0.66624
 Alpha  occ. eigenvalues --   -0.65343  -0.58261  -0.53433  -0.51671  -0.50330
 Alpha  occ. eigenvalues --   -0.48620  -0.46391  -0.43215  -0.42506  -0.41200
 Alpha  occ. eigenvalues --   -0.39746  -0.37864  -0.37103  -0.33639  -0.30559
 Alpha  occ. eigenvalues --   -0.28673  -0.28552  -0.27121  -0.25949
 Alpha virt. eigenvalues --    0.03888   0.03996   0.08993   0.09317   0.09810
 Alpha virt. eigenvalues --    0.11337   0.12065   0.13405   0.13673   0.15171
 Alpha virt. eigenvalues --    0.15843   0.16816   0.18026   0.20358   0.20772

 Mulliken charges:
               1
     1  C   -0.472807
     2  C    0.414976
     3  C   -0.231899
     4  O   -0.274742
     5  C   -0.247989
     6  C   -0.064274
     7  O   -0.418587
     8  C    0.303974
     9  C   -0.456937
    10  H    0.125306
    11  H    0.129856
    12  H    0.142206
    13  H    0.113986
    14  H    0.114208
    15  H    0.122526
    16  H    0.113242
    17  H    0.096301
    18  H    0.287187
    19  H    0.203468
 Sum of Mulliken charges =   0.00000

 Dipole moment (field-independent basis, Debye):
    X=              0.1518    Y=             -0.0185    Z=              1.5019  Tot=              1.5097
 Quadrupole moment (field-independent basis, Debye-Ang):
   XX=            -54.2895   YY=            -51.9565   ZZ=            -54.2085
   XY=             -9.6328   XZ=              1.9893   YZ=              1.5176

  Exact polarizability:  84.192 -14.175  84.402   0.558   2.876  62.307
 Approx polarizability: 114.683 -23.586 132.586  -2.689   3.309  92.649

                      1                      2                      3
                      A                      A                      A
 Frequencies --     52.4683               106.5490               135.2575
 Red. masses --      3.5642                 3.6538                 3.5932
 Frc consts  --      0.0058                 0.0244                 0.0387
 IR Inten    --      1.3098                 2.2318                 0.5545

                      4                      5                      6
                      A                      A                      A
 Frequencies --    169.1418               182.3948               203.1382
 Red. masses --      3.5198                 1.1906                 2.3049
 Frc consts  --      0.0593                 0.0233                 0.0560
 IR Inten    --      2.2100                 0.8207                 1.0401

                      7                      8                      9
                      A                      A                      A
 Frequencies --    321.1226               335.3714               362.9887
 Red. masses --      3.2592                 3.5093                 2.9654
 Frc consts  --      0.1980                 0.2326                 0.2302
 IR Inten    --      2.2424                 1.1165                 5.4075

                     10                     11                     12
                      A                      A                      A
 Frequencies --    396.0194               411.8841               469.9546
 Red. masses --      2.2002                 1.6399                 3.5710
 Frc consts  --      0.2033                 0.1639                 0.4647
 IR Inten    --     32.4167                88.6141                 1.0817

                     13                     14                     15
                      A                      A                      A
 Frequencies --    530.1738               570.5083               633.0612
 Red. masses --      4.3650                 3.5065                 1.2195
 Frc consts  --      0.7229                 0.6724                 0.2880
 IR Inten    --      8.0646                10.6217                48.3912

                     16                     17                     18
                      A                      A                      A
 Frequencies --    659.2887               775.3880               828.6784
 Red. masses --      1.2362                 3.8410                 2.9270
 Frc consts  --      0.3166                 1.3606                 1.1843
 IR Inten    --     39.6298                 8.1583                 9.6233

                     19                     20                     21
                      A                      A                      A
 Frequencies --    854.2756               922.7147               939.7118
 Red. masses --      2.7393                 1.4840                 2.3552
 Frc consts  --      1.1778                 0.7444                 1.2254
 IR Inten    --     17.2611                 3.0018                14.6576

                     22                     23                     24
                      A                      A                      A
 Frequencies --   1024.7187              1052.5703              1062.8414
 Red. masses --      1.9243                 2.1729                 2.3432
 Frc consts  --      1.1905                 1.4184                 1.5596
 IR Inten    --      9.0335                 2.5223                17.7165

                     25                     26                     27
                      A                      A                      A
 Frequencies --   1085.1276              1118.4473              1136.3028
 Red. masses --      4.0835                 2.0057                 1.3775
 Frc consts  --      2.8330                 1.4783                 1.0479
 IR Inten    --     97.2196                15.3192                 2.4844

                     28                     29                     30
                      A                      A                      A
 Frequencies --   1166.9771              1207.7642              1248.2392
 Red. masses --      1.3963                 1.2176                 1.5246
 Frc consts  --      1.1204                 1.0464                 1.3996
 IR Inten    --      0.3719                 8.2366                14.0829

                     31                     32                     33
                      A                      A                      A
 Frequencies --   1277.7819              1331.3593              1384.7102
 Red. masses --      2.3634                 1.4860                 1.2169
 Frc consts  --      2.2736                 1.5519                 1.3748
 IR Inten    --      9.4640                19.6997                 3.9509

                     34                     35                     36
                      A                      A                      A
 Frequencies --   1402.3434              1424.0732              1427.2334
 Red. masses --      1.4865                 1.7237                 1.2496
 Frc consts  --      1.7224                 2.0595                 1.4998
 IR Inten    --      7.7274                18.3560                61.4939

                     37                     38                     39
                      A                      A                      A
 Frequencies --   1480.7567              1496.2032              1508.4109
 Red. masses --      1.0487                 1.0631                 1.0886
 Frc consts  --      1.3548                 1.4022                 1.4593
 IR Inten    --      3.6692                 3.0667                 0.2160

                     40                     41                     42
                      A                      A                      A
 Frequencies --   1531.7586              2226.1571              2991.7941
 Red. masses --      1.3541                 5.9346                 1.0680
 Frc consts  --      1.8719                17.3281                 5.6322
 IR Inten    --      3.9663                 0.8081                45.0906

                     43                     44                     45
                      A                      A                      A
 Frequencies --   3043.9078              3044.1939              3078.2396
 Red. masses --      1.0501                 1.0669                 1.0513
 Frc consts  --      5.7325                 5.8256                 5.8693
 IR Inten    --     21.6870                 0.0694                17.8696

                     46                     47                     48
                      A                      A                      A
 Frequencies --   3084.9617              3111.5197              3131.3515
 Red. masses --      1.0949                 1.1000                 1.1019
 Frc consts  --      6.1392                 6.2744                 6.3660
 IR Inten    --     35.2243                13.1120                14.2904

                     49                     50                     51
                      A                      A                      A
 Frequencies --   3163.4039              3500.2615              3780.1695
 Red. masses --      1.1191                 1.1614                 1.0655
 Frc consts  --      6.5985                 8.3839                 8.9710
 IR Inten    --     23.9854                71.1190                26.1488

 - Thermochemistry -
 -------------------
 Temperature   298.150 Kelvin.  Pressure   1.00000 Atm.
 Atom     1 has atomic number  6 and mass  12.00000

 Molecular mass:   126.06808 amu.
 Principal axes and moments of inertia in atomic units:
                           1         2         3
     Eigenvalues --   799.847961478.307961818.38429
           X            0.99932  -0.03333   0.01573
           Y            0.03282   0.99895   0.03204
           Z           -0.01679  -0.03150   0.99936
 This molecule is an asymmetric top.
 Rotational symmetry number  1.
 Warning -- assumption of classical behavior for rotation
           may cause significant error
 Rotational temperatures (Kelvin)      0.10829     0.05859     0.04763
 Rotational constants (GHZ):           2.25636     1.22082     0.99250
 Zero-point vibrational energy     409025.2 (Joules/Mol)
                                   97.75936 (Kcal/Mol)
 Warning -- explicit consideration of  14 degrees of freedom as
           vibrations may cause significant error
 Vibrational temperatures:     75.49   153.30   194.61   243.36   262.43
          (Kelvin)            292.27   462.02   482.52   522.26   569.78
                              592.61   676.16   762.80   820.83   910.83
                              948.57  1115.61  1192.28  1229.11  1327.58
                             1352.03  1474.34  1514.41  1529.19  1561.25
                             1609.19  1634.88  1679.02  1737.70  1795.94
                             1838.44  1915.53  1992.29  2017.66  2048.92
                             2053.47  2130.48  2152.70  2170.26  2203.86
                             3202.94  4304.52  4379.50  4379.91  4428.89
                             4438.57  4476.78  4505.31  4551.43  5036.09
                             5438.81

 Zero-point correction=                           0.155789 (Hartree/Particle)
 Thermal correction to Energy=                    0.165828
 Thermal correction to Enthalpy=                  0.166773
 Thermal correction to Gibbs Free Energy=         0.120687
 Sum of electronic and zero-point Energies=           -422.966569
 Sum of electronic and thermal Energies=              -422.956530
 Sum of electronic and thermal Enthalpies=            -422.955586
 Sum of electronic and thermal Free Energies=         -423.001672

                     E (Thermal)             CV                S
                      KCal/Mol        Cal/Mol-Kelvin    Cal/Mol-Kelvin
 Total                  104.059             36.739             96.996
 Electronic               0.000              0.000              0.000
 Translational            0.889              2.981             40.409
 Rotational               0.889              2.981             29.154
 Vibrational            102.281             30.778             27.433
 Vibration     1          0.596              1.977              4.722
 Vibration     2          0.605              1.944              3.331
 Vibration     3          0.613              1.918              2.870
 Vibration     4          0.625              1.880              2.445
 Vibration     5          0.630              1.864              2.304
 Vibration     6          0.639              1.835              2.104
 Vibration     7          0.707              1.633              1.304
 Vibration     8          0.716              1.605              1.234
 Vibration     9          0.737              1.548              1.109
 Vibration    10          0.763              1.479              0.977
 Vibration    11          0.776              1.444              0.920
 Vibration    12          0.827              1.317              0.738
 Vibration    13          0.885              1.183              0.587
 Vibration    14          0.927              1.095              0.503

 Optimization completed.
    -- Stationary point found.
 Normal termination of Gaussian 09 at Tue Jan 28 10:21:04 2020.
