 Gaussian 09, Revision D.01,
 Gaussian 09:  ES64L-G09RevD.01 24-Apr-2013

 -----------------------------
 # b3lyp 6-31G(2df,p) opt Freq
 -----------------------------

 -----
 titel
 -----
 Symbolic Z-matrix:
 Charge =  0 Multiplicity = 1

 SCF Done:  E(RB3LYP) =  -423.144199717     A.U. after   12 cycles
 Optimization completed.
    -- Stationary point found.
 Normal termination of Gaussian 09 at Mon Jan 27 22:51:46 2020.

 ----------------------------------------------------------------------
 #N Geom=AllCheck Guess=TCheck SCRF=Check GenChk RB3LYP/6-31G(2df,p) Fr
 eq
 ----------------------------------------------------------------------

 Structure from the checkpoint file:  "/scratch/puck/g09_d86419b5-d7da-4c76-bac2-1c7ff7224cfd/Gau-191477.chk"
 -----
 titel
 -----
 Charge =  0 Multiplicity = 1

                         Standard orientation:
 ---------------------------------------------------------------------
 Center     Atomic      Atomic             Coordinates (Angstroms)
 Number     Number       Type             X           Y           Z
 ---------------------------------------------------------------------
      1          6           0        2.610095   -0.395635    0.326009
      2          6           0        1.366513   -0.271489   -0.542908
      3          6           0        0.139987   -1.206839   -0.328384
      4          6           0       -0.768585   -0.161316   -1.053180
      5          6           0       -2.115176   -0.175977   -0.347418
      6          8           0       -1.700534   -0.312722    1.025683
      7          6           0       -0.287142   -0.376949    0.916627
      8          6           0        0.213384    0.662364   -0.130688
      9          8           0        0.314757    2.033136   -0.002500
     10          1           0        2.375674   -0.515870    1.387349
     11          1           0        3.212357   -1.257623    0.019425
     12          1           0        3.235923    0.497115    0.224793
     13          1           0        1.644354   -0.170112   -1.597840
     14          1           0        0.093421   -2.287765   -0.440950
     15          1           0       -0.721263   -0.049727   -2.136075
     16          1           0       -2.684535    0.753913   -0.479009
     17          1           0       -2.756754   -1.019477   -0.630595
     18          1           0        0.161391   -0.500977    1.899378
     19          1           0       -0.428815    2.342255    0.527714
 ---------------------------------------------------------------------

 SCF Done:  E(RB3LYP) =  -423.144199717     A.U. after    1 cycles

 The electronic state is 1-A.
 Alpha  occ. eigenvalues --  -19.14935 -19.13716 -10.24191 -10.23259 -10.22593
 Alpha  occ. eigenvalues --  -10.19710 -10.19388 -10.19374 -10.17387  -1.05087
 Alpha  occ. eigenvalues --   -1.02693  -0.89500  -0.74427  -0.71850  -0.63197
 Alpha  occ. eigenvalues --   -0.62253  -0.58967  -0.54400  -0.53986  -0.48153
 Alpha  occ. eigenvalues --   -0.46802  -0.42846  -0.41929  -0.40999  -0.40310
 Alpha  occ. eigenvalues --   -0.38381  -0.37400  -0.34228  -0.33260  -0.32454
 Alpha  occ. eigenvalues --   -0.31793  -0.29919  -0.27095  -0.22908
 Alpha virt. eigenvalues --    0.07214   0.10134   0.11999   0.12495   0.12963
 Alpha virt. eigenvalues --    0.13450   0.14344   0.15446   0.16587   0.16941
 Alpha virt. eigenvalues --    0.17411   0.18772   0.20026   0.21440   0.22152

 Mulliken charges:
               1
     1  C   -0.435877
     2  C   -0.025159
     3  C   -0.109806
     4  C   -0.122164
     5  C   -0.125852
     6  O   -0.289902
     7  C    0.049787
     8  C    0.374917
     9  O   -0.481316
    10  H    0.116475
    11  H    0.116043
    12  H    0.127795
    13  H    0.070290
    14  H    0.079213
    15  H    0.074944
    16  H    0.097774
    17  H    0.104562
    18  H    0.087297
    19  H    0.290977
 Sum of Mulliken charges =   0.00000

 Dipole moment (field-independent basis, Debye):
    X=             -0.0550    Y=             -0.4003    Z=             -0.6086  Tot=              0.7305
 Quadrupole moment (field-independent basis, Debye-Ang):
   XX=            -53.6343   YY=            -53.2040   ZZ=            -52.9707
   XY=             -3.5815   XZ=              3.0222   YZ=              2.3606

  Exact polarizability:  87.208  -1.883  69.304   2.667   1.131  67.007
 Approx polarizability: 115.110  -1.036 107.358   0.436   1.256 106.161

                      1                      2                      3
                      A                      A                      A
 Frequencies --    171.5861               199.8812               211.0352
 Red. masses --      1.0662                 3.3562                 2.5605
 Frc consts  --      0.0185                 0.0790                 0.0672
 IR Inten    --      0.4727                16.4317                 6.5030

                      4                      5                      6
                      A                      A                      A
 Frequencies --    229.2513               251.1605               285.2693
 Red. masses --      2.4627                 1.8656                 1.8587
 Frc consts  --      0.0763                 0.0693                 0.0891
 IR Inten    --      8.9480                12.6337                49.0077

                      7                      8                      9
                      A                      A                      A
 Frequencies --    416.6747               498.3951               511.0103
 Red. masses --      2.9896                 2.9884                 3.4278
 Frc consts  --      0.3058                 0.4374                 0.5274
 IR Inten    --      2.9081                 2.9514                 0.2265

                     10                     11                     12
                      A                      A                      A
 Frequencies --    659.1265               679.3238               752.6407
 Red. masses --      4.0090                 3.5166                 4.9262
 Frc consts  --      1.0262                 0.9561                 1.6441
 IR Inten    --      4.6209                 7.1751                 5.5546

                     13                     14                     15
                      A                      A                      A
 Frequencies --    778.9400               793.3797               893.5440
 Red. masses --      4.3770                 2.5144                 2.5858
 Frc consts  --      1.5647                 0.9325                 1.2164
 IR Inten    --     15.1756                 2.6642                 7.4354

                     16                     17                     18
                      A                      A                      A
 Frequencies --    920.3624               933.1237               957.4823
 Red. masses --      2.0834                 2.5634                 3.0394
 Frc consts  --      1.0398                 1.3150                 1.6417
 IR Inten    --      5.5926                 4.6276                20.4953

                     19                     20                     21
                      A                      A                      A
 Frequencies --    963.7918               999.2667              1004.8895
 Red. masses --      1.6817                 1.8185                 1.5507
 Frc consts  --      0.9204                 1.0699                 0.9226
 IR Inten    --     27.0340                 5.9464                14.7129

                     22                     23                     24
                      A                      A                      A
 Frequencies --   1061.5699              1074.2873              1085.7751
 Red. masses --      2.0946                 1.9589                 1.7268
 Frc consts  --      1.3907                 1.3320                 1.1994
 IR Inten    --     11.9998                22.5149                 4.3081

                     25                     26                     27
                      A                      A                      A
 Frequencies --   1097.4631              1134.4901              1140.0883
 Red. masses --      2.1709                 2.0419                 1.6005
 Frc consts  --      1.5405                 1.5484                 1.2257
 IR Inten    --     42.2663                 5.9382                13.4019

                     28                     29                     30
                      A                      A                      A
 Frequencies --   1178.5046              1185.4204              1215.5379
 Red. masses --      1.5599                 1.7199                 1.3702
 Frc consts  --      1.2765                 1.4240                 1.1928
 IR Inten    --      1.4823                24.6435                16.7646

                     31                     32                     33
                      A                      A                      A
 Frequencies --   1227.6188              1278.8941              1280.6188
 Red. masses --      1.8630                 1.6386                 1.9494
 Frc consts  --      1.6542                 1.5790                 1.8836
 IR Inten    --      7.9168                 5.0308               129.6188

                     34                     35                     36
                      A                      A                      A
 Frequencies --   1334.0536              1368.9764              1387.7932
 Red. masses --      1.7272                 1.6138                 1.5090
 Frc consts  --      1.8111                 1.7820                 1.7124
 IR Inten    --     45.2503                 4.9337                26.3299

                     37                     38                     39
                      A                      A                      A
 Frequencies --   1416.4561              1444.2718              1493.3771
 Red. masses --      1.2678                 2.0150                 1.0481
 Frc consts  --      1.4986                 2.4764                 1.3772
 IR Inten    --      5.0554                27.4984                 5.0517

                     40                     41                     42
                      A                      A                      A
 Frequencies --   1502.9540              1526.0912              3010.4773
 Red. masses --      1.0809                 1.0956                 1.0577
 Frc consts  --      1.4385                 1.5033                 5.6477
 IR Inten    --      6.9272                 0.3070                77.7419

                     43                     44                     45
                      A                      A                      A
 Frequencies --   3036.5700              3044.0414              3047.8148
 Red. masses --      1.0394                 1.0813                 1.1077
 Frc consts  --      5.6467                 5.9035                 6.0625
 IR Inten    --     24.7994                29.6765                37.9590

                     46                     47                     48
                      A                      A                      A
 Frequencies --   3097.4722              3113.0799              3126.6275
 Red. masses --      1.1007                 1.0998                 1.0883
 Frc consts  --      6.2219                 6.2800                 6.2684
 IR Inten    --     19.6220                25.2322                29.0931

                     49                     50                     51
                      A                      A                      A
 Frequencies --   3142.5576              3158.8557              3798.2217
 Red. masses --      1.0909                 1.0924                 1.0657
 Frc consts  --      6.3478                 6.4225                 9.0584
 IR Inten    --     31.9079                22.9952                28.0515

 - Thermochemistry -
 -------------------
 Temperature   298.150 Kelvin.  Pressure   1.00000 Atm.
 Atom     1 has atomic number  6 and mass  12.00000

 Molecular mass:   126.06808 amu.
 Principal axes and moments of inertia in atomic units:
                           1         2         3
     Eigenvalues --   613.932241147.833141321.34177
           X            0.99909  -0.03071   0.02959
           Y            0.02999   0.99925   0.02467
           Z           -0.03033  -0.02376   0.99926
 This molecule is an asymmetric top.
 Rotational symmetry number  1.
 Warning -- assumption of classical behavior for rotation
           may cause significant error
 Rotational temperatures (Kelvin)      0.14108     0.07546     0.06555
 Rotational constants (GHZ):           2.93964     1.57230     1.36584
 Zero-point vibrational energy     419411.3 (Joules/Mol)
                                  100.24171 (Kcal/Mol)
 Warning -- explicit consideration of   9 degrees of freedom as
           vibrations may cause significant error
 Vibrational temperatures:    246.87   287.58   303.63   329.84   361.36
          (Kelvin)            410.44   599.50   717.08   735.23   948.33
                              977.39  1082.88  1120.72  1141.49  1285.61
                             1324.19  1342.56  1377.60  1386.68  1437.72
                             1445.81  1527.36  1545.66  1562.19  1579.00
                             1632.28  1640.33  1695.60  1705.55  1748.89
                             1766.27  1840.04  1842.52  1919.40  1969.65
                             1996.72  2037.96  2077.98  2148.63  2162.41
                             2195.70  4331.40  4368.94  4379.69  4385.12
                             4456.57  4479.02  4498.51  4521.43  4544.88
                             5464.79

 Zero-point correction=                           0.159745 (Hartree/Particle)
 Thermal correction to Energy=                    0.167581
 Thermal correction to Enthalpy=                  0.168525
 Thermal correction to Gibbs Free Energy=         0.127886
 Sum of electronic and zero-point Energies=           -422.984454
 Sum of electronic and thermal Energies=              -422.976618
 Sum of electronic and thermal Enthalpies=            -422.975674
 Sum of electronic and thermal Free Energies=         -423.016313

                     E (Thermal)             CV                S
                      KCal/Mol        Cal/Mol-Kelvin    Cal/Mol-Kelvin
 Total                  105.159             31.161             85.532
 Electronic               0.000              0.000              0.000
 Translational            0.889              2.981             40.409
 Rotational               0.889              2.981             28.323
 Vibrational            103.381             25.200             16.801
 Vibration     1          0.626              1.877              2.418
 Vibration     2          0.638              1.840              2.134
 Vibration     3          0.643              1.824              2.035
 Vibration     4          0.652              1.796              1.885
 Vibration     5          0.663              1.761              1.722
 Vibration     6          0.683              1.701              1.502
 Vibration     7          0.780              1.434              0.903
 Vibration     8          0.854              1.254              0.662
 Vibration     9          0.866              1.226              0.631

 Optimization completed.
    -- Stationary point found.
 Normal termination of Gaussian 09 at Mon Jan 27 23:37:52 2020.
