 Gaussian 09, Revision D.01,
 Gaussian 09:  ES64L-G09RevD.01 24-Apr-2013

 -----------------------------
 # b3lyp 6-31G(2df,p) opt Freq
 -----------------------------

 -----
 titel
 -----
 Symbolic Z-matrix:
 Charge =  0 Multiplicity = 1

 SCF Done:  E(RB3LYP) =  -423.211864156     A.U. after   14 cycles
 Optimization completed.
    -- Stationary point found.
 Normal termination of Gaussian 09 at Mon Jan 27 13:07:49 2020.

 ----------------------------------------------------------------------
 #N Geom=AllCheck Guess=TCheck SCRF=Check GenChk RB3LYP/6-31G(2df,p) Fr
 eq
 ----------------------------------------------------------------------

 Structure from the checkpoint file:  "/scratch/puck/g09_74f34318-a507-407c-bf3f-fde8e9506618/Gau-37914.chk"
 -----
 titel
 -----
 Charge =  0 Multiplicity = 1

                         Standard orientation:
 ---------------------------------------------------------------------
 Center     Atomic      Atomic             Coordinates (Angstroms)
 Number     Number       Type             X           Y           Z
 ---------------------------------------------------------------------
      1          8           0       -2.687324   -0.159248    0.166417
      2          6           0       -1.500939   -0.082624   -0.004978
      3          6           0       -0.656770   -1.358651   -0.089930
      4          6           0        0.864661   -1.296640   -0.063058
      5          6           0        1.416112   -0.428461    1.099652
      6          6           0        1.504632    0.754584    0.098657
      7          6           0        1.479274   -0.276044   -1.062692
      8          6           0        0.299170    1.679330    0.115441
      9          8           0       -0.970992    1.139943   -0.281769
     10          1           0       -1.024207   -2.002622    0.715624
     11          1           0       -0.989242   -1.834556   -1.022221
     12          1           0        1.251465   -2.317114   -0.126384
     13          1           0        0.779089   -0.302221    1.981610
     14          1           0        2.405411   -0.756270    1.428299
     15          1           0        2.394505    1.386558    0.180451
     16          1           0        0.893126   -0.021314   -1.949762
     17          1           0        2.486504   -0.564776   -1.371884
     18          1           0        0.176443    2.115000    1.116281
     19          1           0        0.456590    2.502784   -0.587752
 ---------------------------------------------------------------------

 SCF Done:  E(RB3LYP) =  -423.211864156     A.U. after    1 cycles

 The electronic state is 1-A.
 Alpha  occ. eigenvalues --  -19.16884 -19.11310 -10.30349 -10.24848 -10.20291
 Alpha  occ. eigenvalues --  -10.20140 -10.19899 -10.19119 -10.19095  -1.08488
 Alpha  occ. eigenvalues --   -1.00678  -0.86729  -0.77429  -0.71468  -0.67342
 Alpha  occ. eigenvalues --   -0.64999  -0.56119  -0.52563  -0.52107  -0.48667
 Alpha  occ. eigenvalues --   -0.48005  -0.45754  -0.44566  -0.42459  -0.40976
 Alpha  occ. eigenvalues --   -0.40021  -0.37432  -0.35396  -0.34292  -0.31380
 Alpha  occ. eigenvalues --   -0.31239  -0.30581  -0.28503  -0.25843
 Alpha virt. eigenvalues --    0.00941   0.06674   0.09107   0.10030   0.12611
 Alpha virt. eigenvalues --    0.13486   0.14422   0.14722   0.15337   0.16070
 Alpha virt. eigenvalues --    0.16968   0.18249   0.19152   0.19932   0.21717

 Mulliken charges:
               1
     1  O   -0.305929
     2  C    0.383087
     3  C   -0.334879
     4  C   -0.008308
     5  C   -0.240209
     6  C   -0.020441
     7  C   -0.240174
     8  C   -0.077944
     9  O   -0.236384
    10  H    0.137215
    11  H    0.140448
    12  H    0.074414
    13  H    0.099564
    14  H    0.103496
    15  H    0.077205
    16  H    0.106690
    17  H    0.103360
    18  H    0.115617
    19  H    0.123171
 Sum of Mulliken charges =   0.00000

 Dipole moment (field-independent basis, Debye):
    X=              4.2509    Y=             -0.4253    Z=              0.0722  Tot=              4.2727
 Quadrupole moment (field-independent basis, Debye-Ang):
   XX=            -62.9761   YY=            -50.2444   ZZ=            -51.8254
   XY=              1.8695   XZ=              0.5665   YZ=              0.8200

  Exact polarizability:  83.337   3.798  76.614  -1.024   0.275  64.939
 Approx polarizability: 120.484   6.746 108.642  -2.745  -1.034  98.972

                      1                      2                      3
                      A                      A                      A
 Frequencies --     40.6692               102.7496               273.7776
 Red. masses --      4.4851                 3.2898                 2.8186
 Frc consts  --      0.0044                 0.0205                 0.1245
 IR Inten    --      3.0102                 6.0181                 0.4030

                      4                      5                      6
                      A                      A                      A
 Frequencies --    295.9304               330.7609               358.2396
 Red. masses --      1.9414                 5.7327                 1.7870
 Frc consts  --      0.1002                 0.3695                 0.1351
 IR Inten    --      0.5914                 0.7686                 0.7159

                      7                      8                      9
                      A                      A                      A
 Frequencies --    483.2727               519.9761               563.1801
 Red. masses --      4.5722                 2.6586                 3.2375
 Frc consts  --      0.6292                 0.4235                 0.6050
 IR Inten    --      3.4677                 1.0292                 7.8672

                     10                     11                     12
                      A                      A                      A
 Frequencies --    681.7837               718.6518               807.4806
 Red. masses --      5.6174                 4.4539                 1.5214
 Frc consts  --      1.5384                 1.3553                 0.5845
 IR Inten    --      2.3934                13.0470                 1.2000

                     13                     14                     15
                      A                      A                      A
 Frequencies --    813.2952               845.0199               882.3867
 Red. masses --      2.6740                 2.5384                 3.0270
 Frc consts  --      1.0421                 1.0679                 1.3886
 IR Inten    --      0.4503                10.3254                 7.7055

                     16                     17                     18
                      A                      A                      A
 Frequencies --    886.1009               904.3955               977.5667
 Red. masses --      2.8907                 2.1930                 1.4863
 Frc consts  --      1.3373                 1.0568                 0.8368
 IR Inten    --      1.6236                 0.8594                 2.5553

                     19                     20                     21
                      A                      A                      A
 Frequencies --   1006.4904              1061.1661              1070.4542
 Red. masses --      2.3318                 2.0520                 1.8911
 Frc consts  --      1.3917                 1.3614                 1.2767
 IR Inten    --     20.1766                53.5949                13.0155

                     22                     23                     24
                      A                      A                      A
 Frequencies --   1080.3728              1116.0578              1126.5543
 Red. masses --      2.1269                 1.5763                 1.6787
 Frc consts  --      1.4627                 1.1568                 1.2552
 IR Inten    --     10.7136                17.9210                 7.4598

                     25                     26                     27
                      A                      A                      A
 Frequencies --   1169.5296              1177.5315              1212.1116
 Red. masses --      1.3470                 1.2946                 3.7110
 Frc consts  --      1.0855                 1.0576                 3.2124
 IR Inten    --      6.7917                 6.2617               248.8391

                     28                     29                     30
                      A                      A                      A
 Frequencies --   1235.3826              1257.4339              1285.7637
 Red. masses --      1.2381                 1.3157                 1.7244
 Frc consts  --      1.1133                 1.2257                 1.6796
 IR Inten    --      5.6810                 3.1355                 1.8281

                     31                     32                     33
                      A                      A                      A
 Frequencies --   1292.0911              1327.1949              1339.7414
 Red. masses --      1.2978                 1.3570                 1.9296
 Frc consts  --      1.2765                 1.4083                 2.0406
 IR Inten    --      7.5300                 4.5390                 0.9912

                     34                     35                     36
                      A                      A                      A
 Frequencies --   1362.3001              1382.2452              1430.1925
 Red. masses --      1.6548                 1.4699                 1.3071
 Frc consts  --      1.8094                 1.6547                 1.5753
 IR Inten    --      1.3813                23.8789                23.5434

                     37                     38                     39
                      A                      A                      A
 Frequencies --   1450.5271              1475.7095              1500.9779
 Red. masses --      1.0943                 1.0886                 1.1177
 Frc consts  --      1.3566                 1.3967                 1.4837
 IR Inten    --      0.8766                 4.0473                 5.3876

                     40                     41                     42
                      A                      A                      A
 Frequencies --   1507.4952              1823.4930              3016.8609
 Red. masses --      1.1009                12.5322                 1.0659
 Frc consts  --      1.4740                24.5519                 5.7157
 IR Inten    --      2.7638               312.4476                37.6446

                     43                     44                     45
                      A                      A                      A
 Frequencies --   3030.5392              3043.9459              3054.6658
 Red. masses --      1.0660                 1.0615                 1.0743
 Frc consts  --      5.7682                 5.7946                 5.9063
 IR Inten    --     10.7123                30.8756                37.3832

                     46                     47                     48
                      A                      A                      A
 Frequencies --   3061.6579              3069.9055              3083.0088
 Red. masses --      1.0756                 1.0844                 1.0967
 Frc consts  --      5.9404                 6.0213                 6.1419
 IR Inten    --     37.3380                22.8234                43.1917

                     49                     50                     51
                      A                      A                      A
 Frequencies --   3083.2144              3104.1698              3115.4509
 Red. masses --      1.0948                 1.1042                 1.1075
 Frc consts  --      6.1320                 6.2690                 6.3334
 IR Inten    --      0.0508                24.7524                28.6361

 - Thermochemistry -
 -------------------
 Temperature   298.150 Kelvin.  Pressure   1.00000 Atm.
 Atom     1 has atomic number  8 and mass  15.99491

 Molecular mass:   126.06808 amu.
 Principal axes and moments of inertia in atomic units:
                           1         2         3
     Eigenvalues --   639.524801135.719001452.78942
           X            0.99988   0.01566   0.00155
           Y           -0.01568   0.99981   0.01127
           Z           -0.00138  -0.01129   0.99994
 This molecule is an asymmetric top.
 Rotational symmetry number  1.
 Warning -- assumption of classical behavior for rotation
           may cause significant error
 Rotational temperatures (Kelvin)      0.13543     0.07626     0.05962
 Rotational constants (GHZ):           2.82200     1.58907     1.24226
 Zero-point vibrational energy     423714.1 (Joules/Mol)
                                  101.27011 (Kcal/Mol)
 Warning -- explicit consideration of   9 degrees of freedom as
           vibrations may cause significant error
 Vibrational temperatures:     58.51   147.83   393.90   425.78   475.89
          (Kelvin)            515.43   695.32   748.13   810.29   980.93
                             1033.98  1161.78  1170.15  1215.79  1269.56
                             1274.90  1301.22  1406.50  1448.11  1526.78
                             1540.14  1554.41  1605.76  1620.86  1682.69
                             1694.20  1743.96  1777.44  1809.16  1849.92
                             1859.03  1909.54  1927.59  1960.04  1988.74
                             2057.73  2086.98  2123.21  2159.57  2168.95
                             2623.60  4340.58  4360.26  4379.55  4394.98
                             4405.04  4416.90  4435.76  4436.05  4466.20
                             4482.43

 Zero-point correction=                           0.161384 (Hartree/Particle)
 Thermal correction to Energy=                    0.169029
 Thermal correction to Enthalpy=                  0.169974
 Thermal correction to Gibbs Free Energy=         0.128512
 Sum of electronic and zero-point Energies=           -423.050480
 Sum of electronic and thermal Energies=              -423.042835
 Sum of electronic and thermal Enthalpies=            -423.041891
 Sum of electronic and thermal Free Energies=         -423.083352

                     E (Thermal)             CV                S
                      KCal/Mol        Cal/Mol-Kelvin    Cal/Mol-Kelvin
 Total                  106.068             29.567             87.263
 Electronic               0.000              0.000              0.000
 Translational            0.889              2.981             40.409
 Rotational               0.889              2.981             28.447
 Vibrational            104.290             23.605             18.407
 Vibration     1          0.594              1.981              5.226
 Vibration     2          0.605              1.947              3.401
 Vibration     3          0.676              1.722              1.572
 Vibration     4          0.690              1.681              1.440
 Vibration     5          0.713              1.614              1.256
 Vibration     6          0.733              1.558              1.130
 Vibration     7          0.839              1.287              0.701
 Vibration     8          0.875              1.206              0.610
 Vibration     9          0.919              1.111              0.518

 Optimization completed.
    -- Stationary point found.
 Normal termination of Gaussian 09 at Mon Jan 27 13:53:15 2020.
