 Gaussian 09, Revision D.01,
 Gaussian 09:  ES64L-G09RevD.01 24-Apr-2013

 -----------------------------
 # b3lyp 6-31G(2df,p) opt Freq
 -----------------------------

 -----
 titel
 -----
 Symbolic Z-matrix:
 Charge =  0 Multiplicity = 1

 SCF Done:  E(RB3LYP) =  -423.170682178     A.U. after   14 cycles
 Optimization completed.
    -- Stationary point found.
 Normal termination of Gaussian 09 at Tue Jan 28 02:51:04 2020.

 ----------------------------------------------------------------------
 #N Geom=AllCheck Guess=TCheck SCRF=Check GenChk RB3LYP/6-31G(2df,p) Fr
 eq
 ----------------------------------------------------------------------

 Structure from the checkpoint file:  "/scratch/puck/g09_42a2130b-71d2-4a10-b561-ab7903175313/Gau-193458.chk"
 -----
 titel
 -----
 Charge =  0 Multiplicity = 1

                         Standard orientation:
 ---------------------------------------------------------------------
 Center     Atomic      Atomic             Coordinates (Angstroms)
 Number     Number       Type             X           Y           Z
 ---------------------------------------------------------------------
      1          6           0       -2.959981   -0.267679    0.282707
      2          6           0       -1.613466   -0.362175   -0.422268
      3          6           0       -0.515184   -1.352055    0.094312
      4          6           0        0.552486   -0.228264    0.033808
      5          6           0        1.660715    0.027877    1.070983
      6          8           0        2.691822    0.002125    0.064421
      7          6           0        1.732428   -0.261411   -0.971991
      8          6           0       -0.594349    0.765174   -0.183051
      9          8           0       -0.676633    1.955931   -0.078101
     10          1           0       -2.830184   -0.156030    1.364242
     11          1           0       -3.521256    0.599669   -0.077000
     12          1           0       -3.562778   -1.163575    0.104673
     13          1           0       -1.757793   -0.483774   -1.503935
     14          1           0       -0.708413   -1.682367    1.119496
     15          1           0       -0.321283   -2.228387   -0.527719
     16          1           0        1.597999    1.001809    1.571457
     17          1           0        1.789167   -0.765532    1.818596
     18          1           0        1.726551    0.523097   -1.738720
     19          1           0        1.890579   -1.238172   -1.448651
 ---------------------------------------------------------------------

 SCF Done:  E(RB3LYP) =  -423.170682178     A.U. after    1 cycles

 The electronic state is 1-A.
 Alpha  occ. eigenvalues --  -19.14293 -19.13713 -10.26905 -10.24221 -10.23758
 Alpha  occ. eigenvalues --  -10.20647 -10.20418 -10.19975 -10.18882  -1.05203
 Alpha  occ. eigenvalues --   -1.04289  -0.85672  -0.75284  -0.69948  -0.68494
 Alpha  occ. eigenvalues --   -0.63593  -0.57739  -0.52586  -0.49756  -0.48425
 Alpha  occ. eigenvalues --   -0.47001  -0.45137  -0.43593  -0.41820  -0.41213
 Alpha  occ. eigenvalues --   -0.39272  -0.38619  -0.37365  -0.35855  -0.34584
 Alpha  occ. eigenvalues --   -0.32162  -0.30690  -0.25644  -0.23949
 Alpha virt. eigenvalues --   -0.02990   0.06600   0.09240   0.09957   0.11147
 Alpha virt. eigenvalues --    0.11605   0.13977   0.14574   0.15179   0.16171
 Alpha virt. eigenvalues --    0.16768   0.18098   0.18231   0.19672   0.21710

 Mulliken charges:
               1
     1  C   -0.407760
     2  C   -0.087906
     3  C   -0.347661
     4  C    0.175693
     5  C   -0.132249
     6  O   -0.269170
     7  C   -0.118132
     8  C    0.336092
     9  O   -0.304801
    10  H    0.121368
    11  H    0.138082
    12  H    0.122221
    13  H    0.106169
    14  H    0.112543
    15  H    0.109901
    16  H    0.121442
    17  H    0.104170
    18  H    0.115711
    19  H    0.104288
 Sum of Mulliken charges =   0.00000

 Dipole moment (field-independent basis, Debye):
    X=             -1.6785    Y=             -2.7591    Z=             -0.2304  Tot=              3.2378
 Quadrupole moment (field-independent basis, Debye-Ang):
   XX=            -58.6501   YY=            -58.1660   ZZ=            -49.1575
   XY=              1.5018   XZ=              0.0304   YZ=              0.4441

  Exact polarizability:  85.929  -0.004  73.470   0.240   1.109  68.873
 Approx polarizability: 108.823  -1.474 116.735   0.910   2.346 102.976

                      1                      2                      3
                      A                      A                      A
 Frequencies --     48.0294                79.0653               155.6615
 Red. masses --      3.3329                 4.5127                 3.4305
 Frc consts  --      0.0045                 0.0166                 0.0490
 IR Inten    --      0.0983                 4.2819                 3.8725

                      4                      5                      6
                      A                      A                      A
 Frequencies --    194.5713               209.5878               251.4516
 Red. masses --      1.0943                 2.6746                 2.7618
 Frc consts  --      0.0244                 0.0692                 0.1029
 IR Inten    --      0.6282                 1.9718                 3.1740

                      7                      8                      9
                      A                      A                      A
 Frequencies --    273.9373               344.7404               453.8046
 Red. masses --      3.0766                 2.1778                 3.3056
 Frc consts  --      0.1360                 0.1525                 0.4011
 IR Inten    --      1.1499                 1.1805                 0.2617

                     10                     11                     12
                      A                      A                      A
 Frequencies --    535.0214               690.6484               706.6363
 Red. masses --      3.2371                 3.5950                 3.2742
 Frc consts  --      0.5460                 1.0103                 0.9633
 IR Inten    --      1.5896                 0.1712                 1.6741

                     13                     14                     15
                      A                      A                      A
 Frequencies --    775.1493               846.1662               858.9752
 Red. masses --      2.6215                 3.4119                 2.0528
 Frc consts  --      0.9280                 1.4393                 0.8924
 IR Inten    --      1.2202                 9.9361                 6.7196

                     16                     17                     18
                      A                      A                      A
 Frequencies --    897.5218               932.7906               949.3617
 Red. masses --      2.4043                 1.8868                 1.4081
 Frc consts  --      1.1411                 0.9673                 0.7478
 IR Inten    --      3.7639                 9.8928                 0.8264

                     19                     20                     21
                      A                      A                      A
 Frequencies --    954.8108               995.0509              1048.8798
 Red. masses --      1.8327                 4.4283                10.6396
 Frc consts  --      0.9844                 2.5833                 6.8965
 IR Inten    --     13.8317                65.9021                85.0720

                     22                     23                     24
                      A                      A                      A
 Frequencies --   1075.2154              1115.5602              1147.9007
 Red. masses --      1.6183                 2.2863                 1.7234
 Frc consts  --      1.1023                 1.6764                 1.3379
 IR Inten    --     12.7235                11.3429                13.3440

                     25                     26                     27
                      A                      A                      A
 Frequencies --   1160.1338              1163.9823              1168.3507
 Red. masses --      1.3939                 1.1111                 2.4668
 Frc consts  --      1.1053                 0.8870                 1.9840
 IR Inten    --      3.0130                 0.1596                 0.9128

                     28                     29                     30
                      A                      A                      A
 Frequencies --   1205.2468              1218.0614              1241.1135
 Red. masses --      1.7988                 1.9044                 1.4518
 Frc consts  --      1.5395                 1.6647                 1.3176
 IR Inten    --      3.9219                 1.4878                 0.8271

                     31                     32                     33
                      A                      A                      A
 Frequencies --   1291.0405              1308.6127              1332.9313
 Red. masses --      2.3835                 1.3204                 1.7189
 Frc consts  --      2.3407                 1.3323                 1.7994
 IR Inten    --     18.8913                 1.5108                 4.8604

                     34                     35                     36
                      A                      A                      A
 Frequencies --   1371.8637              1407.5745              1481.7037
 Red. masses --      1.5147                 1.2198                 1.0966
 Frc consts  --      1.6796                 1.4239                 1.4185
 IR Inten    --     17.2212                 1.7189                 1.5752

                     37                     38                     39
                      A                      A                      A
 Frequencies --   1494.6461              1495.9869              1501.5794
 Red. masses --      1.0496                 1.0451                 1.0757
 Frc consts  --      1.3815                 1.3781                 1.4290
 IR Inten    --      3.7638                 5.7200                 1.0634

                     40                     41                     42
                      A                      A                      A
 Frequencies --   1526.2612              1879.3704              2999.9463
 Red. masses --      1.1104                12.6268                 1.0531
 Frc consts  --      1.5241                26.2765                 5.5841
 IR Inten    --      0.5265               204.6197               100.7087

                     43                     44                     45
                      A                      A                      A
 Frequencies --   3012.5874              3026.7177              3036.6396
 Red. masses --      1.0580                 1.0824                 1.0349
 Frc consts  --      5.6574                 5.8422                 5.6225
 IR Inten    --     13.7678                 6.7722                22.9638

                     46                     47                     48
                      A                      A                      A
 Frequencies --   3053.0974              3057.1242              3060.6460
 Red. masses --      1.1093                 1.0640                 1.1061
 Frc consts  --      6.0923                 5.8589                 6.1047
 IR Inten    --     26.7163                12.8756                43.9210

                     49                     50                     51
                      A                      A                      A
 Frequencies --   3105.0191              3113.7059              3116.1112
 Red. masses --      1.1021                 1.1021                 1.1056
 Frc consts  --      6.2601                 6.2955                 6.3254
 IR Inten    --     18.3912                17.9409                19.3071

 - Thermochemistry -
 -------------------
 Temperature   298.150 Kelvin.  Pressure   1.00000 Atm.
 Atom     1 has atomic number  6 and mass  12.00000

 Molecular mass:   126.06808 amu.
 Principal axes and moments of inertia in atomic units:
                           1         2         3
     Eigenvalues --   544.852621552.252411771.67351
           X            0.99987   0.01509  -0.00550
           Y           -0.01503   0.99983   0.01051
           Z            0.00565  -0.01042   0.99993
 This molecule is an asymmetric top.
 Rotational symmetry number  1.
 Warning -- assumption of classical behavior for rotation
           may cause significant error
 Rotational temperatures (Kelvin)      0.15897     0.05580     0.04889
 Rotational constants (GHZ):           3.31235     1.16266     1.01866
 Zero-point vibrational energy     414928.3 (Joules/Mol)
                                   99.17024 (Kcal/Mol)
 Warning -- explicit consideration of  10 degrees of freedom as
           vibrations may cause significant error
 Vibrational temperatures:     69.10   113.76   223.96   279.94   301.55
          (Kelvin)            361.78   394.13   496.00   652.92   769.78
                              993.69  1016.69  1115.27  1217.44  1235.87
                             1291.33  1342.08  1365.92  1373.76  1431.65
                             1509.10  1546.99  1605.04  1651.57  1669.17
                             1674.71  1680.99  1734.08  1752.52  1785.68
                             1857.52  1882.80  1917.79  1973.80  2025.18
                             2131.84  2150.46  2152.39  2160.44  2195.95
                             2703.99  4316.25  4334.44  4354.77  4369.04
                             4392.72  4398.51  4403.58  4467.42  4479.92
                             4483.38

 Zero-point correction=                           0.158038 (Hartree/Particle)
 Thermal correction to Energy=                    0.166948
 Thermal correction to Enthalpy=                  0.167893
 Thermal correction to Gibbs Free Energy=         0.123635
 Sum of electronic and zero-point Energies=           -423.012644
 Sum of electronic and thermal Energies=              -423.003734
 Sum of electronic and thermal Enthalpies=            -423.002790
 Sum of electronic and thermal Free Energies=         -423.047047

                     E (Thermal)             CV                S
                      KCal/Mol        Cal/Mol-Kelvin    Cal/Mol-Kelvin
 Total                  104.762             32.211             93.148
 Electronic               0.000              0.000              0.000
 Translational            0.889              2.981             40.409
 Rotational               0.889              2.981             28.795
 Vibrational            102.984             26.249             23.944
 Vibration     1          0.595              1.978              4.897
 Vibration     2          0.600              1.963              3.914
 Vibration     3          0.620              1.896              2.602
 Vibration     4          0.635              1.847              2.184
 Vibration     5          0.642              1.826              2.047
 Vibration     6          0.663              1.760              1.720
 Vibration     7          0.676              1.721              1.571
 Vibration     8          0.723              1.586              1.190
 Vibration     9          0.812              1.352              0.784
 Vibration    10          0.890              1.173              0.576

 Normal termination of Gaussian 09 at Tue Jan 28 03:36:21 2020.
