 Gaussian 09, Revision D.01,
 Gaussian 09:  ES64L-G09RevD.01 24-Apr-2013

 -----------------------------
 # b3lyp 6-31G(2df,p) opt Freq
 -----------------------------

 -----
 titel
 -----
 Symbolic Z-matrix:
 Charge =  0 Multiplicity = 1

 SCF Done:  E(RB3LYP) =  -423.209042945     A.U. after   14 cycles
 Optimization completed.
    -- Stationary point found.
 Normal termination of Gaussian 09 at Mon Jan 27 13:07:46 2020.

 ----------------------------------------------------------------------
 #N Geom=AllCheck Guess=TCheck SCRF=Check GenChk RB3LYP/6-31G(2df,p) Fr
 eq
 ----------------------------------------------------------------------

 Structure from the checkpoint file:  "/scratch/puck/g09_7cd4665f-c050-40c7-ada1-fa8e15f13b23/Gau-55027.chk"
 -----
 titel
 -----
 Charge =  0 Multiplicity = 1

                         Standard orientation:
 ---------------------------------------------------------------------
 Center     Atomic      Atomic             Coordinates (Angstroms)
 Number     Number       Type             X           Y           Z
 ---------------------------------------------------------------------
      1          8           0        2.878217   -0.531302   -0.031078
      2          6           0        1.714279   -0.238026   -0.018595
      3          6           0        0.609106   -1.309398   -0.084680
      4          6           0       -0.702934   -0.703925    0.358886
      5          6           0       -2.169940   -1.081283    0.021155
      6          6           0       -2.450326    0.459503   -0.046709
      7          6           0       -0.938981    0.627359   -0.355689
      8          6           0        0.052604    1.650373    0.124240
      9          8           0        1.390712    1.088419    0.029343
     10          1           0        0.559899   -1.646215   -1.128175
     11          1           0        0.960560   -2.158152    0.507578
     12          1           0       -0.658217   -0.503582    1.438674
     13          1           0       -2.258125   -1.542089   -0.967688
     14          1           0       -2.729172   -1.677758    0.744560
     15          1           0       -3.167154    0.825387   -0.783948
     16          1           0       -2.716056    0.855403    0.938297
     17          1           0       -0.793218    0.472630   -1.433175
     18          1           0        0.088821    2.569618   -0.467274
     19          1           0       -0.121618    1.920193    1.173388
 ---------------------------------------------------------------------

 SCF Done:  E(RB3LYP) =  -423.209042945     A.U. after    1 cycles

 The electronic state is 1-A.
 Alpha  occ. eigenvalues --  -19.17295 -19.11126 -10.30262 -10.24879 -10.20223
 Alpha  occ. eigenvalues --  -10.20094 -10.20069 -10.20009 -10.19937  -1.08363
 Alpha  occ. eigenvalues --   -1.00546  -0.87482  -0.76656  -0.74243  -0.65610
 Alpha  occ. eigenvalues --   -0.63707  -0.57908  -0.55472  -0.49981  -0.49008
 Alpha  occ. eigenvalues --   -0.47216  -0.46108  -0.45861  -0.41840  -0.40398
 Alpha  occ. eigenvalues --   -0.39237  -0.37168  -0.36075  -0.35434  -0.33559
 Alpha  occ. eigenvalues --   -0.31946  -0.29675  -0.28585  -0.25588
 Alpha virt. eigenvalues --    0.01627   0.08096   0.08383   0.08688   0.10354
 Alpha virt. eigenvalues --    0.12418   0.13779   0.14642   0.16215   0.16425
 Alpha virt. eigenvalues --    0.17700   0.18186   0.19337   0.19639   0.20473

 Mulliken charges:
               1
     1  O   -0.319118
     2  C    0.412560
     3  C   -0.397179
     4  C    0.067957
     5  C   -0.274951
     6  C   -0.272926
     7  C    0.042388
     8  C   -0.111766
     9  O   -0.244827
    10  H    0.132352
    11  H    0.133787
    12  H    0.083397
    13  H    0.108828
    14  H    0.104404
    15  H    0.105792
    16  H    0.109992
    17  H    0.085814
    18  H    0.120024
    19  H    0.113473
 Sum of Mulliken charges =   0.00000

 Dipole moment (field-independent basis, Debye):
    X=             -4.5771    Y=              0.1768    Z=              0.0290  Tot=              4.5806
 Quadrupole moment (field-independent basis, Debye-Ang):
   XX=            -66.2937   YY=            -51.2582   ZZ=            -50.7371
   XY=             -0.0713   XZ=              0.0616   YZ=              0.1204

  Exact polarizability:  89.884  -3.954  77.004  -0.282   0.406  61.532
 Approx polarizability: 122.703  -8.639 111.125  -0.555   0.652  98.356

                      1                      2                      3
                      A                      A                      A
 Frequencies --     87.6841               146.2433               233.4497
 Red. masses --      4.6307                 3.5669                 1.9203
 Frc consts  --      0.0210                 0.0449                 0.0617
 IR Inten    --      2.6459                 3.7356                 0.0672

                      4                      5                      6
                      A                      A                      A
 Frequencies --    290.6408               344.8999               411.9815
 Red. masses --      2.4486                 3.0483                 4.7739
 Frc consts  --      0.1219                 0.2136                 0.4774
 IR Inten    --      1.3403                 0.7041                 3.6232

                      7                      8                      9
                      A                      A                      A
 Frequencies --    441.4316               506.1414               587.9670
 Red. masses --      6.2373                 1.9995                 2.9528
 Frc consts  --      0.7161                 0.3018                 0.6014
 IR Inten    --      2.2953                 0.6483                 6.7819

                     10                     11                     12
                      A                      A                      A
 Frequencies --    598.1342               698.7964               732.4791
 Red. masses --      4.6012                 2.4158                 3.9378
 Frc consts  --      0.9699                 0.6950                 1.2448
 IR Inten    --      5.7054                 2.3963                 8.2347

                     13                     14                     15
                      A                      A                      A
 Frequencies --    802.2840               848.2860               900.6490
 Red. masses --      2.4590                 1.5515                 2.1148
 Frc consts  --      0.9325                 0.6578                 1.0107
 IR Inten    --      3.1336                 5.6264                 1.2487

                     16                     17                     18
                      A                      A                      A
 Frequencies --    922.4176               954.6008               966.6517
 Red. masses --      1.8267                 1.6517                 1.4244
 Frc consts  --      0.9158                 0.8868                 0.7842
 IR Inten    --      4.2703                 0.1755                 1.4710

                     19                     20                     21
                      A                      A                      A
 Frequencies --   1024.7342              1028.3237              1099.5742
 Red. masses --      5.1135                 4.5121                 2.1229
 Frc consts  --      3.1637                 2.8112                 1.5122
 IR Inten    --     66.8071                24.5702                22.7106

                     22                     23                     24
                      A                      A                      A
 Frequencies --   1113.5730              1140.7696              1165.5459
 Red. masses --      1.7979                 2.2385                 1.8439
 Frc consts  --      1.3136                 1.7164                 1.4758
 IR Inten    --     21.0058                30.6564                48.1221

                     25                     26                     27
                      A                      A                      A
 Frequencies --   1173.5841              1197.4513              1213.2598
 Red. masses --      3.2996                 1.3538                 1.5164
 Frc consts  --      2.6776                 1.1437                 1.3152
 IR Inten    --    115.9223                 5.3355                43.1366

                     28                     29                     30
                      A                      A                      A
 Frequencies --   1241.3898              1258.7870              1262.4334
 Red. masses --      1.3179                 1.4263                 1.2597
 Frc consts  --      1.1966                 1.3316                 1.1829
 IR Inten    --      0.3824                 0.0936                 3.0223

                     31                     32                     33
                      A                      A                      A
 Frequencies --   1290.6906              1296.4993              1314.9516
 Red. masses --      1.3196                 1.3219                 1.4448
 Frc consts  --      1.2952                 1.3091                 1.4719
 IR Inten    --      1.3288                 2.9132                11.6114

                     34                     35                     36
                      A                      A                      A
 Frequencies --   1380.8320              1409.2948              1427.0408
 Red. masses --      1.3699                 1.4889                 1.5739
 Frc consts  --      1.5389                 1.7423                 1.8884
 IR Inten    --     15.2993                 8.3197                 8.0014

                     37                     38                     39
                      A                      A                      A
 Frequencies --   1469.6298              1486.1022              1502.4649
 Red. masses --      1.1039                 1.0882                 1.1628
 Frc consts  --      1.4048                 1.4160                 1.5466
 IR Inten    --      4.3136                 3.8449                 0.4655

                     40                     41                     42
                      A                      A                      A
 Frequencies --   1517.3648              1836.8536              3001.8611
 Red. masses --      1.0948                12.6796                 1.0810
 Frc consts  --      1.4851                25.2061                 5.7394
 IR Inten    --      2.1837               349.5826                 5.1163

                     43                     44                     45
                      A                      A                      A
 Frequencies --   3017.2965              3030.8495              3039.6834
 Red. masses --      1.0799                 1.0647                 1.0663
 Frc consts  --      5.7926                 5.7626                 5.8048
 IR Inten    --      8.6718                40.2226                21.6095

                     46                     47                     48
                      A                      A                      A
 Frequencies --   3058.6311              3060.9462              3088.2500
 Red. masses --      1.0595                 1.0603                 1.1036
 Frc consts  --      5.8398                 5.8532                 6.2014
 IR Inten    --     38.2620                38.0724                32.0021

                     49                     50                     51
                      A                      A                      A
 Frequencies --   3102.3688              3114.2442              3125.7765
 Red. masses --      1.0965                 1.1057                 1.1076
 Frc consts  --      6.2182                 6.3184                 6.3762
 IR Inten    --     13.1289                20.8291                47.4152

 - Thermochemistry -
 -------------------
 Temperature   298.150 Kelvin.  Pressure   1.00000 Atm.
 Atom     1 has atomic number  8 and mass  15.99491

 Molecular mass:   126.06808 amu.
 Principal axes and moments of inertia in atomic units:
                           1         2         3
     Eigenvalues --   511.656881405.493531819.23474
           X            1.00000   0.00062  -0.00014
           Y           -0.00062   0.99998   0.00695
           Z            0.00015  -0.00695   0.99998
 This molecule is an asymmetric top.
 Rotational symmetry number  1.
 Warning -- assumption of classical behavior for rotation
           may cause significant error
 Rotational temperatures (Kelvin)      0.16928     0.06163     0.04761
 Rotational constants (GHZ):           3.52725     1.28406     0.99203
 Zero-point vibrational energy     424469.7 (Joules/Mol)
                                  101.45070 (Kcal/Mol)
 Warning -- explicit consideration of  10 degrees of freedom as
           vibrations may cause significant error
 Vibrational temperatures:    126.16   210.41   335.88   418.17   496.23
          (Kelvin)            592.75   635.12   728.22   845.95   860.58
                             1005.41  1053.87  1154.31  1220.49  1295.83
                             1327.15  1373.46  1390.79  1474.36  1479.53
                             1582.04  1602.18  1641.31  1676.96  1688.52
                             1722.86  1745.61  1786.08  1811.11  1816.36
                             1857.01  1865.37  1891.92  1986.71  2027.66
                             2053.19  2114.47  2138.17  2161.71  2183.15
                             2642.82  4319.00  4341.21  4360.71  4373.42
                             4400.68  4404.01  4443.30  4463.61  4480.70
                             4497.29

 Zero-point correction=                           0.161672 (Hartree/Particle)
 Thermal correction to Energy=                    0.169209
 Thermal correction to Enthalpy=                  0.170153
 Thermal correction to Gibbs Free Energy=         0.129499
 Sum of electronic and zero-point Energies=           -423.047371
 Sum of electronic and thermal Energies=              -423.039834
 Sum of electronic and thermal Enthalpies=            -423.038890
 Sum of electronic and thermal Free Energies=         -423.079544

                     E (Thermal)             CV                S
                      KCal/Mol        Cal/Mol-Kelvin    Cal/Mol-Kelvin
 Total                  106.180             29.632             85.564
 Electronic               0.000              0.000              0.000
 Translational            0.889              2.981             40.409
 Rotational               0.889              2.981             28.661
 Vibrational            104.403             23.670             16.494
 Vibration     1          0.601              1.958              3.711
 Vibration     2          0.617              1.907              2.721
 Vibration     3          0.654              1.790              1.852
 Vibration     4          0.687              1.691              1.470
 Vibration     5          0.723              1.586              1.189
 Vibration     6          0.776              1.444              0.920
 Vibration     7          0.801              1.380              0.822
 Vibration     8          0.861              1.236              0.643
 Vibration     9          0.945              1.057              0.471
 Vibration    10          0.956              1.036              0.453

 Optimization completed.
    -- Stationary point found.
 Normal termination of Gaussian 09 at Mon Jan 27 13:53:55 2020.
