 Gaussian 09, Revision D.01,
 Gaussian 09:  ES64L-G09RevD.01 24-Apr-2013

 -----------------------------
 # b3lyp 6-31G(2df,p) opt Freq
 -----------------------------

 -----
 titel
 -----
 Symbolic Z-matrix:
 Charge =  0 Multiplicity = 1

 SCF Done:  E(RB3LYP) =  -423.217193129     A.U. after   14 cycles
 Optimization completed.
    -- Stationary point found.
 Normal termination of Gaussian 09 at Mon Jan 27 10:21:48 2020.

 ----------------------------------------------------------------------
 #N Geom=AllCheck Guess=TCheck SCRF=Check GenChk RB3LYP/6-31G(2df,p) Fr
 eq
 ----------------------------------------------------------------------

 Structure from the checkpoint file:  "/scratch/puck/g09_5e5259a8-5ce3-47a0-8725-5afd55538e5c/Gau-14497.chk"
 -----
 titel
 -----
 Charge =  0 Multiplicity = 1

                         Standard orientation:
 ---------------------------------------------------------------------
 Center     Atomic      Atomic             Coordinates (Angstroms)
 Number     Number       Type             X           Y           Z
 ---------------------------------------------------------------------
      1          6           0       -2.168351   -0.038593   -1.269891
      2          6           0       -1.426509    0.424934   -0.000893
      3          6           0       -2.167401   -0.032755    1.270801
      4          6           0       -0.001651   -0.019183   -0.000419
      5          6           0        1.186371    0.650766   -0.000665
      6          8           0        1.301952    2.010680   -0.001545
      7          6           0        2.233584   -0.329250    0.000362
      8          6           0        1.602088   -1.532403    0.001443
      9          8           0        0.259121   -1.369524    0.000953
     10          1           0       -2.193153   -1.131569   -1.324787
     11          1           0       -3.201460    0.324145   -1.267883
     12          1           0       -1.675112    0.333060   -2.172726
     13          1           0       -1.391087    1.520838   -0.003403
     14          1           0       -1.673511    0.343136    2.171521
     15          1           0       -3.200543    0.329893    1.267883
     16          1           0       -2.192069   -1.125475    1.330783
     17          1           0        2.234724    2.241563   -0.003941
     18          1           0        3.299158   -0.155661    0.000430
     19          1           0        1.955676   -2.550266    0.002441
 ---------------------------------------------------------------------

 SCF Done:  E(RB3LYP) =  -423.217193129     A.U. after    1 cycles

 The electronic state is 1-A.
 Alpha  occ. eigenvalues --  -19.19317 -19.16525 -10.22629 -10.22473 -10.21014
 Alpha  occ. eigenvalues --  -10.19037 -10.17782 -10.16764 -10.16764  -1.09650
 Alpha  occ. eigenvalues --   -1.04989  -0.80176  -0.78344  -0.71891  -0.67614
 Alpha  occ. eigenvalues --   -0.61173  -0.60122  -0.54766  -0.52414  -0.47184
 Alpha  occ. eigenvalues --   -0.44950  -0.44735  -0.43471  -0.41934  -0.39384
 Alpha  occ. eigenvalues --   -0.37857  -0.37706  -0.36994  -0.35975  -0.33478
 Alpha  occ. eigenvalues --   -0.33130  -0.32475  -0.24989  -0.19589
 Alpha virt. eigenvalues --    0.02480   0.06824   0.09802   0.09927   0.12422
 Alpha virt. eigenvalues --    0.14752   0.15321   0.15870   0.16270   0.17498
 Alpha virt. eigenvalues --    0.19274   0.19831   0.20294   0.20890   0.24532

 Mulliken charges:
               1
     1  C   -0.381494
     2  C   -0.088816
     3  C   -0.381481
     4  C    0.291487
     5  C    0.186188
     6  O   -0.446629
     7  C   -0.307266
     8  C   -0.005740
     9  O   -0.194236
    10  H    0.123572
    11  H    0.107222
    12  H    0.116166
    13  H    0.098432
    14  H    0.116197
    15  H    0.107220
    16  H    0.123540
    17  H    0.298923
    18  H    0.104964
    19  H    0.131753
 Sum of Mulliken charges =   0.00000

 Dipole moment (field-independent basis, Debye):
    X=              1.5844    Y=              0.2451    Z=             -0.0034  Tot=              1.6032
 Quadrupole moment (field-independent basis, Debye-Ang):
   XX=            -44.5956   YY=            -51.7987   ZZ=            -55.4046
   XY=              1.5107   XZ=             -0.0090   YZ=             -0.0134

  Exact polarizability: 100.013  -1.627  80.157   0.001  -0.016  56.477
 Approx polarizability: 139.802   2.785 132.084   0.000  -0.047  80.184

                      1                      2                      3
                      A                      A                      A
 Frequencies --     41.4221               125.5022               141.4551
 Red. masses --      3.3743                 2.3960                 1.3333
 Frc consts  --      0.0034                 0.0222                 0.0157
 IR Inten    --      0.6173                33.2519                66.6011

                      4                      5                      6
                      A                      A                      A
 Frequencies --    162.3243               219.2030               246.6075
 Red. masses --      3.1171                 1.0310                 1.2742
 Frc consts  --      0.0484                 0.0292                 0.0457
 IR Inten    --      2.0910                 0.0169                 0.9098

                      7                      8                      9
                      A                      A                      A
 Frequencies --    280.7871               297.0759               391.8639
 Red. masses --      2.3137                 4.0792                 2.5877
 Frc consts  --      0.1075                 0.2121                 0.2341
 IR Inten    --      0.2096                 1.0491                 1.0555

                     10                     11                     12
                      A                      A                      A
 Frequencies --    419.8054               533.5358               612.9573
 Red. masses --      4.2991                 3.1161                 4.0429
 Frc consts  --      0.4464                 0.5226                 0.8950
 IR Inten    --      5.9279                 0.8316                 1.3453

                     13                     14                     15
                      A                      A                      A
 Frequencies --    633.5409               700.6890               716.6046
 Red. masses --      4.9835                 2.4053                 4.6372
 Frc consts  --      1.1785                 0.6958                 1.4030
 IR Inten    --      1.5597                10.5366                 2.2641

                     16                     17                     18
                      A                      A                      A
 Frequencies --    734.7831               784.7824               875.0700
 Red. masses --      1.9459                 1.2371                 3.2038
 Frc consts  --      0.6190                 0.4489                 1.4454
 IR Inten    --     26.9736                 5.2191                 7.6025

                     19                     20                     21
                      A                      A                      A
 Frequencies --    909.8077               930.0533               959.2325
 Red. masses --      3.8570                 1.1766                 1.5405
 Frc consts  --      1.8810                 0.5997                 0.8352
 IR Inten    --     16.3978                 0.7567                 0.0008

                     22                     23                     24
                      A                      A                      A
 Frequencies --   1039.1889              1071.8444              1078.7330
 Red. masses --      1.9115                 2.2881                 1.5430
 Frc consts  --      1.2162                 1.5488                 1.0579
 IR Inten    --     51.8943                50.1225                 0.5026

                     25                     26                     27
                      A                      A                      A
 Frequencies --   1121.2408              1183.4109              1197.6656
 Red. masses --      2.3245                 1.8600                 2.2906
 Frc consts  --      1.7217                 1.5347                 1.9358
 IR Inten    --      3.8151                11.5612                28.3892

                     28                     29                     30
                      A                      A                      A
 Frequencies --   1240.3842              1273.4776              1313.4298
 Red. masses --      2.7715                 1.7041                 1.9294
 Frc consts  --      2.5123                 1.6283                 1.9610
 IR Inten    --      5.4862                24.5708                93.8628

                     31                     32                     33
                      A                      A                      A
 Frequencies --   1334.9982              1377.4645              1393.2982
 Red. masses --      1.3063                 1.6624                 1.2206
 Frc consts  --      1.3717                 1.8585                 1.3961
 IR Inten    --      2.8267                 2.9616                 2.4931

                     34                     35                     36
                      A                      A                      A
 Frequencies --   1414.4009              1463.9880              1486.0957
 Red. masses --      1.2439                 4.1928                 1.0414
 Frc consts  --      1.4662                 5.2945                 1.3551
 IR Inten    --      0.5214                84.4266                 0.5549

                     37                     38                     39
                      A                      A                      A
 Frequencies --   1491.5007              1500.0502              1511.5499
 Red. masses --      1.0499                 1.0430                 1.1046
 Frc consts  --      1.3761                 1.3828                 1.4870
 IR Inten    --      1.1770                 7.3534                 1.2131

                     40                     41                     42
                      A                      A                      A
 Frequencies --   1543.8884              1703.0096              3032.2210
 Red. masses --      4.3336                 6.8496                 1.0343
 Frc consts  --      6.0860                11.7044                 5.6032
 IR Inten    --     10.3689                35.1959                25.6624

                     43                     44                     45
                      A                      A                      A
 Frequencies --   3036.3197              3043.2982              3101.7679
 Red. masses --      1.0351                 1.0832                 1.1018
 Frc consts  --      5.6223                 5.9107                 6.2455
 IR Inten    --     28.3073                 6.1456                 2.7414

                     46                     47                     48
                      A                      A                      A
 Frequencies --   3107.5187              3111.1685              3114.5747
 Red. masses --      1.1014                 1.1023                 1.1014
 Frc consts  --      6.2666                 6.2865                 6.2952
 IR Inten    --     59.6264                17.7557                34.4175

                     49                     50                     51
                      A                      A                      A
 Frequencies --   3242.4519              3280.3670              3850.9318
 Red. masses --      1.0919                 1.1034                 1.0664
 Frc consts  --      6.7635                 6.9956                 9.3175
 IR Inten    --      2.8799                 0.5067                64.2901

 - Thermochemistry -
 -------------------
 Temperature   298.150 Kelvin.  Pressure   1.00000 Atm.
 Atom     1 has atomic number  6 and mass  12.00000

 Molecular mass:   126.06808 amu.
 Principal axes and moments of inertia in atomic units:
                           1         2         3
     Eigenvalues --   726.520091375.903041709.35776
           X            0.99999  -0.00481  -0.00001
           Y            0.00481   0.99999   0.00010
           Z            0.00001  -0.00010   1.00000
 This molecule is an asymmetric top.
 Rotational symmetry number  1.
 Warning -- assumption of classical behavior for rotation
           may cause significant error
 Rotational temperatures (Kelvin)      0.11922     0.06295     0.05067
 Rotational constants (GHZ):           2.48409     1.31168     1.05580
 Zero-point vibrational energy     414968.7 (Joules/Mol)
                                   99.17989 (Kcal/Mol)
 Warning -- explicit consideration of  12 degrees of freedom as
           vibrations may cause significant error
 Vibrational temperatures:     59.60   180.57   203.52   233.55   315.38
          (Kelvin)            354.81   403.99   427.43   563.80   604.01
                              767.64   881.91   911.52  1008.13  1031.03
                             1057.19  1129.13  1259.03  1309.01  1338.14
                             1380.12  1495.16  1542.14  1552.05  1613.21
                             1702.66  1723.17  1784.63  1832.25  1889.73
                             1920.76  1981.86  2004.64  2035.00  2106.35
                             2138.16  2145.93  2158.23  2174.78  2221.31
                             2450.25  4362.68  4368.58  4378.62  4462.75
                             4471.02  4476.27  4481.17  4665.16  4719.71
                             5540.62

 Zero-point correction=                           0.158053 (Hartree/Particle)
 Thermal correction to Energy=                    0.167551
 Thermal correction to Enthalpy=                  0.168495
 Thermal correction to Gibbs Free Energy=         0.123345
 Sum of electronic and zero-point Energies=           -423.059140
 Sum of electronic and thermal Energies=              -423.049643
 Sum of electronic and thermal Enthalpies=            -423.048698
 Sum of electronic and thermal Free Energies=         -423.093848

                     E (Thermal)             CV                S
                      KCal/Mol        Cal/Mol-Kelvin    Cal/Mol-Kelvin
 Total                  105.140             34.719             95.025
 Electronic               0.000              0.000              0.000
 Translational            0.889              2.981             40.409
 Rotational               0.889              2.981             28.926
 Vibrational            103.362             28.758             25.691
 Vibration     1          0.594              1.981              5.190
 Vibration     2          0.610              1.928              3.014
 Vibration     3          0.615              1.912              2.784
 Vibration     4          0.622              1.889              2.523
 Vibration     5          0.647              1.812              1.966
 Vibration     6          0.661              1.768              1.755
 Vibration     7          0.680              1.709              1.529
 Vibration     8          0.691              1.679              1.433
 Vibration     9          0.759              1.488              0.993
 Vibration    10          0.782              1.427              0.893
 Vibration    11          0.889              1.176              0.579
 Vibration    12          0.972              1.004              0.428

 Normal termination of Gaussian 09 at Mon Jan 27 11:01:48 2020.
