 Gaussian 09, Revision D.01,
 Gaussian 09:  ES64L-G09RevD.01 24-Apr-2013

 -----------------------------
 # b3lyp 6-31G(2df,p) opt Freq
 -----------------------------

 -----
 titel
 -----
 Symbolic Z-matrix:
 Charge =  0 Multiplicity = 1

 SCF Done:  E(RB3LYP) =  -423.150386657     A.U. after   13 cycles
 Optimization completed.
    -- Stationary point found.
 Normal termination of Gaussian 09 at Tue Jan 28 08:11:33 2020.

 ----------------------------------------------------------------------
 #N Geom=AllCheck Guess=TCheck SCRF=Check GenChk RB3LYP/6-31G(2df,p) Fr
 eq
 ----------------------------------------------------------------------

 Structure from the checkpoint file:  "/scratch/puck/g09_e0bfb46a-9e06-4901-9349-a67f7771518e/Gau-8198.chk"
 -----
 titel
 -----
 Charge =  0 Multiplicity = 1

                         Standard orientation:
 ---------------------------------------------------------------------
 Center     Atomic      Atomic             Coordinates (Angstroms)
 Number     Number       Type             X           Y           Z
 ---------------------------------------------------------------------
      1          8           0        2.112864   -0.567829   -0.749780
      2          6           0        1.209862   -0.616406    0.348053
      3          6           0        1.018920    0.768114    0.974890
      4          8           0        0.274861    1.648454    0.137063
      5          6           0       -0.836194    1.097480   -0.520097
      6          6           0       -1.871727    0.130220   -0.001065
      7          6           0       -1.328036   -0.977739    0.903915
      8          6           0       -0.141021   -1.195872   -0.088223
      9          6           0       -0.850715   -0.268797   -1.105639
     10          1           0        1.802272    0.132764   -1.335140
     11          1           0        1.681640   -1.268109    1.092574
     12          1           0        0.540256    0.683105    1.960159
     13          1           0        1.995176    1.240763    1.112989
     14          1           0       -1.268587    1.875008   -1.142639
     15          1           0       -2.925286    0.362705   -0.113635
     16          1           0       -1.106821   -0.737894    1.948009
     17          1           0       -1.996128   -1.842852    0.887927
     18          1           0       -0.021450   -2.225960   -0.424393
     19          1           0       -1.009409   -0.486527   -2.155118
 ---------------------------------------------------------------------

 SCF Done:  E(RB3LYP) =  -423.150386657     A.U. after    1 cycles

 The electronic state is 1-A.
 Alpha  occ. eigenvalues --  -19.14553 -19.13132 -10.23980 -10.22963 -10.22572
 Alpha  occ. eigenvalues --  -10.19635 -10.19304 -10.19191 -10.19080  -1.04266
 Alpha  occ. eigenvalues --   -1.01020  -0.89151  -0.77380  -0.69976  -0.67461
 Alpha  occ. eigenvalues --   -0.63047  -0.55654  -0.53800  -0.52417  -0.48977
 Alpha  occ. eigenvalues --   -0.47989  -0.46980  -0.43858  -0.41730  -0.39800
 Alpha  occ. eigenvalues --   -0.38469  -0.36900  -0.34788  -0.33111  -0.32689
 Alpha  occ. eigenvalues --   -0.30665  -0.28028  -0.25411  -0.23008
 Alpha virt. eigenvalues --    0.07765   0.08186   0.10132   0.11712   0.12350
 Alpha virt. eigenvalues --    0.13586   0.14950   0.15322   0.16075   0.16327
 Alpha virt. eigenvalues --    0.18505   0.19836   0.20282   0.21433   0.22634

 Mulliken charges:
               1
     1  O   -0.442679
     2  C    0.109807
     3  C   -0.107569
     4  O   -0.274995
     5  C    0.123262
     6  C   -0.106454
     7  C   -0.265019
     8  C   -0.047940
     9  C   -0.138835
    10  H    0.289683
    11  H    0.085341
    12  H    0.097940
    13  H    0.113451
    14  H    0.105305
    15  H    0.086328
    16  H    0.097418
    17  H    0.105930
    18  H    0.081284
    19  H    0.087742
 Sum of Mulliken charges =   0.00000

 Dipole moment (field-independent basis, Debye):
    X=             -1.5766    Y=             -0.4948    Z=              0.1499  Tot=              1.6593
 Quadrupole moment (field-independent basis, Debye-Ang):
   XX=            -55.3720   YY=            -55.4097   ZZ=            -50.0717
   XY=              1.6687   XZ=              2.6133   YZ=             -2.2845

  Exact polarizability:  78.185   0.323  69.953   1.498  -2.456  70.563
 Approx polarizability: 109.795  -0.511 105.933  -1.897  -2.925 108.483

                      1                      2                      3
                      A                      A                      A
 Frequencies --    140.9420               145.1551               286.7480
 Red. masses --      3.2945                 4.1621                 2.1513
 Frc consts  --      0.0386                 0.0517                 0.1042
 IR Inten    --      8.0303                 1.4328                11.7276

                      4                      5                      6
                      A                      A                      A
 Frequencies --    324.2049               388.8220               430.8797
 Red. masses --      1.4969                 3.2195                 2.4948
 Frc consts  --      0.0927                 0.2868                 0.2729
 IR Inten    --     65.6583                 5.0771                 0.4629

                      7                      8                      9
                      A                      A                      A
 Frequencies --    451.4358               545.8613               603.3190
 Red. masses --      3.3695                 4.0765                 4.4248
 Frc consts  --      0.4046                 0.7157                 0.9489
 IR Inten    --      6.0207                 7.8028                 0.6956

                     10                     11                     12
                      A                      A                      A
 Frequencies --    717.0885               743.5365               775.8895
 Red. masses --      2.4663                 4.3999                 2.3559
 Frc consts  --      0.7472                 1.4332                 0.8356
 IR Inten    --      7.2550                 4.7127                17.4468

                     13                     14                     15
                      A                      A                      A
 Frequencies --    806.7537               835.2153               878.8709
 Red. masses --      2.7793                 2.4952                 2.1409
 Frc consts  --      1.0658                 1.0255                 0.9743
 IR Inten    --      2.5315                16.7098                14.7873

                     16                     17                     18
                      A                      A                      A
 Frequencies --    931.9590               949.4499               969.0681
 Red. masses --      2.3995                 2.3060                 1.3179
 Frc consts  --      1.2279                 1.2248                 0.7292
 IR Inten    --      1.8644                10.5091                 6.1346

                     19                     20                     21
                      A                      A                      A
 Frequencies --    984.9765              1010.7183              1037.6677
 Red. masses --      1.9130                 2.0103                 2.0729
 Frc consts  --      1.0935                 1.2100                 1.3151
 IR Inten    --      0.8357                 9.8565                 5.2005

                     22                     23                     24
                      A                      A                      A
 Frequencies --   1056.5472              1061.2150              1083.0111
 Red. masses --      2.2744                 2.2831                 1.3858
 Frc consts  --      1.4959                 1.5149                 0.9577
 IR Inten    --     66.9158                19.1891                13.8806

                     25                     26                     27
                      A                      A                      A
 Frequencies --   1111.4341              1132.2135              1166.3307
 Red. masses --      1.6912                 2.2219                 1.3782
 Frc consts  --      1.2308                 1.6782                 1.1046
 IR Inten    --     17.0887                23.3763                 8.0214

                     28                     29                     30
                      A                      A                      A
 Frequencies --   1204.8383              1219.9542              1254.4698
 Red. masses --      2.7426                 1.5652                 1.2703
 Frc consts  --      2.3457                 1.3725                 1.1778
 IR Inten    --     89.6907                 1.5955                22.4101

                     31                     32                     33
                      A                      A                      A
 Frequencies --   1263.2801              1283.8864              1293.4439
 Red. masses --      1.4381                 1.7357                 1.4794
 Frc consts  --      1.3522                 1.6857                 1.4583
 IR Inten    --      4.5656                 3.7504                11.2112

                     34                     35                     36
                      A                      A                      A
 Frequencies --   1329.6060              1351.6099              1363.1874
 Red. masses --      1.5739                 1.3827                 1.5658
 Frc consts  --      1.6394                 1.4883                 1.7144
 IR Inten    --      0.6252                 7.6664                 3.8387

                     37                     38                     39
                      A                      A                      A
 Frequencies --   1392.8419              1427.4000              1445.3091
 Red. masses --      1.3037                 1.2979                 1.7920
 Frc consts  --      1.4901                 1.5580                 2.2056
 IR Inten    --     11.4306                54.8446                20.5629

                     40                     41                     42
                      A                      A                      A
 Frequencies --   1493.7151              1515.1964              3005.5281
 Red. masses --      1.1438                 1.0893                 1.0687
 Frc consts  --      1.5036                 1.4734                 5.6877
 IR Inten    --      9.6831                 2.5916                28.8702

                     43                     44                     45
                      A                      A                      A
 Frequencies --   3047.8033              3053.9775              3090.4719
 Red. masses --      1.0825                 1.0607                 1.0957
 Frc consts  --      5.9247                 5.8289                 6.1660
 IR Inten    --     15.9009                74.4757                42.6094

                     46                     47                     48
                      A                      A                      A
 Frequencies --   3095.1962              3107.9825              3159.2216
 Red. masses --      1.1031                 1.0911                 1.0885
 Frc consts  --      6.2265                 6.2095                 6.4007
 IR Inten    --     10.9182                35.1724                 5.6962

                     49                     50                     51
                      A                      A                      A
 Frequencies --   3166.3050              3181.9864              3797.2881
 Red. masses --      1.0882                 1.0962                 1.0656
 Frc consts  --      6.4279                 6.5394                 9.0530
 IR Inten    --     26.9723                23.4644                17.0790

 - Thermochemistry -
 -------------------
 Temperature   298.150 Kelvin.  Pressure   1.00000 Atm.
 Atom     1 has atomic number  8 and mass  15.99491

 Molecular mass:   126.06808 amu.
 Principal axes and moments of inertia in atomic units:
                           1         2         3
     Eigenvalues --   677.28838 996.076391182.44602
           X            0.99939   0.02989   0.01827
           Y           -0.02915   0.99879  -0.03968
           Z           -0.01943   0.03912   0.99905
 This molecule is an asymmetric top.
 Rotational symmetry number  1.
 Warning -- assumption of classical behavior for rotation
           may cause significant error
 Rotational temperatures (Kelvin)      0.12788     0.08695     0.07325
 Rotational constants (GHZ):           2.66466     1.81185     1.52628
 Zero-point vibrational energy     425355.1 (Joules/Mol)
                                  101.66230 (Kcal/Mol)
 Warning -- explicit consideration of   9 degrees of freedom as
           vibrations may cause significant error
 Vibrational temperatures:    202.78   208.85   412.57   466.46   559.43
          (Kelvin)            619.94   649.51   785.37   868.04  1031.73
                             1069.78  1116.33  1160.74  1201.69  1264.50
                             1340.88  1366.04  1394.27  1417.16  1454.20
                             1492.97  1520.13  1526.85  1558.21  1599.10
                             1629.00  1678.09  1733.49  1755.24  1804.90
                             1817.58  1847.22  1860.97  1913.00  1944.66
                             1961.32  2003.99  2053.71  2079.47  2149.12
                             2180.03  4324.28  4385.10  4393.99  4446.49
                             4453.29  4471.69  4545.41  4555.60  4578.16
                             5463.44

 Zero-point correction=                           0.162009 (Hartree/Particle)
 Thermal correction to Energy=                    0.169216
 Thermal correction to Enthalpy=                  0.170161
 Thermal correction to Gibbs Free Energy=         0.130644
 Sum of electronic and zero-point Energies=           -422.988377
 Sum of electronic and thermal Energies=              -422.981170
 Sum of electronic and thermal Enthalpies=            -422.980226
 Sum of electronic and thermal Free Energies=         -423.019743

                     E (Thermal)             CV                S
                      KCal/Mol        Cal/Mol-Kelvin    Cal/Mol-Kelvin
 Total                  106.185             29.483             83.170
 Electronic               0.000              0.000              0.000
 Translational            0.889              2.981             40.409
 Rotational               0.889              2.981             28.169
 Vibrational            104.407             23.521             14.593
 Vibration     1          0.615              1.912              2.791
 Vibration     2          0.617              1.908              2.735
 Vibration     3          0.684              1.698              1.493
 Vibration     4          0.709              1.627              1.289
 Vibration     5          0.757              1.494              1.005
 Vibration     6          0.792              1.403              0.856
 Vibration     7          0.810              1.358              0.791
 Vibration     8          0.901              1.149              0.553
 Vibration     9          0.962              1.025              0.444

 Optimization completed.
    -- Stationary point found.
 Normal termination of Gaussian 09 at Tue Jan 28 09:04:57 2020.
