 Gaussian 09, Revision D.01,
 Gaussian 09:  ES64L-G09RevD.01 24-Apr-2013

 -----------------------------
 # b3lyp 6-31G(2df,p) opt Freq
 -----------------------------

 -----
 titel
 -----
 Symbolic Z-matrix:
 Charge =  0 Multiplicity = 1

 SCF Done:  E(RB3LYP) =  -423.135571932     A.U. after   12 cycles
 Optimization completed.
    -- Stationary point found.
 Normal termination of Gaussian 09 at Mon Jan 27 16:05:58 2020.

 ----------------------------------------------------------------------
 #N Geom=AllCheck Guess=TCheck SCRF=Check GenChk RB3LYP/6-31G(2df,p) Fr
 eq
 ----------------------------------------------------------------------

 Structure from the checkpoint file:  "/scratch/puck/g09_960e3aef-6d55-43dc-85e3-544f2b004266/Gau-10572.chk"
 -----
 titel
 -----
 Charge =  0 Multiplicity = 1

                         Standard orientation:
 ---------------------------------------------------------------------
 Center     Atomic      Atomic             Coordinates (Angstroms)
 Number     Number       Type             X           Y           Z
 ---------------------------------------------------------------------
      1          6           0        1.522835   -0.816185    1.224212
      2          6           0        0.772172   -0.352767   -0.013833
      3          8           0        1.686431    0.177863   -0.977598
      4          6           0       -0.304975   -1.228646   -0.653013
      5          6           0       -1.641460   -0.879791    0.029236
      6          6           0       -1.380321    0.216175    1.069443
      7          6           0       -0.333987    0.745623    0.075962
      8          8           0        0.051214    2.062967    0.125675
      9          6           0       -1.108372   -0.036470   -1.097779
     10          1           0        2.065786    0.018470    1.678736
     11          1           0        0.848813   -1.245947    1.968904
     12          1           0        2.253184   -1.592227    0.961321
     13          1           0        2.361958   -0.481722   -1.161191
     14          1           0       -0.168087   -2.169194   -1.173041
     15          1           0       -2.470005   -1.574997    0.000444
     16          1           0       -2.232343    0.898631    1.131927
     17          1           0       -1.045634   -0.047594    2.078723
     18          1           0        0.846720    2.129287   -0.421266
     19          1           0       -1.516903    0.251019   -2.054545
 ---------------------------------------------------------------------

 SCF Done:  E(RB3LYP) =  -423.135571932     A.U. after    1 cycles

 The electronic state is 1-A.
 Alpha  occ. eigenvalues --  -19.14313 -19.13811 -10.23646 -10.23501 -10.19164
 Alpha  occ. eigenvalues --  -10.18643 -10.18030 -10.17861 -10.17609  -1.04060
 Alpha  occ. eigenvalues --   -1.01329  -0.91618  -0.74315  -0.71356  -0.66640
 Alpha  occ. eigenvalues --   -0.60213  -0.56115  -0.53675  -0.53053  -0.47664
 Alpha  occ. eigenvalues --   -0.46401  -0.44837  -0.42592  -0.40595  -0.39312
 Alpha  occ. eigenvalues --   -0.38772  -0.36954  -0.35343  -0.34451  -0.30585
 Alpha  occ. eigenvalues --   -0.28946  -0.26402  -0.25206  -0.24339
 Alpha virt. eigenvalues --    0.06369   0.11049   0.11388   0.12198   0.12956
 Alpha virt. eigenvalues --    0.13578   0.14639   0.15189   0.16451   0.17331
 Alpha virt. eigenvalues --    0.18045   0.20225   0.20703   0.21594   0.22401

 Mulliken charges:
               1
     1  C   -0.474115
     2  C    0.357035
     3  O   -0.500159
     4  C   -0.127799
     5  C   -0.075714
     6  C   -0.294696
     7  C    0.387152
     8  O   -0.487378
     9  C   -0.169979
    10  H    0.127633
    11  H    0.126996
    12  H    0.102945
    13  H    0.280445
    14  H    0.078444
    15  H    0.087846
    16  H    0.108393
    17  H    0.088317
    18  H    0.292878
    19  H    0.091755
 Sum of Mulliken charges =   0.00000

 Dipole moment (field-independent basis, Debye):
    X=              0.9922    Y=             -2.0470    Z=             -0.4277  Tot=              2.3147
 Quadrupole moment (field-independent basis, Debye-Ang):
   XX=            -48.5084   YY=            -54.6412   ZZ=            -52.7415
   XY=             -0.4509   XZ=             -0.7368   YZ=             -0.0360

  Exact polarizability:  80.070  -0.386  71.564  -0.743   0.956  70.453
 Approx polarizability: 112.175  -0.214 111.069  -4.193  -0.130 105.889

                      1                      2                      3
                      A                      A                      A
 Frequencies --    178.0823               186.1962               195.2972
 Red. masses --      3.3268                 1.1748                 1.1671
 Frc consts  --      0.0622                 0.0240                 0.0262
 IR Inten    --      4.4517                72.4428                21.8659

                      4                      5                      6
                      A                      A                      A
 Frequencies --    258.4330               278.3684               334.6532
 Red. masses --      3.5154                 2.2553                 3.0211
 Frc consts  --      0.1383                 0.1030                 0.1993
 IR Inten    --      5.6309                11.1652                 0.6913

                      7                      8                      9
                      A                      A                      A
 Frequencies --    397.4105               443.8216               471.9243
 Red. masses --      3.9358                 2.6661                 1.3899
 Frc consts  --      0.3662                 0.3094                 0.1824
 IR Inten    --      3.7031                10.8622                46.0367

                     10                     11                     12
                      A                      A                      A
 Frequencies --    507.0796               555.0167               636.8437
 Red. masses --      1.8295                 3.6952                 3.9481
 Frc consts  --      0.2772                 0.6707                 0.9434
 IR Inten    --     27.6374                11.3891                 2.4715

                     13                     14                     15
                      A                      A                      A
 Frequencies --    675.8477               739.1687               796.6942
 Red. masses --      4.5493                 3.0807                 1.2012
 Frc consts  --      1.2243                 0.9917                 0.4492
 IR Inten    --      6.3944                 3.5784                10.5060

                     16                     17                     18
                      A                      A                      A
 Frequencies --    805.7748               821.7089               896.7845
 Red. masses --      2.0053                 3.2318                 2.6306
 Frc consts  --      0.7671                 1.2857                 1.2465
 IR Inten    --      3.4571                16.9337                 6.6937

                     19                     20                     21
                      A                      A                      A
 Frequencies --    918.2555               946.5365               967.8723
 Red. masses --      1.3701                 2.3100                 2.3275
 Frc consts  --      0.6806                 1.2194                 1.2846
 IR Inten    --      9.9350                23.1970                 1.2030

                     22                     23                     24
                      A                      A                      A
 Frequencies --    997.7286              1002.9889              1020.8950
 Red. masses --      1.8752                 2.0501                 1.3426
 Frc consts  --      1.0998                 1.2151                 0.8245
 IR Inten    --      5.9651                14.3530                 2.4059

                     25                     26                     27
                      A                      A                      A
 Frequencies --   1048.7559              1094.0701              1102.0107
 Red. masses --      1.7709                 1.9045                 1.6060
 Frc consts  --      1.1476                 1.3432                 1.1491
 IR Inten    --      2.3350                14.7948                21.7429

                     28                     29                     30
                      A                      A                      A
 Frequencies --   1134.0069              1147.7892              1181.1816
 Red. masses --      1.4172                 1.6928                 3.6117
 Frc consts  --      1.0738                 1.3139                 2.9689
 IR Inten    --     16.6084                16.8846                54.0496

                     31                     32                     33
                      A                      A                      A
 Frequencies --   1202.7693              1237.2528              1281.2637
 Red. masses --      2.1655                 1.8576                 1.9216
 Frc consts  --      1.8457                 1.6754                 1.8586
 IR Inten    --     17.6295                17.6521                32.8939

                     34                     35                     36
                      A                      A                      A
 Frequencies --   1316.2671              1343.9628              1389.7913
 Red. masses --      1.9642                 3.9121                 2.3495
 Frc consts  --      2.0050                 4.1632                 2.6738
 IR Inten    --    137.1450                65.0440                58.7100

                     37                     38                     39
                      A                      A                      A
 Frequencies --   1404.9567              1421.5078              1485.8851
 Red. masses --      1.2920                 1.7580                 1.0748
 Frc consts  --      1.5026                 2.0930                 1.3981
 IR Inten    --      9.2963                15.0917                 2.4857

                     40                     41                     42
                      A                      A                      A
 Frequencies --   1490.8267              1516.8796              3025.0687
 Red. masses --      1.0738                 1.1425                 1.0418
 Frc consts  --      1.4061                 1.5488                 5.6173
 IR Inten    --      8.2182                 5.4207                24.1736

                     43                     44                     45
                      A                      A                      A
 Frequencies --   3041.0183              3090.7189              3101.3064
 Red. masses --      1.0598                 1.0941                 1.1040
 Frc consts  --      5.7747                 6.1581                 6.2561
 IR Inten    --     50.2391                22.1744                24.2615

                     46                     47                     48
                      A                      A                      A
 Frequencies --   3127.0335              3183.9066              3201.8825
 Red. masses --      1.1001                 1.0917                 1.0916
 Frc consts  --      6.3377                 6.5202                 6.5938
 IR Inten    --     17.5653                13.7703                18.4733

                     49                     50                     51
                      A                      A                      A
 Frequencies --   3235.2117              3749.0535              3826.2631
 Red. masses --      1.1000                 1.0646                 1.0664
 Frc consts  --      6.7837                 8.8162                 9.1988
 IR Inten    --      6.6718                44.5596                23.1955

 - Thermochemistry -
 -------------------
 Temperature   298.150 Kelvin.  Pressure   1.00000 Atm.
 Atom     1 has atomic number  6 and mass  12.00000

 Molecular mass:   126.06808 amu.
 Principal axes and moments of inertia in atomic units:
                           1         2         3
     Eigenvalues --   774.33161 969.087921120.57125
           X            0.99893  -0.03550   0.02973
           Y            0.03654   0.99872  -0.03490
           Z           -0.02845   0.03595   0.99895
 This molecule is an asymmetric top.
 Rotational symmetry number  1.
 Warning -- assumption of classical behavior for rotation
           may cause significant error
 Rotational temperatures (Kelvin)      0.11186     0.08938     0.07729
 Rotational constants (GHZ):           2.33071     1.86231     1.61055
 Zero-point vibrational energy     415188.1 (Joules/Mol)
                                   99.23233 (Kcal/Mol)
 Warning -- explicit consideration of  11 degrees of freedom as
           vibrations may cause significant error
 Vibrational temperatures:    256.22   267.89   280.99   371.83   400.51
          (Kelvin)            481.49   571.78   638.56   678.99   729.57
                              798.54   916.27   972.39  1063.50  1146.26
                             1159.33  1182.25  1290.27  1321.16  1361.85
                             1392.55  1435.51  1443.08  1468.84  1508.92
                             1574.12  1585.55  1631.58  1651.41  1699.45
                             1730.51  1780.13  1843.45  1893.81  1933.66
                             1999.60  2021.42  2045.23  2137.85  2144.96
                             2182.45  4352.39  4375.34  4446.85  4462.08
                             4499.10  4580.93  4606.79  4654.74  5394.05
                             5505.13

 Zero-point correction=                           0.158137 (Hartree/Particle)
 Thermal correction to Energy=                    0.166380
 Thermal correction to Enthalpy=                  0.167324
 Thermal correction to Gibbs Free Energy=         0.126215
 Sum of electronic and zero-point Energies=           -422.977435
 Sum of electronic and thermal Energies=              -422.969192
 Sum of electronic and thermal Enthalpies=            -422.968248
 Sum of electronic and thermal Free Energies=         -423.009357

                     E (Thermal)             CV                S
                      KCal/Mol        Cal/Mol-Kelvin    Cal/Mol-Kelvin
 Total                  104.405             33.524             86.522
 Electronic               0.000              0.000              0.000
 Translational            0.889              2.981             40.409
 Rotational               0.889              2.981             28.221
 Vibrational            102.627             27.562             17.892
 Vibration     1          0.629              1.869              2.348
 Vibration     2          0.632              1.859              2.265
 Vibration     3          0.636              1.846              2.177
 Vibration     4          0.667              1.749              1.672
 Vibration     5          0.679              1.714              1.544
 Vibration     6          0.716              1.606              1.238
 Vibration     7          0.764              1.476              0.972
 Vibration     8          0.803              1.375              0.815
 Vibration     9          0.829              1.312              0.732
 Vibration    10          0.862              1.234              0.641
 Vibration    11          0.910              1.129              0.534

 Optimization completed.
    -- Stationary point found.
 Normal termination of Gaussian 09 at Mon Jan 27 18:11:50 2020.
