 Gaussian 09, Revision D.01,
 Gaussian 09:  ES64L-G09RevD.01 24-Apr-2013

 -----------------------------
 # b3lyp 6-31G(2df,p) opt Freq
 -----------------------------

 -----
 titel
 -----
 Symbolic Z-matrix:
 Charge =  0 Multiplicity = 1

 SCF Done:  E(RB3LYP) =  -423.151732218     A.U. after   13 cycles
 Optimization completed.
    -- Stationary point found.
 Normal termination of Gaussian 09 at Mon Jan 27 18:10:35 2020.

 ----------------------------------------------------------------------
 #N Geom=AllCheck Guess=TCheck SCRF=Check GenChk RB3LYP/6-31G(2df,p) Fr
 eq
 ----------------------------------------------------------------------

 Structure from the checkpoint file:  "/scratch/puck/g09_1d3674d4-5e0f-4a32-a310-cda557ca83ad/Gau-42070.chk"
 -----
 titel
 -----
 Charge =  0 Multiplicity = 1

                         Standard orientation:
 ---------------------------------------------------------------------
 Center     Atomic      Atomic             Coordinates (Angstroms)
 Number     Number       Type             X           Y           Z
 ---------------------------------------------------------------------
      1          6           0        2.531347   -0.250693   -0.512976
      2          6           0        1.095315   -0.123509   -0.097371
      3          6           0       -0.009442   -0.977581   -0.754878
      4          6           0       -1.158659   -0.162428   -0.119011
      5          8           0       -2.441732   -0.687512   -0.047905
      6          6           0       -0.969692    1.218957   -0.779703
      7          6           0        0.324818    1.261373    0.050119
      8          6           0       -0.318099    0.393170    1.143592
      9          8           0        0.845237   -0.419365    1.322572
     10          1           0        2.879600   -1.280491   -0.380300
     11          1           0        2.647935    0.017469   -1.567848
     12          1           0        3.167312    0.406927    0.086480
     13          1           0       -0.032578   -0.950570   -1.847574
     14          1           0        0.054869   -2.012200   -0.405608
     15          1           0       -2.387342   -1.572779    0.328127
     16          1           0       -0.921841    1.257036   -1.871481
     17          1           0       -1.692326    1.952415   -0.410668
     18          1           0        0.911365    2.156428    0.246201
     19          1           0       -0.828559    0.725040    2.046687
 ---------------------------------------------------------------------

 SCF Done:  E(RB3LYP) =  -423.151732217     A.U. after    1 cycles

 The electronic state is 1-A.
 Alpha  occ. eigenvalues --  -19.14424 -19.12855 -10.24398 -10.23862 -10.22764
 Alpha  occ. eigenvalues --  -10.19008 -10.18253 -10.18141 -10.18036  -1.05165
 Alpha  occ. eigenvalues --   -1.02586  -0.84941  -0.76074  -0.70987  -0.65176
 Alpha  occ. eigenvalues --   -0.63390  -0.56939  -0.53640  -0.50675  -0.48501
 Alpha  occ. eigenvalues --   -0.44977  -0.44591  -0.44150  -0.41159  -0.39308
 Alpha  occ. eigenvalues --   -0.37384  -0.37104  -0.36414  -0.34899  -0.31982
 Alpha  occ. eigenvalues --   -0.29963  -0.28915  -0.28020  -0.22360
 Alpha virt. eigenvalues --    0.07686   0.09534   0.09944   0.12220   0.12528
 Alpha virt. eigenvalues --    0.13498   0.14927   0.15485   0.16113   0.17007
 Alpha virt. eigenvalues --    0.17699   0.18693   0.19232   0.21570   0.22203

 Mulliken charges:
               1
     1  C   -0.502008
     2  C    0.418874
     3  C   -0.317972
     4  C    0.378679
     5  O   -0.486868
     6  C   -0.291882
     7  C   -0.120513
     8  C    0.033760
     9  O   -0.332844
    10  H    0.129635
    11  H    0.122327
    12  H    0.128203
    13  H    0.098872
    14  H    0.094558
    15  H    0.281458
    16  H    0.096744
    17  H    0.108641
    18  H    0.075937
    19  H    0.084399
 Sum of Mulliken charges =   0.00000

 Dipole moment (field-independent basis, Debye):
    X=              0.5339    Y=             -0.0698    Z=             -0.8476  Tot=              1.0042
 Quadrupole moment (field-independent basis, Debye-Ang):
   XX=            -56.0585   YY=            -49.3043   ZZ=            -54.1644
   XY=              2.1652   XZ=             -4.1900   YZ=              0.7076

  Exact polarizability:  81.525  -1.178  72.494  -1.807   0.794  68.562
 Approx polarizability: 111.887  -1.278 108.082  -0.304  -1.347 107.861

                      1                      2                      3
                      A                      A                      A
 Frequencies --    200.6306               217.0513               231.5942
 Red. masses --      1.1756                 2.2854                 2.1323
 Frc consts  --      0.0279                 0.0634                 0.0674
 IR Inten    --      0.1400                 1.8969                11.4376

                      4                      5                      6
                      A                      A                      A
 Frequencies --    289.6975               326.6360               372.0504
 Red. masses --      1.2697                 3.3266                 2.9089
 Frc consts  --      0.0628                 0.2091                 0.2372
 IR Inten    --     69.2573                 9.7682                11.7754

                      7                      8                      9
                      A                      A                      A
 Frequencies --    451.6233               476.5039               546.6711
 Red. masses --      2.2490                 1.8886                 4.7640
 Frc consts  --      0.2703                 0.2526                 0.8388
 IR Inten    --      6.9082                 0.6022                 1.2291

                     10                     11                     12
                      A                      A                      A
 Frequencies --    561.2022               654.8799               688.0314
 Red. masses --      4.4932                 3.5051                 3.9427
 Frc consts  --      0.8338                 0.8857                 1.0997
 IR Inten    --     10.0748                 3.5258                 1.9389

                     13                     14                     15
                      A                      A                      A
 Frequencies --    731.0632               819.4357               827.1041
 Red. masses --      3.8305                 3.8579                 3.3637
 Frc consts  --      1.2062                 1.5263                 1.3558
 IR Inten    --      4.3450                30.4582                 2.3014

                     16                     17                     18
                      A                      A                      A
 Frequencies --    862.7218               893.2267               909.5289
 Red. masses --      1.5510                 3.5614                 2.0124
 Frc consts  --      0.6802                 1.6741                 0.9808
 IR Inten    --      4.8335                 5.1278                10.6015

                     19                     20                     21
                      A                      A                      A
 Frequencies --    934.8115               970.2238              1005.4109
 Red. masses --      1.8029                 1.6268                 1.7667
 Frc consts  --      0.9283                 0.9022                 1.0522
 IR Inten    --      3.1061                 1.3693                 9.9722

                     22                     23                     24
                      A                      A                      A
 Frequencies --   1018.0122              1034.0974              1088.1373
 Red. masses --      2.2697                 1.5670                 1.5081
 Frc consts  --      1.3859                 0.9873                 1.0521
 IR Inten    --     22.7077                24.4989                25.0162

                     25                     26                     27
                      A                      A                      A
 Frequencies --   1105.2703              1122.9817              1161.0527
 Red. masses --      2.1557                 1.6437                 1.5633
 Frc consts  --      1.5516                 1.2213                 1.2417
 IR Inten    --     15.6914                 1.1915                 5.8643

                     28                     29                     30
                      A                      A                      A
 Frequencies --   1180.3231              1191.1563              1219.4129
 Red. masses --      1.6047                 1.8060                 2.0206
 Frc consts  --      1.3172                 1.5097                 1.7702
 IR Inten    --      4.6037                 5.1231                16.8408

                     31                     32                     33
                      A                      A                      A
 Frequencies --   1220.8379              1240.5583              1289.2429
 Red. masses --      2.1789                 1.6281                 1.9415
 Frc consts  --      1.9134                 1.4763                 1.9014
 IR Inten    --     51.5498                14.7169                37.3768

                     34                     35                     36
                      A                      A                      A
 Frequencies --   1332.7921              1349.4841              1392.0947
 Red. masses --      2.2884                 2.4628                 1.9601
 Frc consts  --      2.3950                 2.6424                 2.2381
 IR Inten    --    140.5952                 7.7765                 3.7033

                     37                     38                     39
                      A                      A                      A
 Frequencies --   1416.6897              1473.9609              1478.9594
 Red. masses --      1.5678                 1.1202                 1.0492
 Frc consts  --      1.8539                 1.4339                 1.3521
 IR Inten    --     11.1857                 1.6567                 3.7017

                     40                     41                     42
                      A                      A                      A
 Frequencies --   1492.7188              1505.8207              3036.8644
 Red. masses --      1.0488                 1.1632                 1.0353
 Frc consts  --      1.3769                 1.5539                 5.6258
 IR Inten    --      3.5922                 3.9534                16.8573

                     43                     44                     45
                      A                      A                      A
 Frequencies --   3052.2835              3055.9285              3106.6508
 Red. masses --      1.0568                 1.0573                 1.1027
 Frc consts  --      5.8010                 5.8176                 6.2704
 IR Inten    --     32.4501                25.9795                 3.0581

                     46                     47                     48
                      A                      A                      A
 Frequencies --   3108.9107              3113.0061              3115.9371
 Red. masses --      1.1070                 1.1068                 1.1023
 Frc consts  --      6.3039                 6.3196                 6.3054
 IR Inten    --     16.8757                24.8365                25.4010

                     49                     50                     51
                      A                      A                      A
 Frequencies --   3130.8107              3143.3986              3805.6607
 Red. masses --      1.0893                 1.0941                 1.0657
 Frc consts  --      6.2911                 6.3695                 9.0940
 IR Inten    --     34.0261                29.4017                21.8243

 - Thermochemistry -
 -------------------
 Temperature   298.150 Kelvin.  Pressure   1.00000 Atm.
 Atom     1 has atomic number  6 and mass  12.00000

 Molecular mass:   126.06808 amu.
 Principal axes and moments of inertia in atomic units:
                           1         2         3
     Eigenvalues --   561.424271212.877171237.89030
           X            0.99963  -0.00380  -0.02689
           Y            0.00929   0.97821   0.20743
           Z            0.02552  -0.20761   0.97788
 This molecule is an asymmetric top.
 Rotational symmetry number  1.
 Warning -- assumption of classical behavior for rotation
           may cause significant error
 Rotational temperatures (Kelvin)      0.15428     0.07141     0.06997
 Rotational constants (GHZ):           3.21458     1.48798     1.45792
 Zero-point vibrational energy     418412.8 (Joules/Mol)
                                  100.00305 (Kcal/Mol)
 Warning -- explicit consideration of  10 degrees of freedom as
           vibrations may cause significant error
 Vibrational temperatures:    288.66   312.29   333.21   416.81   469.96
          (Kelvin)            535.30   649.78   685.58   786.54   807.44
                              942.22   989.92  1051.84  1178.98  1190.02
                             1241.26  1285.15  1308.61  1344.98  1395.93
                             1446.56  1464.69  1487.83  1565.58  1590.24
                             1615.72  1670.49  1698.22  1713.81  1754.46
                             1756.51  1784.88  1854.93  1917.59  1941.60
                             2002.91  2038.30  2120.70  2127.89  2147.69
                             2166.54  4369.37  4391.55  4396.79  4469.77
                             4473.02  4478.92  4483.13  4504.53  4522.64
                             5475.49

 Zero-point correction=                           0.159365 (Hartree/Particle)
 Thermal correction to Energy=                    0.166937
 Thermal correction to Enthalpy=                  0.167881
 Thermal correction to Gibbs Free Energy=         0.128033
 Sum of electronic and zero-point Energies=           -422.992367
 Sum of electronic and thermal Energies=              -422.984795
 Sum of electronic and thermal Enthalpies=            -422.983851
 Sum of electronic and thermal Free Energies=         -423.023699

                     E (Thermal)             CV                S
                      KCal/Mol        Cal/Mol-Kelvin    Cal/Mol-Kelvin
 Total                  104.755             31.413             83.868
 Electronic               0.000              0.000              0.000
 Translational            0.889              2.981             40.409
 Rotational               0.889              2.981             28.224
 Vibrational            102.977             25.452             15.236
 Vibration     1          0.638              1.839              2.127
 Vibration     2          0.646              1.815              1.984
 Vibration     3          0.653              1.793              1.867
 Vibration     4          0.686              1.693              1.476
 Vibration     5          0.710              1.622              1.277
 Vibration     6          0.744              1.530              1.071
 Vibration     7          0.810              1.357              0.791
 Vibration     8          0.833              1.302              0.720
 Vibration     9          0.902              1.147              0.551
 Vibration    10          0.917              1.115              0.521

 Normal termination of Gaussian 09 at Mon Jan 27 19:00:23 2020.
