 Gaussian 09, Revision D.01,
 Gaussian 09:  ES64L-G09RevD.01 24-Apr-2013

 -----------------------------
 # b3lyp 6-31G(2df,p) opt Freq
 -----------------------------

 -----
 titel
 -----
 Symbolic Z-matrix:
 Charge =  0 Multiplicity = 1

 SCF Done:  E(RB3LYP) =  -423.128927444     A.U. after   13 cycles
 Optimization completed.
    -- Stationary point found.
 Normal termination of Gaussian 09 at Tue Jan 28 02:52:39 2020.

 ----------------------------------------------------------------------
 #N Geom=AllCheck Guess=TCheck SCRF=Check GenChk RB3LYP/6-31G(2df,p) Fr
 eq
 ----------------------------------------------------------------------

 Structure from the checkpoint file:  "/scratch/puck/g09_81a323fc-4c92-4af0-8e29-921a1023a86a/Gau-105041.chk"
 -----
 titel
 -----
 Charge =  0 Multiplicity = 1

                         Standard orientation:
 ---------------------------------------------------------------------
 Center     Atomic      Atomic             Coordinates (Angstroms)
 Number     Number       Type             X           Y           Z
 ---------------------------------------------------------------------
      1          8           0       -3.003376    0.082117    0.353007
      2          6           0       -1.606558   -0.041284    0.452919
      3          6           0       -0.943887   -1.311303   -0.162516
      4          6           0        0.083386   -0.415016   -0.893611
      5          6           0       -0.720915    0.868180   -0.460866
      6          6           0        0.541981    1.450120    0.224667
      7          6           0        1.243244    0.108326   -0.031001
      8          6           0        2.192301   -0.637841    0.799312
      9          8           0        2.602011    0.010272   -0.413564
     10          1           0       -3.252631   -0.055366   -0.567288
     11          1           0       -1.383564    0.094925    1.515895
     12          1           0       -0.565491   -2.074074    0.523918
     13          1           0       -1.629964   -1.793475   -0.867707
     14          1           0        0.349474   -0.651975   -1.924364
     15          1           0       -1.270054    1.501671   -1.158645
     16          1           0        1.009160    2.247095   -0.361393
     17          1           0        0.440418    1.784946    1.261535
     18          1           0        2.574334   -0.192956    1.717601
     19          1           0        2.201921   -1.726999    0.771479
 ---------------------------------------------------------------------

 SCF Done:  E(RB3LYP) =  -423.128927444     A.U. after    1 cycles

 The electronic state is 1-A.
 Alpha  occ. eigenvalues --  -19.14980 -19.14057 -10.24099 -10.23437 -10.23172
 Alpha  occ. eigenvalues --  -10.19046 -10.18925 -10.18675 -10.18549  -1.07087
 Alpha  occ. eigenvalues --   -1.02385  -0.86941  -0.74471  -0.67434  -0.66032
 Alpha  occ. eigenvalues --   -0.62401  -0.59668  -0.53353  -0.51076  -0.49022
 Alpha  occ. eigenvalues --   -0.48024  -0.45348  -0.43246  -0.41707  -0.40655
 Alpha  occ. eigenvalues --   -0.38578  -0.37136  -0.34930  -0.33763  -0.31666
 Alpha  occ. eigenvalues --   -0.28897  -0.28034  -0.26143  -0.25715
 Alpha virt. eigenvalues --    0.06482   0.07354   0.09691   0.10018   0.11213
 Alpha virt. eigenvalues --    0.12422   0.12967   0.14472   0.15275   0.16219
 Alpha virt. eigenvalues --    0.18030   0.18758   0.19964   0.20638   0.21618

 Mulliken charges:
               1
     1  O   -0.432531
     2  C    0.162640
     3  C   -0.275524
     4  C   -0.134162
     5  C   -0.074789
     6  C   -0.333229
     7  C    0.462145
     8  C   -0.267473
     9  O   -0.272212
    10  H    0.277056
    11  H    0.089011
    12  H    0.101282
    13  H    0.095751
    14  H    0.081791
    15  H    0.068083
    16  H    0.118759
    17  H    0.104130
    18  H    0.114571
    19  H    0.114701
 Sum of Mulliken charges =   0.00000

 Dipole moment (field-independent basis, Debye):
    X=             -0.6705    Y=             -0.5155    Z=             -0.2576  Tot=              0.8841
 Quadrupole moment (field-independent basis, Debye-Ang):
   XX=            -61.7537   YY=            -51.6611   ZZ=            -50.8501
   XY=              0.0314   XZ=              8.5138   YZ=             -0.3642

  Exact polarizability:  84.156  -1.197  72.947   5.900  -0.636  67.707
 Approx polarizability: 113.374  -2.402 104.915   4.225  -2.082 106.101

                      1                      2                      3
                      A                      A                      A
 Frequencies --     55.2342               159.0440               239.7931
 Red. masses --      4.0408                 3.2312                 2.8020
 Frc consts  --      0.0073                 0.0482                 0.0949
 IR Inten    --      2.7919                 0.2366                10.8801

                      4                      5                      6
                      A                      A                      A
 Frequencies --    279.0643               334.3205               344.5287
 Red. masses --      1.4977                 2.9316                 2.0920
 Frc consts  --      0.0687                 0.1931                 0.1463
 IR Inten    --     27.4010                22.0004                 1.0182

                      7                      8                      9
                      A                      A                      A
 Frequencies --    356.7876               411.9802               487.3162
 Red. masses --      2.7784                 3.7035                 1.9425
 Frc consts  --      0.2084                 0.3704                 0.2718
 IR Inten    --     42.8025                 6.7345                 2.7432

                     10                     11                     12
                      A                      A                      A
 Frequencies --    566.3195               670.8371               774.9743
 Red. masses --      3.8172                 3.0964                 2.4404
 Frc consts  --      0.7213                 0.8210                 0.8635
 IR Inten    --      1.3941                 2.6647                20.2382

                     13                     14                     15
                      A                      A                      A
 Frequencies --    828.3536               840.7692               859.8775
 Red. masses --      2.6557                 1.8201                 2.7795
 Frc consts  --      1.0736                 0.7580                 1.2108
 IR Inten    --     12.5820                 0.6914                10.4842

                     16                     17                     18
                      A                      A                      A
 Frequencies --    875.3228               903.5957               937.0336
 Red. masses --      1.7589                 1.8400                 4.1052
 Frc consts  --      0.7940                 0.8852                 2.1237
 IR Inten    --      2.9986                 9.9861                21.5109

                     19                     20                     21
                      A                      A                      A
 Frequencies --    966.1986               990.4265              1010.1465
 Red. masses --      2.7859                 1.7858                 2.3990
 Frc consts  --      1.5323                 1.0321                 1.4423
 IR Inten    --      3.5596                 5.5392                 2.1362

                     22                     23                     24
                      A                      A                      A
 Frequencies --   1053.2239              1084.1754              1115.9583
 Red. masses --      1.9071                 1.2976                 1.7097
 Frc consts  --      1.2464                 0.8987                 1.2545
 IR Inten    --      5.4131                14.7323                 7.8540

                     25                     26                     27
                      A                      A                      A
 Frequencies --   1127.0548              1132.1389              1150.3881
 Red. masses --      1.4415                 2.5910                 1.3598
 Frc consts  --      1.0788                 1.9567                 1.0603
 IR Inten    --     35.3986               109.2713                 4.1849

                     28                     29                     30
                      A                      A                      A
 Frequencies --   1161.0357              1181.3228              1223.1355
 Red. masses --      1.5908                 1.8403                 1.7153
 Frc consts  --      1.2634                 1.5132                 1.5119
 IR Inten    --      1.1808                 1.5121                 4.2510

                     31                     32                     33
                      A                      A                      A
 Frequencies --   1233.9896              1245.4439              1259.2536
 Red. masses --      1.5409                 1.5016                 1.4867
 Frc consts  --      1.3824                 1.3723                 1.3890
 IR Inten    --      2.0216                11.8833                 1.8986

                     34                     35                     36
                      A                      A                      A
 Frequencies --   1277.2691              1294.7686              1335.3335
 Red. masses --      1.4315                 1.7295                 1.6116
 Frc consts  --      1.3760                 1.7082                 1.6931
 IR Inten    --      0.6805                 0.1188                 3.9830

                     37                     38                     39
                      A                      A                      A
 Frequencies --   1423.8115              1437.1386              1471.3145
 Red. masses --      2.2324                 1.2586                 1.1198
 Frc consts  --      2.6664                 1.5315                 1.4283
 IR Inten    --     11.3736                83.3760                 5.4583

                     40                     41                     42
                      A                      A                      A
 Frequencies --   1475.0192              1531.4036              3040.3760
 Red. masses --      1.1319                 1.5133                 1.0599
 Frc consts  --      1.4510                 2.0910                 5.7725
 IR Inten    --      0.1533                 8.5521                33.8748

                     43                     44                     45
                      A                      A                      A
 Frequencies --   3047.7190              3058.6287              3077.0974
 Red. masses --      1.0587                 1.0865                 1.0501
 Frc consts  --      5.7940                 5.9888                 5.8583
 IR Inten    --     20.0391                24.9036                21.3652

                     46                     47                     48
                      A                      A                      A
 Frequencies --   3095.9675              3098.4547              3103.7809
 Red. masses --      1.1008                 1.0993                 1.0982
 Frc consts  --      6.2166                 6.2183                 6.2334
 IR Inten    --     33.8020                15.9534                 4.6937

                     49                     50                     51
                      A                      A                      A
 Frequencies --   3110.1564              3163.4782              3802.2971
 Red. masses --      1.0919                 1.1193                 1.0659
 Frc consts  --      6.2228                 6.5998                 9.0792
 IR Inten    --     46.1372                21.5883                14.7864

 - Thermochemistry -
 -------------------
 Temperature   298.150 Kelvin.  Pressure   1.00000 Atm.
 Atom     1 has atomic number  8 and mass  15.99491

 Molecular mass:   126.06808 amu.
 Principal axes and moments of inertia in atomic units:
                           1         2         3
     Eigenvalues --   448.439171615.544711765.32396
           X            0.99977   0.00238   0.02140
           Y           -0.00235   1.00000  -0.00128
           Z           -0.02141   0.00123   0.99977
 This molecule is an asymmetric top.
 Rotational symmetry number  1.
 Warning -- assumption of classical behavior for rotation
           may cause significant error
 Rotational temperatures (Kelvin)      0.19315     0.05361     0.04906
 Rotational constants (GHZ):           4.02449     1.11711     1.02233
 Zero-point vibrational energy     416916.9 (Joules/Mol)
                                   99.64552 (Kcal/Mol)
 Warning -- explicit consideration of  10 degrees of freedom as
           vibrations may cause significant error
 Vibrational temperatures:     79.47   228.83   345.01   401.51   481.01
          (Kelvin)            495.70   513.34   592.75   701.14   814.81
                              965.18  1115.01  1191.81  1209.68  1237.17
                             1259.39  1300.07  1348.18  1390.14  1425.00
                             1453.37  1515.35  1559.88  1605.61  1621.58
                             1628.89  1655.15  1670.47  1699.66  1759.82
                             1775.43  1791.91  1811.78  1837.70  1862.88
                             1921.24  2048.54  2067.72  2116.89  2122.22
                             2203.35  4374.42  4384.98  4400.68  4427.25
                             4454.40  4457.98  4465.64  4474.82  4551.53
                             5470.65

 Zero-point correction=                           0.158795 (Hartree/Particle)
 Thermal correction to Energy=                    0.166827
 Thermal correction to Enthalpy=                  0.167771
 Thermal correction to Gibbs Free Energy=         0.126050
 Sum of electronic and zero-point Energies=           -422.970132
 Sum of electronic and thermal Energies=              -422.962101
 Sum of electronic and thermal Enthalpies=            -422.961157
 Sum of electronic and thermal Free Energies=         -423.002877

                     E (Thermal)             CV                S
                      KCal/Mol        Cal/Mol-Kelvin    Cal/Mol-Kelvin
 Total                  104.685             31.549             87.808
 Electronic               0.000              0.000              0.000
 Translational            0.889              2.981             40.409
 Rotational               0.889              2.981             28.638
 Vibrational            102.908             25.587             18.762
 Vibration     1          0.596              1.975              4.621
 Vibration     2          0.621              1.892              2.561
 Vibration     3          0.657              1.780              1.804
 Vibration     4          0.679              1.712              1.539
 Vibration     5          0.716              1.607              1.239
 Vibration     6          0.723              1.586              1.191
 Vibration     7          0.732              1.561              1.136
 Vibration     8          0.776              1.444              0.920
 Vibration     9          0.843              1.278              0.691
 Vibration    10          0.922              1.104              0.511

 Optimization completed.
    -- Stationary point found.
 Normal termination of Gaussian 09 at Tue Jan 28 03:46:13 2020.
