 Gaussian 09, Revision D.01,
 Gaussian 09:  ES64L-G09RevD.01 24-Apr-2013

 -----------------------------
 # b3lyp 6-31G(2df,p) opt Freq
 -----------------------------

 -----
 titel
 -----
 Symbolic Z-matrix:
 Charge =  0 Multiplicity = 1

 SCF Done:  E(RB3LYP) =  -423.122274141     A.U. after   14 cycles
 Optimization completed.
    -- Stationary point found.
 Normal termination of Gaussian 09 at Tue Jan 28 09:04:19 2020.

 ----------------------------------------------------------------------
 #N Geom=AllCheck Guess=TCheck SCRF=Check GenChk RB3LYP/6-31G(2df,p) Fr
 eq
 ----------------------------------------------------------------------

 Structure from the checkpoint file:  "/scratch/puck/g09_cfd0e7c0-c105-4f94-afea-3a2bd514c9a9/Gau-19915.chk"
 -----
 titel
 -----
 Charge =  0 Multiplicity = 1

                         Standard orientation:
 ---------------------------------------------------------------------
 Center     Atomic      Atomic             Coordinates (Angstroms)
 Number     Number       Type             X           Y           Z
 ---------------------------------------------------------------------
      1          8           0        1.739567    1.937842   -0.309824
      2          6           0        1.612822    0.903853    0.650258
      3          6           0        0.952918   -0.323596    0.051040
      4          6           0       -0.460766   -0.164655   -0.473432
      5          6           0       -1.511429   -0.033493    0.651876
      6          6           0       -2.870563    0.068328    0.135685
      7          6           0       -3.981648    0.147013   -0.315494
      8          6           0        1.471918   -1.655420    0.394818
      9          8           0        1.843587   -1.031376   -0.836449
     10          1           0        2.266340    1.578697   -1.033321
     11          1           0        2.589205    0.617912    1.067863
     12          1           0        1.008660    1.316358    1.465333
     13          1           0       -0.501882    0.723122   -1.111862
     14          1           0       -0.699720   -1.029075   -1.098838
     15          1           0       -1.439622   -0.898363    1.324427
     16          1           0       -1.292743    0.848844    1.266053
     17          1           0       -4.967523    0.220544   -0.702572
     18          1           0        2.271519   -1.758406    1.127415
     19          1           0        0.821026   -2.523539    0.297182
 ---------------------------------------------------------------------

 SCF Done:  E(RB3LYP) =  -423.122274141     A.U. after    1 cycles

 The electronic state is 1-A.
 Alpha  occ. eigenvalues --  -19.15785 -19.14224 -10.24697 -10.24163 -10.23668
 Alpha  occ. eigenvalues --  -10.21501 -10.19446 -10.18170 -10.17057  -1.07823
 Alpha  occ. eigenvalues --   -1.02236  -0.81271  -0.74827  -0.71115  -0.66695
 Alpha  occ. eigenvalues --   -0.66264  -0.57490  -0.52788  -0.52192  -0.49585
 Alpha  occ. eigenvalues --   -0.47839  -0.46182  -0.45490  -0.43541  -0.41145
 Alpha  occ. eigenvalues --   -0.39132  -0.37518  -0.36628  -0.34158  -0.30754
 Alpha  occ. eigenvalues --   -0.28880  -0.27096  -0.26434  -0.26009
 Alpha virt. eigenvalues --    0.05161   0.05586   0.07793   0.08298   0.09248
 Alpha virt. eigenvalues --    0.11482   0.12487   0.13204   0.13429   0.15465
 Alpha virt. eigenvalues --    0.15753   0.16681   0.19000   0.19911   0.21539

 Mulliken charges:
               1
     1  O   -0.414813
     2  C   -0.126013
     3  C    0.379253
     4  C   -0.260970
     5  C   -0.365752
     6  C    0.296791
     7  C   -0.430128
     8  C   -0.231447
     9  O   -0.293601
    10  H    0.294853
    11  H    0.093467
    12  H    0.114161
    13  H    0.130658
    14  H    0.120228
    15  H    0.129451
    16  H    0.137270
    17  H    0.195389
    18  H    0.114444
    19  H    0.116756
 Sum of Mulliken charges =   0.00000

 Dipole moment (field-independent basis, Debye):
    X=              0.2081    Y=             -1.1503    Z=              1.2743  Tot=              1.7293
 Quadrupole moment (field-independent basis, Debye-Ang):
   XX=            -51.5762   YY=            -56.4183   ZZ=            -52.1171
   XY=             -0.5465   XZ=              3.2479   YZ=             -2.2802

  Exact polarizability:  99.627  -4.083  69.440   8.770  -2.465  62.878
 Approx polarizability: 134.584  -6.801 100.881  13.441  -4.035 100.433

                      1                      2                      3
                      A                      A                      A
 Frequencies --     54.1479                56.8520               111.8975
 Red. masses --      4.4237                 2.7346                 3.0494
 Frc consts  --      0.0076                 0.0052                 0.0225
 IR Inten    --      0.5644                 1.6041                 4.5744

                      4                      5                      6
                      A                      A                      A
 Frequencies --    120.1703               219.1513               236.0543
 Red. masses --      3.6550                 3.6543                 3.3984
 Frc consts  --      0.0311                 0.1034                 0.1116
 IR Inten    --      0.2968                 0.1630                 0.9210

                      7                      8                      9
                      A                      A                      A
 Frequencies --    333.3958               363.6685               371.0680
 Red. masses --      2.6442                 2.4579                 3.3112
 Frc consts  --      0.1732                 0.1915                 0.2686
 IR Inten    --      1.7705                16.4360                14.7086

                     10                     11                     12
                      A                      A                      A
 Frequencies --    390.6753               453.3766               509.6164
 Red. masses --      2.2763                 1.4962                 4.7214
 Frc consts  --      0.2047                 0.1812                 0.7225
 IR Inten    --     18.6225                90.3718                13.9293

                     13                     14                     15
                      A                      A                      A
 Frequencies --    574.4529               620.1289               641.2905
 Red. masses --      3.7534                 1.2002                 1.2249
 Frc consts  --      0.7298                 0.2719                 0.2968
 IR Inten    --     11.1678                43.1647                43.3027

                     16                     17                     18
                      A                      A                      A
 Frequencies --    753.3381               775.4558               851.1845
 Red. masses --      2.4797                 1.5566                 3.9726
 Frc consts  --      0.8291                 0.5515                 1.6958
 IR Inten    --      2.8759                 8.7429                12.6833

                     19                     20                     21
                      A                      A                      A
 Frequencies --    908.5994               944.8142               956.4598
 Red. masses --      1.8412                 2.3920                 2.1090
 Frc consts  --      0.8956                 1.2581                 1.1367
 IR Inten    --     13.2527                16.5368                 4.1622

                     22                     23                     24
                      A                      A                      A
 Frequencies --   1009.1726              1031.3868              1059.2288
 Red. masses --      2.1014                 3.5255                 2.6564
 Frc consts  --      1.2609                 2.2096                 1.7560
 IR Inten    --     14.8765                 2.9835                48.2135

                     25                     26                     27
                      A                      A                      A
 Frequencies --   1078.1947              1128.6011              1166.0197
 Red. masses --      4.6240                 1.2569                 1.3319
 Frc consts  --      3.1671                 0.9433                 1.0669
 IR Inten    --     44.3313                 3.7218                 0.3516

                     28                     29                     30
                      A                      A                      A
 Frequencies --   1179.3171              1208.3534              1283.5060
 Red. masses --      1.3021                 1.1989                 1.3596
 Frc consts  --      1.0670                 1.0314                 1.3196
 IR Inten    --      6.5500                 8.8758                 7.4051

                     31                     32                     33
                      A                      A                      A
 Frequencies --   1290.4522              1320.0654              1359.3890
 Red. masses --      1.5759                 1.5149                 1.4097
 Frc consts  --      1.5462                 1.5554                 1.5349
 IR Inten    --      4.8166                 6.3637                 2.1794

                     34                     35                     36
                      A                      A                      A
 Frequencies --   1378.1296              1419.6447              1438.2278
 Red. masses --      1.5552                 1.3268                 1.7399
 Frc consts  --      1.7403                 1.5755                 2.1205
 IR Inten    --      6.0741                39.9952                20.6083

                     37                     38                     39
                      A                      A                      A
 Frequencies --   1473.9909              1491.1381              1493.3646
 Red. masses --      1.0869                 1.1118                 1.0903
 Frc consts  --      1.3914                 1.4565                 1.4326
 IR Inten    --      3.1170                 3.6967                 6.8439

                     40                     41                     42
                      A                      A                      A
 Frequencies --   1528.7604              2241.0966              2999.0874
 Red. masses --      1.3383                 5.9263                 1.0674
 Frc consts  --      1.8428                17.5371                 5.6568
 IR Inten    --      3.1450                 3.3005                44.1103

                     43                     44                     45
                      A                      A                      A
 Frequencies --   3019.7761              3051.2667              3062.1180
 Red. masses --      1.0593                 1.1000                 1.0590
 Frc consts  --      5.6915                 6.0338                 5.8505
 IR Inten    --     17.6274                 7.7826                11.4255

                     46                     47                     48
                      A                      A                      A
 Frequencies --   3076.5487              3081.0046              3111.0294
 Red. masses --      1.0951                 1.0507                 1.1049
 Frc consts  --      6.1069                 5.8762                 6.3004
 IR Inten    --     31.9825                22.9973                14.4964

                     49                     50                     51
                      A                      A                      A
 Frequencies --   3166.2948              3507.2863              3798.6048
 Red. masses --      1.1192                 1.1624                 1.0658
 Frc consts  --      6.6108                 8.4246                 9.0613
 IR Inten    --     23.6189                69.4650                25.4744

 - Thermochemistry -
 -------------------
 Temperature   298.150 Kelvin.  Pressure   1.00000 Atm.
 Atom     1 has atomic number  8 and mass  15.99491

 Molecular mass:   126.06808 amu.
 Principal axes and moments of inertia in atomic units:
                           1         2         3
     Eigenvalues --   642.498772068.052592418.75342
           X            0.99993   0.00002   0.01191
           Y            0.00019   0.99985  -0.01754
           Z           -0.01191   0.01755   0.99978
 This molecule is an asymmetric top.
 Rotational symmetry number  1.
 Warning -- assumption of classical behavior for rotation
           may cause significant error
 Rotational temperatures (Kelvin)      0.13481     0.04188     0.03581
 Rotational constants (GHZ):           2.80894     0.87268     0.74615
 Zero-point vibrational energy     410898.4 (Joules/Mol)
                                   98.20708 (Kcal/Mol)
 Warning -- explicit consideration of  14 degrees of freedom as
           vibrations may cause significant error
 Vibrational temperatures:     77.91    81.80   161.00   172.90   315.31
          (Kelvin)            339.63   479.68   523.24   533.88   562.09
                              652.31   733.22   826.51   892.23   922.67
                             1083.88  1115.71  1224.66  1307.27  1359.38
                             1376.13  1451.97  1483.93  1523.99  1551.28
                             1623.80  1677.64  1696.77  1738.55  1846.68
                             1856.67  1899.28  1955.86  1982.82  2042.55
                             2069.29  2120.74  2145.41  2148.62  2199.54
                             3224.43  4315.01  4344.78  4390.09  4405.70
                             4426.46  4432.87  4476.07  4555.59  5046.20
                             5465.34

 Zero-point correction=                           0.156503 (Hartree/Particle)
 Thermal correction to Energy=                    0.166423
 Thermal correction to Enthalpy=                  0.167367
 Thermal correction to Gibbs Free Energy=         0.120722
 Sum of electronic and zero-point Energies=           -422.965771
 Sum of electronic and thermal Energies=              -422.955852
 Sum of electronic and thermal Enthalpies=            -422.954907
 Sum of electronic and thermal Free Energies=         -423.001552

                     E (Thermal)             CV                S
                      KCal/Mol        Cal/Mol-Kelvin    Cal/Mol-Kelvin
 Total                  104.432             35.928             98.172
 Electronic               0.000              0.000              0.000
 Translational            0.889              2.981             40.409
 Rotational               0.889              2.981             29.554
 Vibrational            102.654             29.966             28.210
 Vibration     1          0.596              1.976              4.660
 Vibration     2          0.596              1.975              4.564
 Vibration     3          0.607              1.940              3.236
 Vibration     4          0.609              1.932              3.098
 Vibration     5          0.647              1.812              1.966
 Vibration     6          0.655              1.786              1.832
 Vibration     7          0.715              1.609              1.244
 Vibration     8          0.737              1.547              1.106
 Vibration     9          0.743              1.532              1.075
 Vibration    10          0.758              1.490              0.998
 Vibration    11          0.812              1.353              0.786
 Vibration    12          0.865              1.229              0.635
 Vibration    13          0.931              1.087              0.496
 Vibration    14          0.980              0.989              0.416

 Optimization completed.
    -- Stationary point found.
 Normal termination of Gaussian 09 at Tue Jan 28 09:40:29 2020.
