 Gaussian 09, Revision D.01,
 Gaussian 09:  ES64L-G09RevD.01 24-Apr-2013

 -----------------------------
 # b3lyp 6-31G(2df,p) opt Freq
 -----------------------------

 -----
 titel
 -----
 Symbolic Z-matrix:
 Charge =  0 Multiplicity = 1

 SCF Done:  E(RB3LYP) =  -423.108206256     A.U. after   13 cycles
 Optimization completed.
    -- Stationary point found.
 Normal termination of Gaussian 09 at Mon Jan 27 22:02:42 2020.

 ----------------------------------------------------------------------
 #N Geom=AllCheck Guess=TCheck SCRF=Check GenChk RB3LYP/6-31G(2df,p) Fr
 eq
 ----------------------------------------------------------------------

 Structure from the checkpoint file:  "/scratch/puck/g09_93c32452-602a-4d25-91df-16906d99a84c/Gau-98647.chk"
 -----
 titel
 -----
 Charge =  0 Multiplicity = 1

                         Standard orientation:
 ---------------------------------------------------------------------
 Center     Atomic      Atomic             Coordinates (Angstroms)
 Number     Number       Type             X           Y           Z
 ---------------------------------------------------------------------
      1          6           0       -2.713964    0.251962   -0.303515
      2          6           0       -1.566355   -0.727205   -0.106472
      3          6           0       -0.525176   -0.484122    1.013672
      4          6           0        0.579718   -1.287931    0.237800
      5          6           0        1.605424   -0.153215    0.415592
      6          8           0        2.652642    0.017929   -0.511022
      7          6           0        0.269015    0.573999    0.187601
      8          8           0        0.019219    1.931735    0.205016
      9          6           0       -0.232506   -0.516043   -0.861583
     10          1           0       -2.364383    1.286851   -0.275983
     11          1           0       -3.208349    0.082158   -1.267028
     12          1           0       -3.471735    0.126290    0.478221
     13          1           0       -1.927058   -1.763078   -0.145127
     14          1           0       -0.655550   -0.475635    2.097101
     15          1           0        0.722366   -2.365525    0.281014
     16          1           0        2.050952   -0.045230    1.409639
     17          1           0        2.321045   -0.218030   -1.384615
     18          1           0        0.714390    2.364451   -0.304281
     19          1           0       -0.053502   -0.534236   -1.939465
 ---------------------------------------------------------------------

 SCF Done:  E(RB3LYP) =  -423.108206256     A.U. after    1 cycles

 The electronic state is 1-A.
 Alpha  occ. eigenvalues --  -19.15180 -19.14076 -10.24243 -10.23093 -10.19821
 Alpha  occ. eigenvalues --  -10.19766 -10.19674 -10.18955 -10.16563  -1.04188
 Alpha  occ. eigenvalues --   -1.02102  -0.92965  -0.75919  -0.68072  -0.63865
 Alpha  occ. eigenvalues --   -0.62894  -0.59274  -0.54096  -0.51283  -0.50029
 Alpha  occ. eigenvalues --   -0.45660  -0.44094  -0.42441  -0.40275  -0.39146
 Alpha  occ. eigenvalues --   -0.38089  -0.36130  -0.34816  -0.32111  -0.31443
 Alpha  occ. eigenvalues --   -0.29991  -0.28737  -0.26379  -0.24497
 Alpha virt. eigenvalues --    0.06322   0.08571   0.11029   0.11670   0.13006
 Alpha virt. eigenvalues --    0.13506   0.14885   0.15632   0.16641   0.17679
 Alpha virt. eigenvalues --    0.18421   0.19033   0.19693   0.20115   0.22253

 Mulliken charges:
               1
     1  C   -0.427842
     2  C   -0.003850
     3  C   -0.094381
     4  C   -0.108013
     5  C    0.067643
     6  O   -0.453803
     7  C    0.359838
     8  O   -0.474899
     9  C   -0.157907
    10  H    0.138423
    11  H    0.108722
    12  H    0.111767
    13  H    0.061372
    14  H    0.072685
    15  H    0.079908
    16  H    0.085962
    17  H    0.282213
    18  H    0.290429
    19  H    0.061732
 Sum of Mulliken charges =   0.00000

 Dipole moment (field-independent basis, Debye):
    X=             -0.2895    Y=             -0.6298    Z=             -1.0710  Tot=              1.2758
 Quadrupole moment (field-independent basis, Debye-Ang):
   XX=            -58.8659   YY=            -52.3660   ZZ=            -49.7631
   XY=              1.9107   XZ=             -1.3087   YZ=             -1.6748

  Exact polarizability:  86.020   1.396  70.518   0.330  -0.604  69.573
 Approx polarizability: 114.068   2.710 108.872  -1.810   0.298 110.823

                      1                      2                      3
                      A                      A                      A
 Frequencies --    162.5101               186.9674               195.7473
 Red. masses --      3.9417                 3.6112                 2.3981
 Frc consts  --      0.0613                 0.0744                 0.0541
 IR Inten    --      1.0830                 2.6688                15.7555

                      4                      5                      6
                      A                      A                      A
 Frequencies --    225.5443               290.7706               298.3482
 Red. masses --      1.0601                 2.1393                 1.4354
 Frc consts  --      0.0318                 0.1066                 0.0753
 IR Inten    --      0.2459                23.4801                73.8465

                      7                      8                      9
                      A                      A                      A
 Frequencies --    316.4805               383.5126               417.9904
 Red. masses --      1.2461                 3.5937                 3.5472
 Frc consts  --      0.0735                 0.3114                 0.3652
 IR Inten    --     57.6954                 7.7544                 3.2587

                     10                     11                     12
                      A                      A                      A
 Frequencies --    539.8583               582.9805               663.4110
 Red. masses --      3.9439                 3.1922                 4.3139
 Frc consts  --      0.6772                 0.6392                 1.1186
 IR Inten    --      3.5778                 5.8448                 8.1195

                     13                     14                     15
                      A                      A                      A
 Frequencies --    735.4850               773.3709               834.9941
 Red. masses --      3.8059                 2.9910                 2.5143
 Frc consts  --      1.2130                 1.0540                 1.0328
 IR Inten    --      6.4129                 1.4008                11.5076

                     16                     17                     18
                      A                      A                      A
 Frequencies --    856.6077               860.6274               897.5754
 Red. masses --      1.9263                 2.1053                 1.5762
 Frc consts  --      0.8328                 0.9187                 0.7482
 IR Inten    --      1.4472                 4.4189                 3.8237

                     19                     20                     21
                      A                      A                      A
 Frequencies --    943.7854               969.2416              1016.4179
 Red. masses --      2.0616                 2.1560                 1.6583
 Frc consts  --      1.0820                 1.1933                 1.0094
 IR Inten    --     13.2442                40.2470                10.9869

                     22                     23                     24
                      A                      A                      A
 Frequencies --   1032.8702              1063.3876              1068.5747
 Red. masses --      2.4001                 1.5496                 1.8714
 Frc consts  --      1.5086                 1.0324                 1.2590
 IR Inten    --      5.4280                24.7804                 6.6355

                     25                     26                     27
                      A                      A                      A
 Frequencies --   1093.7825              1117.8806              1132.5638
 Red. masses --      2.4468                 1.6035                 1.8967
 Frc consts  --      1.7247                 1.1806                 1.4334
 IR Inten    --     76.6533                13.8512                 5.3657

                     28                     29                     30
                      A                      A                      A
 Frequencies --   1150.1508              1164.8288              1214.9861
 Red. masses --      2.0623                 1.6305                 1.9241
 Frc consts  --      1.6074                 1.3035                 1.6735
 IR Inten    --      7.4430                19.5173                 7.5745

                     31                     32                     33
                      A                      A                      A
 Frequencies --   1222.7836              1244.7872              1269.8187
 Red. masses --      1.7725                 1.7369                 1.5102
 Frc consts  --      1.5615                 1.5857                 1.4348
 IR Inten    --     75.0619                20.7237                 3.5214

                     34                     35                     36
                      A                      A                      A
 Frequencies --   1278.8752              1318.2823              1387.1601
 Red. masses --      1.8096                 1.9338                 2.0130
 Frc consts  --      1.7438                 1.9800                 2.2821
 IR Inten    --     28.9492               108.7642                 6.2749

                     37                     38                     39
                      A                      A                      A
 Frequencies --   1400.4031              1416.3596              1449.5467
 Red. masses --      1.4667                 1.3534                 1.5392
 Frc consts  --      1.6947                 1.5996                 1.9055
 IR Inten    --     12.5495                10.2423               109.8804

                     40                     41                     42
                      A                      A                      A
 Frequencies --   1499.1873              1504.7911              3020.3037
 Red. masses --      1.0544                 1.0485                 1.0783
 Frc consts  --      1.3963                 1.3989                 5.7955
 IR Inten    --      2.2562                 3.0206                39.6748

                     43                     44                     45
                      A                      A                      A
 Frequencies --   3030.4606              3068.9907              3077.3273
 Red. masses --      1.0427                 1.0860                 1.0894
 Frc consts  --      5.6417                 6.0266                 6.0784
 IR Inten    --     45.7059                42.2019                55.2915

                     46                     47                     48
                      A                      A                      A
 Frequencies --   3085.2146              3102.1708              3126.3578
 Red. masses --      1.1002                 1.0898                 1.0992
 Frc consts  --      6.1703                 6.1790                 6.3299
 IR Inten    --     25.8686                38.6085                14.5015

                     49                     50                     51
                      A                      A                      A
 Frequencies --   3145.0805              3794.9077              3801.8543
 Red. masses --      1.0934                 1.0657                 1.0654
 Frc consts  --      6.3724                 9.0428                 9.0727
 IR Inten    --     27.8266                36.2811                 9.3811

 - Thermochemistry -
 -------------------
 Temperature   298.150 Kelvin.  Pressure   1.00000 Atm.
 Atom     1 has atomic number  6 and mass  12.00000

 Molecular mass:   126.06808 amu.
 Principal axes and moments of inertia in atomic units:
                           1         2         3
     Eigenvalues --   565.485811277.359441523.32273
           X            0.99997  -0.00260   0.00659
           Y            0.00272   0.99984  -0.01786
           Z           -0.00654   0.01787   0.99982
 This molecule is an asymmetric top.
 Rotational symmetry number  1.
 Warning -- assumption of classical behavior for rotation
           may cause significant error
 Rotational temperatures (Kelvin)      0.15317     0.06781     0.05686
 Rotational constants (GHZ):           3.19149     1.41287     1.18474
 Zero-point vibrational energy     415319.0 (Joules/Mol)
                                   99.26362 (Kcal/Mol)
 Warning -- explicit consideration of  11 degrees of freedom as
           vibrations may cause significant error
 Vibrational temperatures:    233.82   269.00   281.64   324.51   418.35
          (Kelvin)            429.26   455.34   551.79   601.39   776.73
                              838.78   954.50  1058.20  1112.71  1201.37
                             1232.47  1238.25  1291.41  1357.90  1394.52
                             1462.40  1486.07  1529.98  1537.44  1573.71
                             1608.38  1629.50  1654.81  1675.93  1748.09
                             1759.31  1790.97  1826.98  1840.01  1896.71
                             1995.81  2014.87  2037.82  2085.57  2156.99
                             2165.06  4345.54  4360.15  4415.59  4427.58
                             4438.93  4463.33  4498.13  4525.06  5460.02
                             5470.01

 Zero-point correction=                           0.158187 (Hartree/Particle)
 Thermal correction to Energy=                    0.166553
 Thermal correction to Enthalpy=                  0.167497
 Thermal correction to Gibbs Free Energy=         0.125897
 Sum of electronic and zero-point Energies=           -422.950020
 Sum of electronic and thermal Energies=              -422.941653
 Sum of electronic and thermal Enthalpies=            -422.940709
 Sum of electronic and thermal Free Energies=         -422.982309

                     E (Thermal)             CV                S
                      KCal/Mol        Cal/Mol-Kelvin    Cal/Mol-Kelvin
 Total                  104.514             33.138             87.555
 Electronic               0.000              0.000              0.000
 Translational            0.889              2.981             40.409
 Rotational               0.889              2.981             28.489
 Vibrational            102.736             27.177             18.658
 Vibration     1          0.623              1.888              2.520
 Vibration     2          0.632              1.858              2.258
 Vibration     3          0.636              1.846              2.173
 Vibration     4          0.650              1.802              1.914
 Vibration     5          0.687              1.691              1.469
 Vibration     6          0.691              1.677              1.426
 Vibration     7          0.703              1.642              1.328
 Vibration     8          0.753              1.505              1.025
 Vibration     9          0.781              1.431              0.899
 Vibration    10          0.895              1.162              0.566
 Vibration    11          0.940              1.068              0.480

 Normal termination of Gaussian 09 at Mon Jan 27 22:53:01 2020.
