 Gaussian 09, Revision D.01,
 Gaussian 09:  ES64L-G09RevD.01 24-Apr-2013

 -----------------------------
 # b3lyp 6-31G(2df,p) opt Freq
 -----------------------------

 -----
 titel
 -----
 Symbolic Z-matrix:
 Charge =  0 Multiplicity = 1

 SCF Done:  E(RB3LYP) =  -423.160123982     A.U. after   14 cycles
 Optimization completed.
    -- Stationary point found.
 Normal termination of Gaussian 09 at Tue Jan 28 08:13:55 2020.

 ----------------------------------------------------------------------
 #N Geom=AllCheck Guess=TCheck SCRF=Check GenChk RB3LYP/6-31G(2df,p) Fr
 eq
 ----------------------------------------------------------------------

 Structure from the checkpoint file:  "/scratch/puck/g09_e9696468-9d44-476f-81ec-ed94fa3cb6ef/Gau-91957.chk"
 -----
 titel
 -----
 Charge =  0 Multiplicity = 1

                         Standard orientation:
 ---------------------------------------------------------------------
 Center     Atomic      Atomic             Coordinates (Angstroms)
 Number     Number       Type             X           Y           Z
 ---------------------------------------------------------------------
      1          6           0        2.547330   -1.010100    0.561561
      2          6           0        1.981148   -0.215226   -0.628686
      3          6           0        0.846417    0.707921   -0.207672
      4          8           0        0.984907    1.915398   -0.180045
      5          6           0       -0.443224    0.084190    0.175474
      6          6           0       -1.494210    0.872085    0.953068
      7          6           0       -1.831813    0.414457   -0.409846
      8          8           0       -2.224107   -0.951149   -0.435352
      9          6           0       -0.917003   -1.363537    0.048359
     10          1           0        1.787952   -1.646911    1.026769
     11          1           0        3.366939   -1.656037    0.234880
     12          1           0        2.933857   -0.334536    1.330366
     13          1           0        2.757085    0.413444   -1.071790
     14          1           0        1.625529   -0.909422   -1.399681
     15          1           0       -1.979920    0.408935    1.807238
     16          1           0       -1.231501    1.920061    1.047454
     17          1           0       -2.099022    1.045180   -1.249937
     18          1           0       -0.982717   -1.954885    0.969125
     19          1           0       -0.396474   -1.938553   -0.724784
 ---------------------------------------------------------------------

 SCF Done:  E(RB3LYP) =  -423.160123982     A.U. after    1 cycles

 The electronic state is 1-A.
 Alpha  occ. eigenvalues --  -19.15215 -19.12283 -10.26893 -10.25879 -10.24925
 Alpha  occ. eigenvalues --  -10.21115 -10.20061 -10.19500 -10.19283  -1.06749
 Alpha  occ. eigenvalues --   -1.03373  -0.84789  -0.78733  -0.71907  -0.66439
 Alpha  occ. eigenvalues --   -0.61955  -0.59334  -0.55176  -0.50479  -0.48552
 Alpha  occ. eigenvalues --   -0.46934  -0.44798  -0.44013  -0.41937  -0.40847
 Alpha  occ. eigenvalues --   -0.39814  -0.38258  -0.38047  -0.35460  -0.35022
 Alpha  occ. eigenvalues --   -0.34010  -0.27868  -0.25408  -0.24116
 Alpha virt. eigenvalues --   -0.02185   0.06571   0.08620   0.11187   0.11586
 Alpha virt. eigenvalues --    0.12602   0.13265   0.14380   0.15176   0.15836
 Alpha virt. eigenvalues --    0.16769   0.17972   0.18911   0.21007   0.21680

 Mulliken charges:
               1
     1  C   -0.389285
     2  C   -0.288910
     3  C    0.288035
     4  O   -0.333493
     5  C    0.163970
     6  C   -0.337426
     7  C    0.082442
     8  O   -0.278114
     9  C   -0.155778
    10  H    0.126497
    11  H    0.127212
    12  H    0.136632
    13  H    0.123831
    14  H    0.111103
    15  H    0.120814
    16  H    0.150096
    17  H    0.124959
    18  H    0.111392
    19  H    0.116023
 Sum of Mulliken charges =   0.00000

 Dipole moment (field-independent basis, Debye):
    X=              0.6967    Y=             -1.8693    Z=              0.3612  Tot=              2.0274
 Quadrupole moment (field-independent basis, Debye-Ang):
   XX=            -55.4258   YY=            -57.4718   ZZ=            -51.3835
   XY=             -6.7584   XZ=             -1.2279   YZ=             -0.4478

  Exact polarizability:  87.189  -2.610  78.868  -2.544   0.231  63.969
 Approx polarizability: 120.392   3.043 123.747  -0.471   1.836  97.164

                      1                      2                      3
                      A                      A                      A
 Frequencies --     50.5441                66.2028               158.9952
 Red. masses --      3.4193                 2.7676                 4.1354
 Frc consts  --      0.0051                 0.0071                 0.0616
 IR Inten    --      1.0552                 0.7430                 4.3388

                      4                      5                      6
                      A                      A                      A
 Frequencies --    179.8267               222.9068               247.6088
 Red. masses --      1.7693                 1.6130                 3.3124
 Frc consts  --      0.0337                 0.0472                 0.1197
 IR Inten    --      2.5318                 2.2321                 5.3223

                      7                      8                      9
                      A                      A                      A
 Frequencies --    329.3894               415.4688               448.7023
 Red. masses --      2.2629                 2.8494                 2.5041
 Frc consts  --      0.1447                 0.2898                 0.2970
 IR Inten    --      2.9412                 4.6650                 2.6963

                     10                     11                     12
                      A                      A                      A
 Frequencies --    501.3552               601.1974               698.1699
 Red. masses --      4.0082                 3.2080                 3.9108
 Frc consts  --      0.5936                 0.6831                 1.1232
 IR Inten    --      4.4499                 4.4611                 1.6514

                     13                     14                     15
                      A                      A                      A
 Frequencies --    755.8556               798.4224               824.4704
 Red. masses --      3.2837                 1.6316                 2.6872
 Frc consts  --      1.1053                 0.6128                 1.0762
 IR Inten    --      8.7538                17.0751                37.5943

                     16                     17                     18
                      A                      A                      A
 Frequencies --    859.1338               934.4075               945.2849
 Red. masses --      1.9682                 2.0308                 1.8104
 Frc consts  --      0.8560                 1.0447                 0.9531
 IR Inten    --      8.7216                 5.7314                51.6405

                     19                     20                     21
                      A                      A                      A
 Frequencies --    977.7737               987.7374              1005.0442
 Red. masses --      1.6418                 2.5487                 2.3377
 Frc consts  --      0.9248                 1.4651                 1.3912
 IR Inten    --     23.9262                25.8053                 4.5570

                     22                     23                     24
                      A                      A                      A
 Frequencies --   1042.3263              1057.0585              1073.8188
 Red. masses --      1.8291                 1.5309                 1.8100
 Frc consts  --      1.1708                 1.0078                 1.2297
 IR Inten    --     30.4778                24.1667                 3.9510

                     25                     26                     27
                      A                      A                      A
 Frequencies --   1090.6048              1107.2912              1160.2921
 Red. masses --      1.7621                 2.4741                 1.4020
 Frc consts  --      1.2348                 1.7873                 1.1121
 IR Inten    --     23.7107                 9.2009                 3.3335

                     28                     29                     30
                      A                      A                      A
 Frequencies --   1174.1313              1230.9280              1266.9437
 Red. masses --      1.7771                 1.8183                 1.2787
 Frc consts  --      1.4435                 1.6232                 1.2093
 IR Inten    --     45.4861                 2.2610                 0.7457

                     31                     32                     33
                      A                      A                      A
 Frequencies --   1305.6342              1327.4069              1336.8483
 Red. masses --      1.7873                 1.5046                 1.9806
 Frc consts  --      1.7951                 1.5620                 2.0855
 IR Inten    --     13.6964                 3.6528                48.0784

                     34                     35                     36
                      A                      A                      A
 Frequencies --   1396.2738              1412.6340              1460.3612
 Red. masses --      1.7811                 1.3406                 1.4220
 Frc consts  --      2.0459                 1.5762                 1.7868
 IR Inten    --     49.0559                20.1870                25.3378

                     37                     38                     39
                      A                      A                      A
 Frequencies --   1475.9266              1497.3102              1504.7371
 Red. masses --      1.0874                 1.0439                 1.0622
 Frc consts  --      1.3957                 1.3789                 1.4170
 IR Inten    --      7.1820                 4.4227                 7.7651

                     40                     41                     42
                      A                      A                      A
 Frequencies --   1517.1538              1770.2350              3026.1283
 Red. masses --      1.1040                11.4022                 1.0556
 Frc consts  --      1.4972                21.0523                 5.6951
 IR Inten    --      0.8675               155.9644                50.2919

                     43                     44                     45
                      A                      A                      A
 Frequencies --   3037.5333              3041.0503              3078.0826
 Red. masses --      1.0637                 1.0354                 1.1099
 Frc consts  --      5.7826                 5.6416                 6.1959
 IR Inten    --     11.8947                21.9920                33.3661

                     46                     47                     48
                      A                      A                      A
 Frequencies --   3098.2431              3116.1875              3119.9825
 Red. masses --      1.0985                 1.1003                 1.1026
 Frc consts  --      6.2126                 6.2951                 6.3235
 IR Inten    --      2.3231                30.0378                29.3049

                     49                     50                     51
                      A                      A                      A
 Frequencies --   3122.1516              3187.7584              3229.6569
 Red. masses --      1.0549                 1.0941                 1.1154
 Frc consts  --      6.0586                 6.5507                 6.8550
 IR Inten    --      8.8569                10.6940                 1.4995

 - Thermochemistry -
 -------------------
 Temperature   298.150 Kelvin.  Pressure   1.00000 Atm.
 Atom     1 has atomic number  6 and mass  12.00000

 Molecular mass:   126.06808 amu.
 Principal axes and moments of inertia in atomic units:
                           1         2         3
     Eigenvalues --   654.249321400.791281774.01744
           X            0.99816  -0.06048  -0.00452
           Y            0.06045   0.99815  -0.00712
           Z            0.00495   0.00683   0.99996
 This molecule is an asymmetric top.
 Rotational symmetry number  1.
 Warning -- assumption of classical behavior for rotation
           may cause significant error
 Rotational temperatures (Kelvin)      0.13239     0.06183     0.04882
 Rotational constants (GHZ):           2.75849     1.28837     1.01732
 Zero-point vibrational energy     414345.7 (Joules/Mol)
                                   99.03099 (Kcal/Mol)
 Warning -- explicit consideration of  11 degrees of freedom as
           vibrations may cause significant error
 Vibrational temperatures:     72.72    95.25   228.76   258.73   320.71
          (Kelvin)            356.25   473.92   597.77   645.58   721.34
                              864.99  1004.51  1087.51  1148.75  1186.23
                             1236.10  1344.40  1360.05  1406.80  1421.13
                             1446.03  1499.67  1520.87  1544.98  1569.14
                             1593.14  1669.40  1689.31  1771.03  1822.85
                             1878.51  1909.84  1923.42  2008.92  2032.46
                             2101.13  2123.53  2154.29  2164.98  2182.84
                             2546.97  4353.92  4370.33  4375.39  4428.67
                             4457.68  4483.49  4488.95  4492.07  4586.47
                             4646.75

 Zero-point correction=                           0.157816 (Hartree/Particle)
 Thermal correction to Energy=                    0.166750
 Thermal correction to Enthalpy=                  0.167694
 Thermal correction to Gibbs Free Energy=         0.123353
 Sum of electronic and zero-point Energies=           -423.002308
 Sum of electronic and thermal Energies=              -422.993374
 Sum of electronic and thermal Enthalpies=            -422.992430
 Sum of electronic and thermal Free Energies=         -423.036771

                     E (Thermal)             CV                S
                      KCal/Mol        Cal/Mol-Kelvin    Cal/Mol-Kelvin
 Total                  104.637             32.737             93.323
 Electronic               0.000              0.000              0.000
 Translational            0.889              2.981             40.409
 Rotational               0.889              2.981             28.877
 Vibrational            102.860             26.775             24.038
 Vibration     1          0.595              1.977              4.796
 Vibration     2          0.598              1.970              4.263
 Vibration     3          0.621              1.893              2.562
 Vibration     4          0.629              1.867              2.330
 Vibration     5          0.649              1.806              1.935
 Vibration     6          0.661              1.767              1.748
 Vibration     7          0.712              1.617              1.263
 Vibration     8          0.779              1.437              0.908
 Vibration     9          0.808              1.364              0.800
 Vibration    10          0.857              1.247              0.655
 Vibration    11          0.959              1.029              0.448

 Normal termination of Gaussian 09 at Tue Jan 28 08:56:00 2020.
