 Gaussian 09, Revision D.01,
 Gaussian 09:  ES64L-G09RevD.01 24-Apr-2013

 -----------------------------
 # b3lyp 6-31G(2df,p) opt Freq
 -----------------------------

 -----
 titel
 -----
 Symbolic Z-matrix:
 Charge =  0 Multiplicity = 1

 SCF Done:  E(RB3LYP) =  -423.201279187     A.U. after   13 cycles
 Optimization completed.
    -- Stationary point found.
 Normal termination of Gaussian 09 at Tue Jan 28 00:35:55 2020.

 ----------------------------------------------------------------------
 #N Geom=AllCheck Guess=TCheck SCRF=Check GenChk RB3LYP/6-31G(2df,p) Fr
 eq
 ----------------------------------------------------------------------

 Structure from the checkpoint file:  "/scratch/puck/g09_51386358-5468-4fbd-8823-d43ae16e9632/Gau-36583.chk"
 -----
 titel
 -----
 Charge =  0 Multiplicity = 1

                         Standard orientation:
 ---------------------------------------------------------------------
 Center     Atomic      Atomic             Coordinates (Angstroms)
 Number     Number       Type             X           Y           Z
 ---------------------------------------------------------------------
      1          8           0       -2.571891   -0.673144    0.348035
      2          6           0       -1.351184   -0.429652   -0.349575
      3          6           0       -1.225142    1.010679   -0.779098
      4          6           0       -0.243413    1.642313   -0.134448
      5          6           0        0.546832    0.736673    0.781392
      6          6           0        2.024480    0.550809    0.371050
      7          6           0        1.927133   -0.575537   -0.659464
      8          8           0        0.905113   -1.435884   -0.170252
      9          6           0       -0.080328   -0.666960    0.518257
     10          1           0       -2.703524    0.059198    0.960375
     11          1           0       -1.352413   -1.139733   -1.182197
     12          1           0       -1.913511    1.462655   -1.485088
     13          1           0        0.000562    2.694665   -0.245376
     14          1           0        0.470566    1.059582    1.825134
     15          1           0        2.476540    1.462441   -0.029013
     16          1           0        2.615281    0.224153    1.232247
     17          1           0        1.665522   -0.178036   -1.652152
     18          1           0        2.842916   -1.165176   -0.757127
     19          1           0       -0.357980   -1.217467    1.422254
 ---------------------------------------------------------------------

 SCF Done:  E(RB3LYP) =  -423.201279187     A.U. after    1 cycles

 The electronic state is 1-A.
 Alpha  occ. eigenvalues --  -19.13312 -19.13268 -10.22610 -10.22406 -10.22309
 Alpha  occ. eigenvalues --  -10.19606 -10.19234 -10.18776 -10.18478  -1.03189
 Alpha  occ. eigenvalues --   -1.01226  -0.83544  -0.76836  -0.71489  -0.67673
 Alpha  occ. eigenvalues --   -0.59897  -0.57166  -0.55281  -0.51477  -0.49231
 Alpha  occ. eigenvalues --   -0.47673  -0.44194  -0.42939  -0.42323  -0.39961
 Alpha  occ. eigenvalues --   -0.37554  -0.36669  -0.35958  -0.33859  -0.31793
 Alpha  occ. eigenvalues --   -0.30863  -0.28450  -0.25829  -0.23702
 Alpha virt. eigenvalues --    0.00440   0.09040   0.09357   0.11592   0.12550
 Alpha virt. eigenvalues --    0.12970   0.14750   0.15125   0.16371   0.16594
 Alpha virt. eigenvalues --    0.18704   0.19075   0.19638   0.20669   0.21260

 Mulliken charges:
               1
     1  O   -0.429538
     2  C    0.079919
     3  C   -0.127491
     4  C   -0.074338
     5  C   -0.098588
     6  C   -0.228209
     7  C   -0.076669
     8  O   -0.260231
     9  C    0.065953
    10  H    0.275018
    11  H    0.101249
    12  H    0.100762
    13  H    0.098778
    14  H    0.080506
    15  H    0.100614
    16  H    0.107736
    17  H    0.093666
    18  H    0.107503
    19  H    0.083360
 Sum of Mulliken charges =   0.00000

 Dipole moment (field-independent basis, Debye):
    X=              1.1343    Y=              2.7053    Z=              0.5262  Tot=              2.9803
 Quadrupole moment (field-independent basis, Debye-Ang):
   XX=            -53.8521   YY=            -55.5628   ZZ=            -50.5347
   XY=             -2.3135   XZ=             -0.7525   YZ=              0.3915

  Exact polarizability:  87.048   3.148  72.344   3.807   0.219  66.978
 Approx polarizability: 121.613  10.604 110.507   7.971   3.459 104.464

                      1                      2                      3
                      A                      A                      A
 Frequencies --     53.6034               164.8157               214.1215
 Red. masses --      4.1802                 3.0326                 2.5603
 Frc consts  --      0.0071                 0.0485                 0.0692
 IR Inten    --      0.2617                 2.7223                 1.0650

                      4                      5                      6
                      A                      A                      A
 Frequencies --    289.9479               330.0415               367.7021
 Red. masses --      2.2066                 1.3106                 5.4686
 Frc consts  --      0.1093                 0.0841                 0.4356
 IR Inten    --      2.9446                72.4052                 0.9545

                      7                      8                      9
                      A                      A                      A
 Frequencies --    400.5387               549.2349               594.9670
 Red. masses --      2.4206                 3.5714                 3.0843
 Frc consts  --      0.2288                 0.6347                 0.6433
 IR Inten    --      9.7896                 2.4862                 1.4960

                     10                     11                     12
                      A                      A                      A
 Frequencies --    655.9970               741.0324               784.2051
 Red. masses --      3.2027                 3.4287                 2.0087
 Frc consts  --      0.8120                 1.1093                 0.7278
 IR Inten    --      5.9639                 1.1888                24.8483

                     13                     14                     15
                      A                      A                      A
 Frequencies --    840.4717               856.1596               875.5541
 Red. masses --      2.6599                 2.5476                 2.9193
 Frc consts  --      1.1071                 1.1003                 1.3185
 IR Inten    --     10.3013                 7.1737                 2.5211

                     16                     17                     18
                      A                      A                      A
 Frequencies --    914.9539               937.6744               957.4094
 Red. masses --      2.0879                 2.3964                 3.2884
 Frc consts  --      1.0298                 1.2414                 1.7759
 IR Inten    --      0.9242                27.9377                18.6984

                     19                     20                     21
                      A                      A                      A
 Frequencies --    980.9960               991.8921              1029.4266
 Red. masses --      1.6355                 1.4870                 2.1766
 Frc consts  --      0.9273                 0.8620                 1.3590
 IR Inten    --      4.4317                 7.9236                10.8985

                     22                     23                     24
                      A                      A                      A
 Frequencies --   1048.4319              1066.2679              1106.5144
 Red. masses --      2.4726                 2.1937                 2.6752
 Frc consts  --      1.6013                 1.4694                 1.9299
 IR Inten    --     84.0940                36.5159                21.9618

                     25                     26                     27
                      A                      A                      A
 Frequencies --   1114.3505              1132.6525              1193.3810
 Red. masses --      2.7456                 1.2170                 1.4609
 Frc consts  --      2.0088                 0.9199                 1.2258
 IR Inten    --     67.3263                 4.0805                 4.2227

                     28                     29                     30
                      A                      A                      A
 Frequencies --   1222.2344              1230.8728              1260.0919
 Red. masses --      1.2774                 1.5606                 1.4407
 Frc consts  --      1.1243                 1.3930                 1.3478
 IR Inten    --      2.2006                 4.2478                27.3143

                     31                     32                     33
                      A                      A                      A
 Frequencies --   1283.1456              1295.1953              1313.3063
 Red. masses --      1.2694                 1.3518                 1.5250
 Frc consts  --      1.2314                 1.3361                 1.5497
 IR Inten    --      0.1576                 1.5193                 0.3839

                     34                     35                     36
                      A                      A                      A
 Frequencies --   1330.3918              1352.8776              1380.5853
 Red. masses --      1.3809                 1.3069                 1.5807
 Frc consts  --      1.4400                 1.4093                 1.7751
 IR Inten    --      1.4234                 4.6110                 2.4651

                     37                     38                     39
                      A                      A                      A
 Frequencies --   1394.0165              1420.0321              1485.1021
 Red. masses --      1.3406                 1.3053                 1.0985
 Frc consts  --      1.5349                 1.5508                 1.4275
 IR Inten    --      3.5485                62.6513                 2.1757

                     40                     41                     42
                      A                      A                      A
 Frequencies --   1519.7818              1675.6231              2985.9142
 Red. masses --      1.0923                 6.5726                 1.0707
 Frc consts  --      1.4865                10.8728                 5.6246
 IR Inten    --      0.6413                 2.0463                56.2224

                     43                     44                     45
                      A                      A                      A
 Frequencies --   3041.4577              3056.0690              3066.3960
 Red. masses --      1.0805                 1.0665                 1.0856
 Frc consts  --      5.8888                 5.8684                 6.0143
 IR Inten    --      6.6366                34.2392                47.0772

                     46                     47                     48
                      A                      A                      A
 Frequencies --   3070.7965              3086.9255              3105.8166
 Red. masses --      1.0851                 1.0920                 1.1058
 Frc consts  --      6.0289                 6.1307                 6.2846
 IR Inten    --     15.8434                39.5382                28.3892

                     49                     50                     51
                      A                      A                      A
 Frequencies --   3171.8331              3201.1192              3799.6822
 Red. masses --      1.0855                 1.1027                 1.0661
 Frc consts  --      6.4343                 6.6574                 9.0686
 IR Inten    --      8.5818                17.5107                14.0435

 - Thermochemistry -
 -------------------
 Temperature   298.150 Kelvin.  Pressure   1.00000 Atm.
 Atom     1 has atomic number  8 and mass  15.99491

 Molecular mass:   126.06808 amu.
 Principal axes and moments of inertia in atomic units:
                           1         2         3
     Eigenvalues --   596.837641206.211461491.18757
           X            1.00000   0.00125   0.00174
           Y           -0.00125   1.00000   0.00231
           Z           -0.00173  -0.00232   1.00000
 This molecule is an asymmetric top.
 Rotational symmetry number  1.
 Warning -- assumption of classical behavior for rotation
           may cause significant error
 Rotational temperatures (Kelvin)      0.14512     0.07181     0.05808
 Rotational constants (GHZ):           3.02384     1.49621     1.21027
 Zero-point vibrational energy     424325.1 (Joules/Mol)
                                  101.41612 (Kcal/Mol)
 Warning -- explicit consideration of   9 degrees of freedom as
           vibrations may cause significant error
 Vibrational temperatures:     77.12   237.13   308.07   417.17   474.86
          (Kelvin)            529.04   576.29   790.23   856.02   943.83
                             1066.18  1128.29  1209.25  1231.82  1259.73
                             1316.41  1349.10  1377.50  1411.43  1427.11
                             1481.11  1508.46  1534.12  1592.03  1603.30
                             1629.63  1717.01  1758.52  1770.95  1812.99
                             1846.16  1863.49  1889.55  1914.13  1946.49
                             1986.35  2005.68  2043.11  2136.73  2186.62
                             2410.84  4296.06  4375.97  4397.00  4411.85
                             4418.19  4441.39  4468.57  4563.55  4605.69
                             5466.89

 Zero-point correction=                           0.161617 (Hartree/Particle)
 Thermal correction to Energy=                    0.169285
 Thermal correction to Enthalpy=                  0.170229
 Thermal correction to Gibbs Free Energy=         0.129125
 Sum of electronic and zero-point Energies=           -423.039662
 Sum of electronic and thermal Energies=              -423.031994
 Sum of electronic and thermal Enthalpies=            -423.031050
 Sum of electronic and thermal Free Energies=         -423.072154

                     E (Thermal)             CV                S
                      KCal/Mol        Cal/Mol-Kelvin    Cal/Mol-Kelvin
 Total                  106.228             30.062             86.511
 Electronic               0.000              0.000              0.000
 Translational            0.889              2.981             40.409
 Rotational               0.889              2.981             28.464
 Vibrational            104.451             24.101             17.638
 Vibration     1          0.596              1.976              4.680
 Vibration     2          0.623              1.886              2.494
 Vibration     3          0.644              1.819              2.008
 Vibration     4          0.686              1.692              1.474
 Vibration     5          0.713              1.615              1.260
 Vibration     6          0.740              1.539              1.089
 Vibration     7          0.766              1.469              0.961
 Vibration     8          0.904              1.141              0.546
 Vibration     9          0.953              1.042              0.458

 Normal termination of Gaussian 09 at Tue Jan 28 02:47:25 2020.
