 Gaussian 09, Revision D.01,
 Gaussian 09:  ES64L-G09RevD.01 24-Apr-2013

 -----------------------------
 # b3lyp 6-31G(2df,p) opt Freq
 -----------------------------

 -----
 titel
 -----
 Symbolic Z-matrix:
 Charge =  0 Multiplicity = 1

 SCF Done:  E(RB3LYP) =  -423.117793484     A.U. after   13 cycles
 Optimization completed.
    -- Stationary point found.
 Normal termination of Gaussian 09 at Tue Jan 28 10:01:49 2020.

 ----------------------------------------------------------------------
 #N Geom=AllCheck Guess=TCheck SCRF=Check GenChk RB3LYP/6-31G(2df,p) Fr
 eq
 ----------------------------------------------------------------------

 Structure from the checkpoint file:  "/scratch/puck/g09_a0ed092e-e14d-4929-bd71-5404431abae3/Gau-22095.chk"
 -----
 titel
 -----
 Charge =  0 Multiplicity = 1

                         Standard orientation:
 ---------------------------------------------------------------------
 Center     Atomic      Atomic             Coordinates (Angstroms)
 Number     Number       Type             X           Y           Z
 ---------------------------------------------------------------------
      1          6           0        2.911494   -0.562852   -0.087303
      2          6           0        1.450933   -0.230568   -0.044527
      3          6           0        0.257187   -1.136390   -0.360858
      4          6           0       -0.607219   -0.004113    0.252446
      5          6           0       -2.031612   -0.157066    0.696109
      6          8           0       -2.866257   -0.459292   -0.408194
      7          8           0       -0.453003    1.081785   -0.728445
      8          6           0        0.890492    1.188637   -0.259301
      9          6           0        0.659404    0.502379    1.043558
     10          1           0        3.144650   -1.429884    0.541114
     11          1           0        3.233204   -0.794691   -1.109149
     12          1           0        3.519948    0.275808    0.269174
     13          1           0        0.045153   -1.400471   -1.401335
     14          1           0        0.257687   -2.029416    0.270928
     15          1           0       -2.119375   -0.989379    1.402412
     16          1           0       -2.353917    0.761402    1.210979
     17          1           0       -2.698756    0.220957   -1.071322
     18          1           0        1.480281    2.052923   -0.536653
     19          1           0        0.861136    0.752645    2.076223
 ---------------------------------------------------------------------

 SCF Done:  E(RB3LYP) =  -423.117793484     A.U. after    1 cycles

 The electronic state is 1-A.
 Alpha  occ. eigenvalues --  -19.13667 -19.13422 -10.24519 -10.23937 -10.22928
 Alpha  occ. eigenvalues --  -10.20332 -10.19282 -10.18583 -10.18376  -1.06215
 Alpha  occ. eigenvalues --   -1.01447  -0.86248  -0.75092  -0.72067  -0.69109
 Alpha  occ. eigenvalues --   -0.61632  -0.54859  -0.53571  -0.51775  -0.48691
 Alpha  occ. eigenvalues --   -0.46823  -0.43810  -0.43553  -0.42348  -0.40364
 Alpha  occ. eigenvalues --   -0.39586  -0.39351  -0.35307  -0.33738  -0.32760
 Alpha  occ. eigenvalues --   -0.29249  -0.27107  -0.25780  -0.22980
 Alpha virt. eigenvalues --    0.06425   0.09701   0.10637   0.11804   0.12406
 Alpha virt. eigenvalues --    0.13034   0.14156   0.15254   0.15534   0.16218
 Alpha virt. eigenvalues --    0.17150   0.17687   0.18672   0.20031   0.21140

 Mulliken charges:
               1
     1  C   -0.506928
     2  C    0.281977
     3  C   -0.307104
     4  C    0.413099
     5  C   -0.188701
     6  O   -0.416717
     7  O   -0.348670
     8  C    0.060609
     9  C   -0.267755
    10  H    0.122054
    11  H    0.126287
    12  H    0.119267
    13  H    0.100569
    14  H    0.100027
    15  H    0.111796
    16  H    0.097213
    17  H    0.299209
    18  H    0.105950
    19  H    0.097820
 Sum of Mulliken charges =   0.00000

 Dipole moment (field-independent basis, Debye):
    X=              2.0871    Y=              0.2849    Z=              1.1060  Tot=              2.3791
 Quadrupole moment (field-independent basis, Debye-Ang):
   XX=            -55.6593   YY=            -53.2645   ZZ=            -51.3263
   XY=             -1.3071   XZ=             -0.7941   YZ=             -0.3383

  Exact polarizability:  86.906   0.436  70.650  -1.300   0.520  67.450
 Approx polarizability: 111.390   0.901 108.522   0.597  -2.231 107.654

                      1                      2                      3
                      A                      A                      A
 Frequencies --     78.6831               137.2652               206.7400
 Red. masses --      4.0904                 3.7406                 1.1063
 Frc consts  --      0.0149                 0.0415                 0.0279
 IR Inten    --      3.6486                 0.6969                 0.0901

                      4                      5                      6
                      A                      A                      A
 Frequencies --    227.0148               271.7790               330.3071
 Red. masses --      2.1981                 2.5134                 2.0140
 Frc consts  --      0.0667                 0.1094                 0.1295
 IR Inten    --      1.6535                 3.2162                16.3440

                      7                      8                      9
                      A                      A                      A
 Frequencies --    377.6831               412.5596               460.4862
 Red. masses --      3.0144                 1.3817                 1.9880
 Frc consts  --      0.2533                 0.1386                 0.2484
 IR Inten    --      2.2054               117.3252                 2.6198

                     10                     11                     12
                      A                      A                      A
 Frequencies --    540.1927               596.4460               694.7646
 Red. masses --      4.5097                 3.4076                 3.4369
 Frc consts  --      0.7753                 0.7142                 0.9775
 IR Inten    --      2.5395                 8.5843                 6.2636

                     13                     14                     15
                      A                      A                      A
 Frequencies --    761.5006               776.6908               819.1169
 Red. masses --      2.4354                 4.9066                 1.6587
 Frc consts  --      0.8321                 1.7439                 0.6557
 IR Inten    --      2.9255                17.8669                 5.3372

                     16                     17                     18
                      A                      A                      A
 Frequencies --    858.8974               895.1886               922.2555
 Red. masses --      3.1685                 1.9985                 2.0392
 Frc consts  --      1.3772                 0.9436                 1.0219
 IR Inten    --     33.2995                 7.9173                 0.4394

                     19                     20                     21
                      A                      A                      A
 Frequencies --    930.2938               972.3603              1008.8876
 Red. masses --      1.9792                 1.5548                 3.0317
 Frc consts  --      1.0092                 0.8661                 1.8181
 IR Inten    --      6.2049                 9.9176                86.1511

                     22                     23                     24
                      A                      A                      A
 Frequencies --   1027.1764              1049.3968              1074.4879
 Red. masses --      1.5936                 2.2019                 2.5368
 Frc consts  --      0.9907                 1.4287                 1.7256
 IR Inten    --      8.2662                16.4592                43.6174

                     25                     26                     27
                      A                      A                      A
 Frequencies --   1081.0413              1101.8310              1144.8224
 Red. masses --      2.1293                 2.2905                 2.0638
 Frc consts  --      1.4661                 1.6384                 1.5937
 IR Inten    --      9.7692                 5.9914                 1.5786

                     28                     29                     30
                      A                      A                      A
 Frequencies --   1158.2818              1188.9580              1218.5514
 Red. masses --      1.6259                 1.4908                 1.2941
 Frc consts  --      1.2852                 1.2417                 1.1321
 IR Inten    --      1.5126                 0.6494                 5.9338

                     31                     32                     33
                      A                      A                      A
 Frequencies --   1265.3550              1293.4883              1337.6776
 Red. masses --      1.8310                 3.1260                 2.4132
 Frc consts  --      1.7272                 3.0815                 2.5442
 IR Inten    --     20.8409                 6.9664                24.3915

                     34                     35                     36
                      A                      A                      A
 Frequencies --   1378.9959              1397.9459              1421.4194
 Red. masses --      1.3991                 1.9929                 1.5213
 Frc consts  --      1.5676                 2.2947                 1.8109
 IR Inten    --     11.3323                10.7276                 4.4889

                     37                     38                     39
                      A                      A                      A
 Frequencies --   1442.0302              1485.7673              1491.0216
 Red. masses --      1.5680                 1.0608                 1.1937
 Frc consts  --      1.9211                 1.3797                 1.5636
 IR Inten    --     39.1144                 3.1712                 0.8929

                     40                     41                     42
                      A                      A                      A
 Frequencies --   1494.9517              1499.8926              2986.4256
 Red. masses --      1.0913                 1.0736                 1.0689
 Frc consts  --      1.4369                 1.4230                 5.6170
 IR Inten    --      1.1534                 4.6212                52.2480

                     43                     44                     45
                      A                      A                      A
 Frequencies --   3022.0918              3047.9606              3076.1839
 Red. masses --      1.0352                 1.0561                 1.0935
 Frc consts  --      5.5704                 5.7808                 6.0965
 IR Inten    --     38.2944                32.6021                20.8618

                     46                     47                     48
                      A                      A                      A
 Frequencies --   3084.2385              3089.5421              3108.0126
 Red. masses --      1.1011                 1.1004                 1.1087
 Frc consts  --      6.1713                 6.1885                 6.3100
 IR Inten    --     20.8993                20.4124                24.4899

                     49                     50                     51
                      A                      A                      A
 Frequencies --   3196.3394              3209.9533              3795.0362
 Red. masses --      1.0899                 1.1021                 1.0658
 Frc consts  --      6.5604                 6.6909                 9.0443
 IR Inten    --     13.0748                11.6352                26.6260

 - Thermochemistry -
 -------------------
 Temperature   298.150 Kelvin.  Pressure   1.00000 Atm.
 Atom     1 has atomic number  6 and mass  12.00000

 Molecular mass:   126.06808 amu.
 Principal axes and moments of inertia in atomic units:
                           1         2         3
     Eigenvalues --   441.784671537.522301650.07563
           X            0.99991  -0.01057  -0.00860
           Y            0.01093   0.99904   0.04236
           Z            0.00814  -0.04245   0.99907
 This molecule is an asymmetric top.
 Rotational symmetry number  1.
 Warning -- assumption of classical behavior for rotation
           may cause significant error
 Rotational temperatures (Kelvin)      0.19605     0.05633     0.05249
 Rotational constants (GHZ):           4.08512     1.17380     1.09373
 Zero-point vibrational energy     415391.2 (Joules/Mol)
                                   99.28088 (Kcal/Mol)
 Warning -- explicit consideration of  11 degrees of freedom as
           vibrations may cause significant error
 Vibrational temperatures:    113.21   197.49   297.45   326.62   391.03
          (Kelvin)            475.24   543.40   593.58   662.54   777.22
                              858.15   999.61  1095.63  1117.48  1178.52
                             1235.76  1287.98  1326.92  1338.48  1399.01
                             1451.56  1477.88  1509.85  1545.95  1555.38
                             1585.29  1647.14  1666.51  1710.64  1753.22
                             1820.56  1861.04  1924.62  1984.07  2011.33
                             2045.10  2074.76  2137.69  2145.24  2150.90
                             2158.01  4296.79  4348.11  4385.33  4425.94
                             4437.53  4445.16  4471.73  4598.81  4618.40
                             5460.20

 Zero-point correction=                           0.158214 (Hartree/Particle)
 Thermal correction to Energy=                    0.166596
 Thermal correction to Enthalpy=                  0.167540
 Thermal correction to Gibbs Free Energy=         0.125387
 Sum of electronic and zero-point Energies=           -422.959579
 Sum of electronic and thermal Energies=              -422.951197
 Sum of electronic and thermal Enthalpies=            -422.950253
 Sum of electronic and thermal Free Energies=         -422.992406

                     E (Thermal)             CV                S
                      KCal/Mol        Cal/Mol-Kelvin    Cal/Mol-Kelvin
 Total                  104.541             32.549             88.718
 Electronic               0.000              0.000              0.000
 Translational            0.889              2.981             40.409
 Rotational               0.889              2.981             28.507
 Vibrational            102.763             26.587             19.803
 Vibration     1          0.600              1.964              3.923
 Vibration     2          0.614              1.916              2.842
 Vibration     3          0.641              1.830              2.072
 Vibration     4          0.651              1.800              1.902
 Vibration     5          0.675              1.725              1.585
 Vibration     6          0.713              1.615              1.259
 Vibration     7          0.748              1.518              1.048
 Vibration     8          0.776              1.443              0.918
 Vibration     9          0.818              1.338              0.765
 Vibration    10          0.895              1.161              0.565
 Vibration    11          0.954              1.039              0.456

 Optimization completed.
    -- Stationary point found.
 Normal termination of Gaussian 09 at Tue Jan 28 10:44:59 2020.
