 Gaussian 09, Revision D.01,
 Gaussian 09:  ES64L-G09RevD.01 24-Apr-2013

 -----------------------------
 # b3lyp 6-31G(2df,p) opt Freq
 -----------------------------

 -----
 titel
 -----
 Symbolic Z-matrix:
 Charge =  0 Multiplicity = 1

 SCF Done:  E(RB3LYP) =  -423.180813782     A.U. after   13 cycles
 Optimization completed.
    -- Stationary point found.
 Normal termination of Gaussian 09 at Tue Jan 28 02:56:00 2020.

 ----------------------------------------------------------------------
 #N Geom=AllCheck Guess=TCheck SCRF=Check GenChk RB3LYP/6-31G(2df,p) Fr
 eq
 ----------------------------------------------------------------------

 Structure from the checkpoint file:  "/scratch/puck/g09_7abb888e-a097-4b97-84db-107307fb9d93/Gau-65418.chk"
 -----
 titel
 -----
 Charge =  0 Multiplicity = 1

                         Standard orientation:
 ---------------------------------------------------------------------
 Center     Atomic      Atomic             Coordinates (Angstroms)
 Number     Number       Type             X           Y           Z
 ---------------------------------------------------------------------
      1          6           0       -2.455518    0.000423    0.278832
      2          6           0       -1.194009   -0.038142   -0.575243
      3          8           0       -0.562056    1.255892   -0.552962
      4          6           0        0.719522    1.291751    0.011781
      5          6           0        1.741897    0.222764   -0.328981
      6          6           0        1.100177   -1.003571   -0.958413
      7          6           0       -0.189020   -1.104028   -0.117115
      8          8           0        0.222125   -0.784139    1.219154
      9          6           0        1.120450    0.291579    1.059453
     10          1           0       -3.082788    0.844248   -0.019722
     11          1           0       -3.033271   -0.921957    0.152185
     12          1           0       -2.194866    0.107840    1.334297
     13          1           0       -1.466224   -0.240065   -1.622006
     14          1           0        1.055527    2.318247    0.108930
     15          1           0        2.776489    0.473945   -0.529330
     16          1           0        0.878618   -0.885823   -2.023034
     17          1           0        1.731467   -1.887358   -0.825647
     18          1           0       -0.648084   -2.094545   -0.101058
     19          1           0        1.641594    0.546793    1.973963
 ---------------------------------------------------------------------

 SCF Done:  E(RB3LYP) =  -423.180813782     A.U. after    1 cycles

 The electronic state is 1-A.
 Alpha  occ. eigenvalues --  -19.14658 -19.14067 -10.23578 -10.23306 -10.23246
 Alpha  occ. eigenvalues --  -10.23062 -10.19056 -10.18729 -10.16853  -1.06505
 Alpha  occ. eigenvalues --   -1.01710  -0.84277  -0.78661  -0.72829  -0.64746
 Alpha  occ. eigenvalues --   -0.63098  -0.57811  -0.53981  -0.52357  -0.48762
 Alpha  occ. eigenvalues --   -0.47803  -0.44461  -0.43020  -0.40766  -0.39059
 Alpha  occ. eigenvalues --   -0.38778  -0.37863  -0.36024  -0.35217  -0.33552
 Alpha  occ. eigenvalues --   -0.32101  -0.31535  -0.23730  -0.21772
 Alpha virt. eigenvalues --    0.07818   0.10880   0.11946   0.12509   0.13110
 Alpha virt. eigenvalues --    0.14808   0.15141   0.16367   0.16627   0.16849
 Alpha virt. eigenvalues --    0.17740   0.19223   0.19442   0.20461   0.22762

 Mulliken charges:
               1
     1  C   -0.402539
     2  C    0.156789
     3  O   -0.293716
     4  C    0.086773
     5  C   -0.157477
     6  C   -0.235956
     7  C    0.020941
     8  O   -0.259347
     9  C    0.048716
    10  H    0.121852
    11  H    0.106196
    12  H    0.135542
    13  H    0.074400
    14  H    0.103875
    15  H    0.088567
    16  H    0.110375
    17  H    0.107183
    18  H    0.085724
    19  H    0.102100
 Sum of Mulliken charges =   0.00000

 Dipole moment (field-independent basis, Debye):
    X=              0.8122    Y=             -0.6011    Z=             -0.7012  Tot=              1.2299
 Quadrupole moment (field-independent basis, Debye-Ang):
   XX=            -50.0442   YY=            -53.0024   ZZ=            -54.3712
   XY=              2.8994   XZ=              0.8970   YZ=              3.6819

  Exact polarizability:  82.096   2.921  70.454   0.662   3.877  66.710
 Approx polarizability: 108.442   3.193 106.623   1.767   1.883 105.307

                      1                      2                      3
                      A                      A                      A
 Frequencies --    107.7547               230.5661               261.8058
 Red. masses --      3.7581                 1.0904                 2.5812
 Frc consts  --      0.0257                 0.0342                 0.1042
 IR Inten    --      2.3922                 0.3914                 2.3107

                      4                      5                      6
                      A                      A                      A
 Frequencies --    328.9545               402.0061               447.2643
 Red. masses --      2.5152                 4.5155                 3.3675
 Frc consts  --      0.1604                 0.4300                 0.3969
 IR Inten    --      0.3453                 5.8796                 2.0071

                      7                      8                      9
                      A                      A                      A
 Frequencies --    528.8909               612.1679               671.2228
 Red. masses --      3.2535                 3.8830                 5.6680
 Frc consts  --      0.5362                 0.8574                 1.5046
 IR Inten    --      2.5208                 0.4600                 5.3866

                     10                     11                     12
                      A                      A                      A
 Frequencies --    711.8196               750.3152               775.2517
 Red. masses --      6.3700                 2.4099                 1.9685
 Frc consts  --      1.9016                 0.7994                 0.6971
 IR Inten    --      7.1162                19.5272                26.1485

                     13                     14                     15
                      A                      A                      A
 Frequencies --    785.9977               842.8838               887.0168
 Red. masses --      2.6346                 2.3868                 2.2378
 Frc consts  --      0.9590                 0.9991                 1.0374
 IR Inten    --      4.2002                 8.7917                 3.4684

                     16                     17                     18
                      A                      A                      A
 Frequencies --    935.0301               946.4008               975.3150
 Red. masses --      2.5954                 2.7971                 2.2138
 Frc consts  --      1.3369                 1.4761                 1.2408
 IR Inten    --     24.1123                 8.8793                13.3185

                     19                     20                     21
                      A                      A                      A
 Frequencies --   1003.4515              1022.7418              1042.6889
 Red. masses --      1.6854                 1.5581                 1.5032
 Frc consts  --      0.9999                 0.9602                 0.9629
 IR Inten    --     11.4437                26.6517                 8.3395

                     22                     23                     24
                      A                      A                      A
 Frequencies --   1058.2198              1078.7908              1108.5529
 Red. masses --      2.4096                 1.3420                 2.9586
 Frc consts  --      1.5898                 0.9202                 2.1421
 IR Inten    --      6.4656                 2.9958                 8.4268

                     25                     26                     27
                      A                      A                      A
 Frequencies --   1119.5167              1129.9823              1138.0366
 Red. masses --      2.2731                 2.4974                 1.9232
 Frc consts  --      1.6785                 1.8788                 1.4675
 IR Inten    --      9.7679                11.3921                 3.4845

                     28                     29                     30
                      A                      A                      A
 Frequencies --   1179.1350              1220.0279              1249.7132
 Red. masses --      1.4480                 2.0898                 1.6513
 Frc consts  --      1.1861                 1.8327                 1.5195
 IR Inten    --     30.4163               109.3239                10.6776

                     31                     32                     33
                      A                      A                      A
 Frequencies --   1295.4172              1311.4042              1329.9864
 Red. masses --      1.5077                 1.2835                 1.4685
 Frc consts  --      1.4907                 1.3005                 1.5304
 IR Inten    --      5.2050                 3.3515                 0.0630

                     34                     35                     36
                      A                      A                      A
 Frequencies --   1344.4356              1378.5477              1390.9841
 Red. masses --      1.4389                 1.5030                 1.3836
 Frc consts  --      1.5324                 1.6829                 1.5773
 IR Inten    --      1.1826                 3.5279                 7.5361

                     37                     38                     39
                      A                      A                      A
 Frequencies --   1403.1750              1429.3535              1485.2082
 Red. masses --      1.3102                 2.3180                 1.0527
 Frc consts  --      1.5199                 2.7902                 1.3681
 IR Inten    --     12.0365                19.7261                 2.6290

                     40                     41                     42
                      A                      A                      A
 Frequencies --   1489.6815              1498.4882              2989.2212
 Red. masses --      1.1062                 1.0636                 1.0843
 Frc consts  --      1.4463                 1.4071                 5.7082
 IR Inten    --      5.6782                 1.7585                46.3290

                     43                     44                     45
                      A                      A                      A
 Frequencies --   3040.0537              3052.4698              3097.5422
 Red. masses --      1.0374                 1.0588                 1.0932
 Frc consts  --      5.6487                 5.8126                 6.1797
 IR Inten    --     19.8770                29.9879                26.7777

                     46                     47                     48
                      A                      A                      A
 Frequencies --   3101.0444              3112.2945              3135.7545
 Red. masses --      1.1016                 1.0981                 1.1025
 Frc consts  --      6.2414                 6.2671                 6.3874
 IR Inten    --     20.8437                27.9124                15.4533

                     49                     50                     51
                      A                      A                      A
 Frequencies --   3170.8624              3179.9504              3192.5605
 Red. masses --      1.0898                 1.0901                 1.0959
 Frc consts  --      6.4557                 6.4949                 6.5811
 IR Inten    --     11.2708                12.1653                26.0400

 - Thermochemistry -
 -------------------
 Temperature   298.150 Kelvin.  Pressure   1.00000 Atm.
 Atom     1 has atomic number  6 and mass  12.00000

 Molecular mass:   126.06808 amu.
 Principal axes and moments of inertia in atomic units:
                           1         2         3
     Eigenvalues --   616.843831006.287651108.20186
           X            0.99963   0.02417  -0.01251
           Y           -0.02159   0.98409   0.17635
           Z            0.01658  -0.17602   0.98425
 This molecule is an asymmetric top.
 Rotational symmetry number  1.
 Warning -- assumption of classical behavior for rotation
           may cause significant error
 Rotational temperatures (Kelvin)      0.14041     0.08607     0.07816
 Rotational constants (GHZ):           2.92577     1.79346     1.62853
 Zero-point vibrational energy     424554.4 (Joules/Mol)
                                  101.47094 (Kcal/Mol)
 Warning -- explicit consideration of   8 degrees of freedom as
           vibrations may cause significant error
 Vibrational temperatures:    155.03   331.73   376.68   473.29   578.40
          (Kelvin)            643.51   760.96   880.77   965.74  1024.15
                             1079.53  1115.41  1130.87  1212.72  1276.22
                             1345.30  1361.66  1403.26  1443.74  1471.50
                             1500.19  1522.54  1552.14  1594.96  1610.73
                             1625.79  1637.38  1696.51  1755.35  1798.06
                             1863.81  1886.82  1913.55  1934.34  1983.42
                             2001.31  2018.85  2056.52  2136.88  2143.32
                             2155.99  4300.82  4373.95  4391.82  4456.67
                             4461.71  4477.89  4511.65  4562.16  4575.23
                             4593.38

 Zero-point correction=                           0.161704 (Hartree/Particle)
 Thermal correction to Energy=                    0.168691
 Thermal correction to Enthalpy=                  0.169635
 Thermal correction to Gibbs Free Energy=         0.130554
 Sum of electronic and zero-point Energies=           -423.019110
 Sum of electronic and thermal Energies=              -423.012123
 Sum of electronic and thermal Enthalpies=            -423.011178
 Sum of electronic and thermal Free Energies=         -423.050260

                     E (Thermal)             CV                S
                      KCal/Mol        Cal/Mol-Kelvin    Cal/Mol-Kelvin
 Total                  105.855             28.791             82.254
 Electronic               0.000              0.000              0.000
 Translational            0.889              2.981             40.409
 Rotational               0.889              2.981             28.022
 Vibrational            104.078             22.830             13.824
 Vibration     1          0.606              1.943              3.309
 Vibration     2          0.652              1.794              1.875
 Vibration     3          0.669              1.743              1.650
 Vibration     4          0.712              1.618              1.265
 Vibration     5          0.768              1.466              0.955
 Vibration     6          0.806              1.367              0.804
 Vibration     7          0.884              1.186              0.590
 Vibration     8          0.971              1.006              0.429

 Optimization completed.
    -- Stationary point found.
 Normal termination of Gaussian 09 at Tue Jan 28 03:57:28 2020.
