 Gaussian 09, Revision D.01,
 Gaussian 09:  ES64L-G09RevD.01 24-Apr-2013

 -----------------------------
 # b3lyp 6-31G(2df,p) opt Freq
 -----------------------------

 -----
 titel
 -----
 Symbolic Z-matrix:
 Charge =  0 Multiplicity = 1

 SCF Done:  E(RB3LYP) =  -423.092909536     A.U. after   14 cycles
 SCF Done:  E(RB3LYP) =  -423.092909897     A.U. after    7 cycles
 SCF Done:  E(RB3LYP) =  -423.092910011     A.U. after    7 cycles
 SCF Done:  E(RB3LYP) =  -423.092910031     A.U. after    6 cycles
 SCF Done:  E(RB3LYP) =  -423.092910038     A.U. after    6 cycles
 Optimization completed.
    -- Stationary point found.
 Normal termination of Gaussian 09 at Tue Jan 28 02:53:51 2020.

 ----------------------------------------------------------------------
 #N Geom=AllCheck Guess=TCheck SCRF=Check GenChk RB3LYP/6-31G(2df,p) Fr
 eq
 ----------------------------------------------------------------------

 Structure from the checkpoint file:  "/scratch/puck/g09_b0c02d96-f4bb-4deb-a157-fb5cb74e3daa/Gau-87416.chk"
 -----
 titel
 -----
 Charge =  0 Multiplicity = 1

                         Standard orientation:
 ---------------------------------------------------------------------
 Center     Atomic      Atomic             Coordinates (Angstroms)
 Number     Number       Type             X           Y           Z
 ---------------------------------------------------------------------
      1          8           0       -2.509092    0.126784    0.928964
      2          6           0       -1.985826    0.015869   -0.383130
      3          6           0       -0.893884    1.098279   -0.565812
      4          6           0        0.166803    0.007541   -0.290263
      5          6           0       -0.893062   -1.085665   -0.522098
      6          6           0        1.636040   -0.062399   -0.761239
      7          6           0        2.017660    1.021179    0.274939
      8          6           0        1.097125   -0.025433    0.945507
      9          8           0        1.876766   -1.097447    0.276836
     10          1           0       -3.002199   -0.678096    1.119071
     11          1           0       -2.789694    0.001782   -1.130364
     12          1           0       -0.851836    1.476730   -1.591294
     13          1           0       -0.961602    1.938972    0.127861
     14          1           0       -0.849713   -1.503862   -1.532814
     15          1           0       -0.933041   -1.905298    0.199121
     16          1           0        2.039685   -0.247493   -1.758140
     17          1           0        3.057349    0.995847    0.602810
     18          1           0        1.636050    2.035054    0.132904
     19          1           0        0.844478   -0.164560    1.997016
 ---------------------------------------------------------------------

 SCF Done:  E(RB3LYP) =  -423.092910038     A.U. after    1 cycles

 The electronic state is 1-A.
 Alpha  occ. eigenvalues --  -19.13731 -19.12666 -10.24171 -10.24120 -10.23290
 Alpha  occ. eigenvalues --  -10.19942 -10.18884 -10.18124 -10.17765  -1.04974
 Alpha  occ. eigenvalues --   -1.01997  -0.83739  -0.76814  -0.67086  -0.64857
 Alpha  occ. eigenvalues --   -0.64685  -0.58307  -0.51997  -0.51653  -0.49905
 Alpha  occ. eigenvalues --   -0.47393  -0.44151  -0.41868  -0.40435  -0.38819
 Alpha  occ. eigenvalues --   -0.38211  -0.36882  -0.33231  -0.32428  -0.31081
 Alpha  occ. eigenvalues --   -0.30089  -0.29971  -0.26427  -0.23029
 Alpha virt. eigenvalues --    0.07172   0.09180   0.09432   0.11279   0.12506
 Alpha virt. eigenvalues --    0.13020   0.13830   0.14628   0.15090   0.16867
 Alpha virt. eigenvalues --    0.17950   0.18678   0.19056   0.19555   0.20769

 Mulliken charges:
               1
     1  O   -0.438808
     2  C    0.120140
     3  C   -0.334822
     4  C    0.455875
     5  C   -0.343889
     6  C   -0.046576
     7  C   -0.234295
     8  C   -0.011117
     9  O   -0.322136
    10  H    0.282181
    11  H    0.061563
    12  H    0.102283
    13  H    0.114612
    14  H    0.098983
    15  H    0.105573
    16  H    0.086832
    17  H    0.106283
    18  H    0.100657
    19  H    0.096659
 Sum of Mulliken charges =   0.00000

 Dipole moment (field-independent basis, Debye):
    X=             -1.1739    Y=              0.4423    Z=             -0.9827  Tot=              1.5936
 Quadrupole moment (field-independent basis, Debye-Ang):
   XX=            -53.7999   YY=            -54.2525   ZZ=            -50.6563
   XY=              7.5395   XZ=             -0.2941   YZ=             -1.0614

  Exact polarizability:  84.625   3.505  71.024   0.484  -0.015  70.869
 Approx polarizability: 109.375   0.131 110.239  -1.794  -0.746 110.952

                      1                      2                      3
                      A                      A                      A
 Frequencies --     57.0171               186.0299               220.3355
 Red. masses --      4.0064                 3.8621                 3.0125
 Frc consts  --      0.0077                 0.0787                 0.0862
 IR Inten    --      0.2122                 5.5560                 7.1107

                      4                      5                      6
                      A                      A                      A
 Frequencies --    295.3381               332.6471               371.9778
 Red. masses --      2.2103                 1.3106                 2.4119
 Frc consts  --      0.1136                 0.0854                 0.1966
 IR Inten    --     15.7635                86.1867                 3.7444

                      7                      8                      9
                      A                      A                      A
 Frequencies --    407.9780               481.1399               547.7760
 Red. masses --      2.1672                 2.5796                 2.6209
 Frc consts  --      0.2125                 0.3518                 0.4633
 IR Inten    --      8.5860                 4.0753                 3.6677

                     10                     11                     12
                      A                      A                      A
 Frequencies --    645.3173               724.0288               773.2916
 Red. masses --      3.6777                 3.9334                 2.6528
 Frc consts  --      0.9023                 1.2149                 0.9346
 IR Inten    --      8.4257                 8.3038                 3.3389

                     13                     14                     15
                      A                      A                      A
 Frequencies --    819.3174               844.1166               847.3749
 Red. masses --      2.0613                 3.0458                 2.3955
 Frc consts  --      0.8152                 1.2787                 1.0134
 IR Inten    --      2.0493                 6.8055                 0.5514

                     16                     17                     18
                      A                      A                      A
 Frequencies --    880.8662               902.7974               919.4279
 Red. masses --      2.6399                 3.3713                 2.6480
 Frc consts  --      1.2068                 1.6189                 1.3189
 IR Inten    --     25.3637                10.3990                 9.5915

                     19                     20                     21
                      A                      A                      A
 Frequencies --    948.9265               991.0385              1015.5291
 Red. masses --      2.0937                 2.2576                 1.7120
 Frc consts  --      1.1108                 1.3064                 1.0403
 IR Inten    --     10.5536                39.5585                 8.1475

                     22                     23                     24
                      A                      A                      A
 Frequencies --   1021.2692              1068.5661              1093.4252
 Red. masses --      1.0984                 1.0649                 3.9851
 Frc consts  --      0.6750                 0.7164                 2.8071
 IR Inten    --      0.6180                 2.0064                 2.6929

                     25                     26                     27
                      A                      A                      A
 Frequencies --   1123.5179              1138.0745              1158.8564
 Red. masses --      1.5121                 2.7478                 2.4034
 Frc consts  --      1.1246                 2.0969                 1.9017
 IR Inten    --     15.6212                 8.0496                 3.4220

                     28                     29                     30
                      A                      A                      A
 Frequencies --   1170.8004              1191.2558              1193.7667
 Red. masses --      1.3048                 1.8188                 1.6336
 Frc consts  --      1.0538                 1.5207                 1.3716
 IR Inten    --      0.2461                 1.7059                31.6691

                     31                     32                     33
                      A                      A                      A
 Frequencies --   1203.7644              1239.0408              1243.4523
 Red. masses --      1.5318                 1.4858                 1.4179
 Frc consts  --      1.3077                 1.3440                 1.2917
 IR Inten    --      0.6532                 2.4557                32.4580

                     34                     35                     36
                      A                      A                      A
 Frequencies --   1271.1026              1280.3472              1329.1500
 Red. masses --      1.5228                 1.5706                 1.4244
 Frc consts  --      1.4496                 1.5170                 1.4827
 IR Inten    --      2.7094                 6.6525                54.1887

                     37                     38                     39
                      A                      A                      A
 Frequencies --   1347.7345              1411.7979              1452.8502
 Red. masses --      3.4839                 1.4089                 1.0908
 Frc consts  --      3.7284                 1.6545                 1.3565
 IR Inten    --      1.0710                 8.9709                 5.2693

                     40                     41                     42
                      A                      A                      A
 Frequencies --   1475.3819              1485.5271              3009.8250
 Red. masses --      1.1452                 1.1709                 1.0853
 Frc consts  --      1.4687                 1.5224                 5.7927
 IR Inten    --      1.4447                 1.4243                73.0005

                     43                     44                     45
                      A                      A                      A
 Frequencies --   3052.1233              3061.4246              3066.8180
 Red. masses --      1.0597                 1.0612                 1.0559
 Frc consts  --      5.8160                 5.8597                 5.8512
 IR Inten    --     31.9816                21.0629                33.9585

                     46                     47                     48
                      A                      A                      A
 Frequencies --   3104.1929              3111.8357              3118.9041
 Red. masses --      1.0914                 1.1058                 1.0959
 Frc consts  --      6.1964                 6.3088                 6.2807
 IR Inten    --     66.5981                20.1392                11.7840

                     49                     50                     51
                      A                      A                      A
 Frequencies --   3120.1560              3148.9606              3810.1137
 Red. masses --      1.1051                 1.1101                 1.0660
 Frc consts  --      6.3386                 6.4854                 9.1177
 IR Inten    --     24.4280                25.8998                18.5943

 - Thermochemistry -
 -------------------
 Temperature   298.150 Kelvin.  Pressure   1.00000 Atm.
 Atom     1 has atomic number  8 and mass  15.99491

 Molecular mass:   126.06808 amu.
 Principal axes and moments of inertia in atomic units:
                           1         2         3
     Eigenvalues --   487.912311482.680241552.75197
           X            0.99960   0.02724   0.00782
           Y           -0.02727   0.99962   0.00356
           Z           -0.00772  -0.00377   0.99996
 This molecule is an asymmetric top.
 Rotational symmetry number  1.
 Warning -- assumption of classical behavior for rotation
           may cause significant error
 Rotational temperatures (Kelvin)      0.17752     0.05842     0.05578
 Rotational constants (GHZ):           3.69890     1.21722     1.16229
 Zero-point vibrational energy     416996.1 (Joules/Mol)
                                   99.66446 (Kcal/Mol)
 Warning -- explicit consideration of   9 degrees of freedom as
           vibrations may cause significant error
 Vibrational temperatures:     82.03   267.66   317.01   424.93   478.60
          (Kelvin)            535.19   586.99   692.25   788.13   928.47
                             1041.71  1112.59  1178.81  1214.49  1219.18
                             1267.37  1298.92  1322.85  1365.29  1425.88
                             1461.12  1469.38  1537.43  1573.19  1616.49
                             1637.43  1667.33  1684.52  1713.95  1717.56
                             1731.95  1782.70  1789.05  1828.83  1842.13
                             1912.35  1939.09  2031.26  2090.32  2122.74
                             2137.34  4330.46  4391.32  4404.70  4412.46
                             4466.24  4477.23  4487.40  4489.20  4530.65
                             5481.90

 Zero-point correction=                           0.158825 (Hartree/Particle)
 Thermal correction to Energy=                    0.166595
 Thermal correction to Enthalpy=                  0.167539
 Thermal correction to Gibbs Free Energy=         0.126403
 Sum of electronic and zero-point Energies=           -422.934085
 Sum of electronic and thermal Energies=              -422.926315
 Sum of electronic and thermal Enthalpies=            -422.925371
 Sum of electronic and thermal Free Energies=         -422.966508

                     E (Thermal)             CV                S
                      KCal/Mol        Cal/Mol-Kelvin    Cal/Mol-Kelvin
 Total                  104.540             31.021             86.580
 Electronic               0.000              0.000              0.000
 Translational            0.889              2.981             40.409
 Rotational               0.889              2.981             28.509
 Vibrational            102.763             25.060             17.662
 Vibration     1          0.596              1.975              4.558
 Vibration     2          0.632              1.859              2.267
 Vibration     3          0.647              1.810              1.956
 Vibration     4          0.690              1.682              1.443
 Vibration     5          0.715              1.610              1.247
 Vibration     6          0.744              1.530              1.072
 Vibration     7          0.773              1.453              0.934
 Vibration     8          0.837              1.292              0.707
 Vibration     9          0.903              1.145              0.549

 Optimization completed.
    -- Stationary point found.
 Normal termination of Gaussian 09 at Tue Jan 28 03:37:36 2020.
 Normal termination of Gaussian 09 at Tue Jan 28 02:34:51 2020.
