 Gaussian 09, Revision D.01,
 Gaussian 09:  ES64L-G09RevD.01 24-Apr-2013

 -----------------------------
 # b3lyp 6-31G(2df,p) opt Freq
 -----------------------------

 -----
 titel
 -----
 Symbolic Z-matrix:
 Charge =  0 Multiplicity = 1

 SCF Done:  E(RB3LYP) =  -423.192582721     A.U. after   14 cycles
 Optimization completed.
    -- Stationary point found.
 Normal termination of Gaussian 09 at Mon Jan 27 13:12:42 2020.

 ----------------------------------------------------------------------
 #N Geom=AllCheck Guess=TCheck SCRF=Check GenChk RB3LYP/6-31G(2df,p) Fr
 eq
 ----------------------------------------------------------------------

 Structure from the checkpoint file:  "/scratch/puck/g09_a8fb1e72-9f44-49bb-8cb3-b176ebb3294a/Gau-156234.chk"
 -----
 titel
 -----
 Charge =  0 Multiplicity = 1

                         Standard orientation:
 ---------------------------------------------------------------------
 Center     Atomic      Atomic             Coordinates (Angstroms)
 Number     Number       Type             X           Y           Z
 ---------------------------------------------------------------------
      1          8           0        2.302551   -1.585961   -0.396944
      2          6           0        2.420072   -0.389045   -0.432030
      3          6           0        1.458027    0.586590    0.264879
      4          8           0        1.688568    1.769665    0.154895
      5          6           0        0.281526   -0.003072    1.001758
      6          6           0       -0.854245   -0.355171    0.027540
      7          6           0       -1.589901    0.789948   -0.724735
      8          6           0       -2.920141    0.019403   -0.505113
      9          6           0       -2.223274   -0.788190    0.623327
     10          1           0        3.240691    0.131920   -0.969917
     11          1           0        0.600144   -0.912223    1.523040
     12          1           0       -0.065221    0.734118    1.731761
     13          1           0       -0.501945   -1.111114   -0.681286
     14          1           0       -1.560835    1.722495   -0.152520
     15          1           0       -1.284173    1.006487   -1.751055
     16          1           0       -3.803866    0.602220   -0.237051
     17          1           0       -3.168484   -0.613480   -1.361631
     18          1           0       -2.390387   -0.333792    1.605373
     19          1           0       -2.427254   -1.859038    0.695914
 ---------------------------------------------------------------------

 SCF Done:  E(RB3LYP) =  -423.192582721     A.U. after    1 cycles

 The electronic state is 1-A.
 Alpha  occ. eigenvalues --  -19.17193 -19.15805 -10.28844 -10.28429 -10.20141
 Alpha  occ. eigenvalues --  -10.19755 -10.18662 -10.18554 -10.18450  -1.07788
 Alpha  occ. eigenvalues --   -1.06010  -0.85326  -0.76768  -0.67944  -0.66264
 Alpha  occ. eigenvalues --   -0.63372  -0.55393  -0.54782  -0.49189  -0.48383
 Alpha  occ. eigenvalues --   -0.47557  -0.47335  -0.43843  -0.42825  -0.41377
 Alpha  occ. eigenvalues --   -0.39004  -0.38837  -0.36521  -0.35080  -0.32597
 Alpha  occ. eigenvalues --   -0.31592  -0.30791  -0.30627  -0.24726
 Alpha virt. eigenvalues --   -0.09430   0.03033   0.08657   0.09699   0.11274
 Alpha virt. eigenvalues --    0.12415   0.13067   0.15272   0.15623   0.17360
 Alpha virt. eigenvalues --    0.17885   0.18194   0.19681   0.21159   0.21623

 Mulliken charges:
               1
     1  O   -0.216529
     2  C    0.081079
     3  C    0.300646
     4  O   -0.281402
     5  C   -0.328975
     6  C    0.037813
     7  C   -0.219764
     8  C   -0.211028
     9  C   -0.232276
    10  H    0.107542
    11  H    0.128281
    12  H    0.117853
    13  H    0.094793
    14  H    0.110989
    15  H    0.100296
    16  H    0.100820
    17  H    0.105867
    18  H    0.101675
    19  H    0.102319
 Sum of Mulliken charges =   0.00000

 Dipole moment (field-independent basis, Debye):
    X=             -1.1925    Y=             -0.3371    Z=              0.2834  Tot=              1.2712
 Quadrupole moment (field-independent basis, Debye-Ang):
   XX=            -53.0516   YY=            -61.2461   ZZ=            -51.1333
   XY=              0.4007   XZ=             -0.0130   YZ=             -0.6039

  Exact polarizability:  88.531   2.941  77.834  -3.877  -1.149  64.737
 Approx polarizability: 107.862   6.026 135.499  -5.145  -0.499  95.877

                      1                      2                      3
                      A                      A                      A
 Frequencies --     32.5196                62.8615               113.8039
 Red. masses --      5.1643                 3.4097                 4.2700
 Frc consts  --      0.0032                 0.0079                 0.0326
 IR Inten    --      0.1055                 0.2033                 6.0658

                      4                      5                      6
                      A                      A                      A
 Frequencies --    124.0462               144.1359               252.3587
 Red. masses --      2.6761                 2.5399                 3.1141
 Frc consts  --      0.0243                 0.0311                 0.1168
 IR Inten    --     11.4984                 1.2359                11.8519

                      7                      8                      9
                      A                      A                      A
 Frequencies --    309.1268               396.7411               478.9212
 Red. masses --      3.7532                 2.0298                 4.1868
 Frc consts  --      0.2113                 0.1882                 0.5658
 IR Inten    --      1.6511                 1.3448                29.7319

                     10                     11                     12
                      A                      A                      A
 Frequencies --    536.3287               574.0168               647.6695
 Red. masses --      2.7850                 4.8480                 2.0529
 Frc consts  --      0.4720                 0.9412                 0.5074
 IR Inten    --      7.2964                10.4809                 0.9806

                     13                     14                     15
                      A                      A                      A
 Frequencies --    758.5104               781.6408               816.5455
 Red. masses --      1.5870                 1.3792                 2.7269
 Frc consts  --      0.5379                 0.4965                 1.0712
 IR Inten    --      1.2325                 3.7584                12.0574

                     16                     17                     18
                      A                      A                      A
 Frequencies --    886.5035               910.8652               933.1484
 Red. masses --      2.0146                 1.8753                 2.4114
 Frc consts  --      0.9328                 0.9167                 1.2372
 IR Inten    --      8.8022                 1.7977                 1.1012

                     19                     20                     21
                      A                      A                      A
 Frequencies --    959.0593               970.3867              1000.7396
 Red. masses --      1.5588                 2.3431                 1.4828
 Frc consts  --      0.8448                 1.3000                 0.8749
 IR Inten    --      2.7273                 1.1867                 1.9588

                     22                     23                     24
                      A                      A                      A
 Frequencies --   1064.6312              1088.4948              1105.6561
 Red. masses --      2.2719                 2.2088                 2.3104
 Frc consts  --      1.5172                 1.5419                 1.6641
 IR Inten    --      0.3613                 0.4233                11.5864

                     25                     26                     27
                      A                      A                      A
 Frequencies --   1188.6671              1203.1189              1239.1922
 Red. masses --      1.8177                 1.4583                 1.6312
 Frc consts  --      1.5132                 1.2437                 1.4758
 IR Inten    --      1.6304                 2.2874                 7.4822

                     28                     29                     30
                      A                      A                      A
 Frequencies --   1257.0373              1263.7662              1268.5713
 Red. masses --      1.2362                 1.2616                 1.3764
 Frc consts  --      1.1509                 1.1872                 1.3051
 IR Inten    --      0.3949                 2.4240                 5.7136

                     31                     32                     33
                      A                      A                      A
 Frequencies --   1279.3046              1295.2138              1322.4546
 Red. masses --      1.5596                 1.3531                 1.6436
 Frc consts  --      1.5039                 1.3374                 1.6936
 IR Inten    --     21.5974                 1.7229                 9.5645

                     34                     35                     36
                      A                      A                      A
 Frequencies --   1361.8633              1368.8944              1463.5784
 Red. masses --      1.2023                 1.3629                 1.1136
 Frc consts  --      1.3138                 1.5047                 1.4054
 IR Inten    --      6.1919                 6.9811                 7.1321

                     37                     38                     39
                      A                      A                      A
 Frequencies --   1480.3432              1486.3509              1511.0823
 Red. masses --      1.0900                 1.0836                 1.1362
 Frc consts  --      1.4074                 1.4104                 1.5285
 IR Inten    --      0.2626                 3.0439                 1.2965

                     40                     41                     42
                      A                      A                      A
 Frequencies --   1797.2604              1821.1804              2921.4345
 Red. masses --     11.2509                10.9934                 1.0878
 Frc consts  --     21.4120                21.4826                 5.4701
 IR Inten    --     92.9792                92.9108               102.9986

                     43                     44                     45
                      A                      A                      A
 Frequencies --   3046.0341              3049.8568              3054.5652
 Red. masses --      1.0571                 1.0608                 1.0651
 Frc consts  --      5.7788                 5.8136                 5.8554
 IR Inten    --      3.2072                42.7564                18.3216

                     46                     47                     48
                      A                      A                      A
 Frequencies --   3060.1281              3062.1606              3100.7439
 Red. masses --      1.0746                 1.0629                 1.1050
 Frc consts  --      5.9288                 5.8721                 6.2598
 IR Inten    --     15.7371                28.1964                11.7945

                     49                     50                     51
                      A                      A                      A
 Frequencies --   3106.5185              3108.1008              3122.6874
 Red. masses --      1.1068                 1.1055                 1.1070
 Frc consts  --      6.2929                 6.2921                 6.3602
 IR Inten    --     20.6305                 4.6019                63.2454

 - Thermochemistry -
 -------------------
 Temperature   298.150 Kelvin.  Pressure   1.00000 Atm.
 Atom     1 has atomic number  8 and mass  15.99491

 Molecular mass:   126.06808 amu.
 Principal axes and moments of inertia in atomic units:
                           1         2         3
     Eigenvalues --   609.506431876.506352151.23738
           X            0.99999   0.00400   0.00020
           Y           -0.00399   0.99941  -0.03417
           Z           -0.00034   0.03417   0.99942
 This molecule is an asymmetric top.
 Rotational symmetry number  1.
 Warning -- assumption of classical behavior for rotation
           may cause significant error
 Rotational temperatures (Kelvin)      0.14210     0.04616     0.04026
 Rotational constants (GHZ):           2.96099     0.96176     0.83893
 Zero-point vibrational energy     413841.0 (Joules/Mol)
                                   98.91038 (Kcal/Mol)
 Warning -- explicit consideration of  11 degrees of freedom as
           vibrations may cause significant error
 Vibrational temperatures:     46.79    90.44   163.74   178.47   207.38
          (Kelvin)            363.09   444.76   570.82   689.06   771.66
                              825.88   931.85  1091.33  1124.61  1174.83
                             1275.48  1310.53  1342.59  1379.87  1396.17
                             1439.84  1531.76  1566.10  1590.79  1710.22
                             1731.02  1782.92  1808.59  1818.28  1825.19
                             1840.63  1863.52  1902.71  1959.42  1969.53
                             2105.76  2129.88  2138.52  2174.11  2585.85
                             2620.27  4203.29  4382.56  4388.06  4394.83
                             4402.84  4405.76  4461.27  4469.58  4471.86
                             4492.85

 Zero-point correction=                           0.157624 (Hartree/Particle)
 Thermal correction to Energy=                    0.166909
 Thermal correction to Enthalpy=                  0.167854
 Thermal correction to Gibbs Free Energy=         0.121814
 Sum of electronic and zero-point Energies=           -423.034959
 Sum of electronic and thermal Energies=              -423.025673
 Sum of electronic and thermal Enthalpies=            -423.024729
 Sum of electronic and thermal Free Energies=         -423.070769

                     E (Thermal)             CV                S
                      KCal/Mol        Cal/Mol-Kelvin    Cal/Mol-Kelvin
 Total                  104.737             32.795             96.899
 Electronic               0.000              0.000              0.000
 Translational            0.889              2.981             40.409
 Rotational               0.889              2.981             29.288
 Vibrational            102.960             26.834             27.202
 Vibration     1          0.594              1.983              5.669
 Vibration     2          0.597              1.972              4.365
 Vibration     3          0.607              1.938              3.203
 Vibration     4          0.610              1.929              3.036
 Vibration     5          0.616              1.909              2.748
 Vibration     6          0.664              1.759              1.714
 Vibration     7          0.698              1.656              1.367
 Vibration     8          0.763              1.477              0.975
 Vibration     9          0.835              1.297              0.713
 Vibration    10          0.891              1.170              0.573
 Vibration    11          0.930              1.087              0.497

 Optimization completed.
    -- Stationary point found.
 Normal termination of Gaussian 09 at Mon Jan 27 13:51:32 2020.
