 Gaussian 09, Revision D.01,
 Gaussian 09:  ES64L-G09RevD.01 24-Apr-2013

 -----------------------------
 # b3lyp 6-31G(2df,p) opt Freq
 -----------------------------

 -----
 titel
 -----
 Symbolic Z-matrix:
 Charge =  0 Multiplicity = 1

 SCF Done:  E(RB3LYP) =  -423.114596440     A.U. after   13 cycles
 Optimization completed.
    -- Stationary point found.
 Normal termination of Gaussian 09 at Tue Jan 28 03:17:37 2020.

 ----------------------------------------------------------------------
 #N Geom=AllCheck Guess=TCheck SCRF=Check GenChk RB3LYP/6-31G(2df,p) Fr
 eq
 ----------------------------------------------------------------------

 Structure from the checkpoint file:  "/scratch/puck/g09_8e9de948-d68f-43f7-a56f-94a7fb93a938/Gau-45688.chk"
 -----
 titel
 -----
 Charge =  0 Multiplicity = 1

                         Standard orientation:
 ---------------------------------------------------------------------
 Center     Atomic      Atomic             Coordinates (Angstroms)
 Number     Number       Type             X           Y           Z
 ---------------------------------------------------------------------
      1          8           0       -2.189207   -1.079612    0.196191
      2          6           0       -1.149525   -0.471175   -0.548498
      3          6           0       -1.309282    1.103237   -0.480219
      4          6           0        0.025638    1.537328    0.224247
      5          6           0        0.086246    0.457925    1.326296
      6          6           0        0.241244   -0.468491    0.066912
      7          8           0        1.347577   -1.369867    0.050167
      8          6           0        2.212684   -0.207187   -0.206587
      9          6           0        0.991451    0.670186   -0.631346
     10          1           0       -2.035097   -2.030042    0.198021
     11          1           0       -1.139138   -0.839566   -1.582968
     12          1           0       -1.423363    1.544704   -1.473507
     13          1           0       -2.187643    1.351486    0.120266
     14          1           0        0.141277    2.603587    0.422881
     15          1           0        0.987554    0.483513    1.937154
     16          1           0       -0.798177    0.314769    1.947745
     17          1           0        2.767060    0.087538    0.689347
     18          1           0        2.911959   -0.422979   -1.017850
     19          1           0        0.917877    0.771887   -1.716782
 ---------------------------------------------------------------------

 SCF Done:  E(RB3LYP) =  -423.114596440     A.U. after    1 cycles

 The electronic state is 1-A.
 Alpha  occ. eigenvalues --  -19.13794 -19.13777 -10.23934 -10.23808 -10.23440
 Alpha  occ. eigenvalues --  -10.20208 -10.18741 -10.18643 -10.17648  -1.04383
 Alpha  occ. eigenvalues --   -1.01914  -0.87768  -0.72957  -0.69836  -0.67515
 Alpha  occ. eigenvalues --   -0.63407  -0.55718  -0.52948  -0.51536  -0.50072
 Alpha  occ. eigenvalues --   -0.48602  -0.45907  -0.41257  -0.40214  -0.39382
 Alpha  occ. eigenvalues --   -0.38328  -0.35504  -0.35251  -0.33930  -0.31619
 Alpha  occ. eigenvalues --   -0.30430  -0.28932  -0.25479  -0.24046
 Alpha virt. eigenvalues --    0.05877   0.08615   0.10952   0.11120   0.11564
 Alpha virt. eigenvalues --    0.13742   0.13785   0.16294   0.16374   0.17448
 Alpha virt. eigenvalues --    0.17735   0.18810   0.19922   0.20714   0.21711

 Mulliken charges:
               1
     1  O   -0.433055
     2  C    0.030039
     3  C   -0.226590
     4  C   -0.071546
     5  C   -0.293897
     6  C    0.444632
     7  O   -0.367793
     8  C   -0.164012
     9  C   -0.077402
    10  H    0.286154
    11  H    0.071755
    12  H    0.101653
    13  H    0.118240
    14  H    0.064067
    15  H    0.102825
    16  H    0.108968
    17  H    0.113452
    18  H    0.115697
    19  H    0.076814
 Sum of Mulliken charges =   0.00000

 Dipole moment (field-independent basis, Debye):
    X=              0.5814    Y=              0.8065    Z=             -0.7311  Tot=              1.2341
 Quadrupole moment (field-independent basis, Debye-Ang):
   XX=            -54.7502   YY=            -52.4584   ZZ=            -52.0133
   XY=              3.0897   XZ=              0.4098   YZ=              0.4757

  Exact polarizability:  83.255  -1.723  70.068  -1.061   0.324  68.900
 Approx polarizability: 115.650  -2.346 108.494  -3.604  -0.807 105.057

                      1                      2                      3
                      A                      A                      A
 Frequencies --    179.5900               248.6669               298.5771
 Red. masses --      3.2804                 3.8047                 1.6151
 Frc consts  --      0.0623                 0.1386                 0.0848
 IR Inten    --      1.4726                12.2171                29.2381

                      4                      5                      6
                      A                      A                      A
 Frequencies --    330.4849               366.4982               451.3499
 Red. masses --      1.5192                 3.7381                 2.5459
 Frc consts  --      0.0978                 0.2958                 0.3056
 IR Inten    --     71.6457                 7.4141                 4.9373

                      7                      8                      9
                      A                      A                      A
 Frequencies --    470.5165               498.2127               568.7085
 Red. masses --      2.2882                 3.5257                 3.8485
 Frc consts  --      0.2985                 0.5156                 0.7334
 IR Inten    --      2.0314                 1.8709                 5.9216

                     10                     11                     12
                      A                      A                      A
 Frequencies --    684.5528               755.3025               778.7744
 Red. masses --      2.6875                 3.9573                 2.8163
 Frc consts  --      0.7420                 1.3301                 1.0064
 IR Inten    --      5.4552                 7.9441                 2.6884

                     13                     14                     15
                      A                      A                      A
 Frequencies --    820.2972               850.0750               874.7482
 Red. masses --      2.9980                 3.1430                 2.1256
 Frc consts  --      1.1886                 1.3381                 0.9583
 IR Inten    --      3.2887                 4.9471                 4.6504

                     16                     17                     18
                      A                      A                      A
 Frequencies --    915.3772               929.3214               939.5723
 Red. masses --      6.1808                 2.3731                 1.9742
 Frc consts  --      3.0514                 1.2076                 1.0269
 IR Inten    --     51.8911                21.7918                 2.4869

                     19                     20                     21
                      A                      A                      A
 Frequencies --    984.8961              1014.9164              1040.4644
 Red. masses --      1.7549                 2.0994                 2.2346
 Frc consts  --      1.0029                 1.2741                 1.4253
 IR Inten    --      2.3987                29.4910                 2.9976

                     22                     23                     24
                      A                      A                      A
 Frequencies --   1052.9234              1079.7208              1089.1174
 Red. masses --      1.6873                 2.0500                 1.7920
 Frc consts  --      1.1021                 1.4081                 1.2524
 IR Inten    --     11.3806                37.4692                26.5767

                     25                     26                     27
                      A                      A                      A
 Frequencies --   1098.1394              1123.0143              1156.9664
 Red. masses --      2.0221                 1.7823                 1.1802
 Frc consts  --      1.4367                 1.3243                 0.9308
 IR Inten    --      2.9818                19.8473                 1.2264

                     28                     29                     30
                      A                      A                      A
 Frequencies --   1180.3881              1205.9983              1212.5384
 Red. masses --      1.6217                 1.6790                 1.6187
 Frc consts  --      1.3313                 1.4388                 1.4022
 IR Inten    --     16.0621                20.8462                43.4464

                     31                     32                     33
                      A                      A                      A
 Frequencies --   1245.2856              1259.5384              1271.4712
 Red. masses --      1.2842                 1.5892                 1.8306
 Frc consts  --      1.1733                 1.4855                 1.7436
 IR Inten    --     24.1252                10.9268                 9.0892

                     34                     35                     36
                      A                      A                      A
 Frequencies --   1302.3939              1321.0307              1345.9793
 Red. masses --      1.4471                 1.6254                 1.7749
 Frc consts  --      1.4462                 1.6713                 1.8945
 IR Inten    --     19.9647                 5.4593                34.9766

                     37                     38                     39
                      A                      A                      A
 Frequencies --   1358.0325              1408.2156              1478.3056
 Red. masses --      1.4304                 1.3304                 1.0905
 Frc consts  --      1.5543                 1.5544                 1.4041
 IR Inten    --      2.8582                 8.8332                 1.8500

                     40                     41                     42
                      A                      A                      A
 Frequencies --   1499.2598              1520.3102              3013.0087
 Red. masses --      1.1326                 1.1019                 1.0850
 Frc consts  --      1.5000                 1.5006                 5.8036
 IR Inten    --      3.8438                 3.9406                42.4280

                     43                     44                     45
                      A                      A                      A
 Frequencies --   3048.7050              3064.6484              3073.9957
 Red. masses --      1.0567                 1.0607                 1.0858
 Frc consts  --      5.7867                 5.8693                 6.0454
 IR Inten    --     52.5226                21.1592                28.2845

                     46                     47                     48
                      A                      A                      A
 Frequencies --   3090.7438              3104.1753              3109.2351
 Red. masses --      1.0613                 1.0862                 1.1090
 Frc consts  --      5.9732                 6.1669                 6.3167
 IR Inten    --     23.6520                53.9981                38.0967

                     49                     50                     51
                      A                      A                      A
 Frequencies --   3121.1320              3156.0904              3814.0931
 Red. masses --      1.1068                 1.1098                 1.0661
 Frc consts  --      6.3523                 6.5132                 9.1378
 IR Inten    --     21.9570                18.0525                27.1235

 - Thermochemistry -
 -------------------
 Temperature   298.150 Kelvin.  Pressure   1.00000 Atm.
 Atom     1 has atomic number  8 and mass  15.99491

 Molecular mass:   126.06808 amu.
 Principal axes and moments of inertia in atomic units:
                           1         2         3
     Eigenvalues --   619.316331056.008111310.15380
           X            0.99998   0.00198   0.00523
           Y           -0.00202   0.99996   0.00858
           Z           -0.00521  -0.00859   0.99995
 This molecule is an asymmetric top.
 Rotational symmetry number  1.
 Warning -- assumption of classical behavior for rotation
           may cause significant error
 Rotational temperatures (Kelvin)      0.13985     0.08202     0.06611
 Rotational constants (GHZ):           2.91409     1.70902     1.37750
 Zero-point vibrational energy     423510.1 (Joules/Mol)
                                  101.22134 (Kcal/Mol)
 Warning -- explicit consideration of   9 degrees of freedom as
           vibrations may cause significant error
 Vibrational temperatures:    258.39   357.78   429.59   475.49   527.31
          (Kelvin)            649.39   676.97   716.82   818.24   984.92
                             1086.71  1120.48  1180.22  1223.07  1258.57
                             1317.02  1337.08  1351.83  1417.04  1460.24
                             1496.99  1514.92  1553.48  1567.00  1579.98
                             1615.77  1664.61  1698.31  1735.16  1744.57
                             1791.69  1812.19  1829.36  1873.85  1900.67
                             1936.56  1953.90  2026.11  2126.95  2157.10
                             2187.38  4335.04  4386.40  4409.34  4422.79
                             4446.89  4466.21  4473.49  4490.61  4540.90
                             5487.62

 Zero-point correction=                           0.161306 (Hartree/Particle)
 Thermal correction to Energy=                    0.168329
 Thermal correction to Enthalpy=                  0.169274
 Thermal correction to Gibbs Free Energy=         0.130361
 Sum of electronic and zero-point Energies=           -422.953290
 Sum of electronic and thermal Energies=              -422.946267
 Sum of electronic and thermal Enthalpies=            -422.945323
 Sum of electronic and thermal Free Energies=         -422.984235

                     E (Thermal)             CV                S
                      KCal/Mol        Cal/Mol-Kelvin    Cal/Mol-Kelvin
 Total                  105.628             29.605             81.898
 Electronic               0.000              0.000              0.000
 Translational            0.889              2.981             40.409
 Rotational               0.889              2.981             28.240
 Vibrational            103.851             23.643             13.250
 Vibration     1          0.629              1.867              2.333
 Vibration     2          0.662              1.765              1.740
 Vibration     3          0.692              1.676              1.425
 Vibration     4          0.713              1.615              1.258
 Vibration     5          0.739              1.541              1.094
 Vibration     6          0.810              1.358              0.792
 Vibration     7          0.828              1.315              0.736
 Vibration     8          0.854              1.254              0.663
 Vibration     9          0.925              1.099              0.507

 Optimization completed.
    -- Stationary point found.
 Normal termination of Gaussian 09 at Tue Jan 28 05:19:34 2020.
