 Gaussian 09, Revision D.01,
 Gaussian 09:  ES64L-G09RevD.01 24-Apr-2013

 -----------------------------
 # b3lyp 6-31G(2df,p) opt Freq
 -----------------------------

 -----
 titel
 -----
 Symbolic Z-matrix:
 Charge =  0 Multiplicity = 1

 SCF Done:  E(RB3LYP) =  -423.201776110     A.U. after   13 cycles
 Optimization completed.
    -- Stationary point found.
 Normal termination of Gaussian 09 at Mon Jan 27 18:10:31 2020.

 ----------------------------------------------------------------------
 #N Geom=AllCheck Guess=TCheck SCRF=Check GenChk RB3LYP/6-31G(2df,p) Fr
 eq
 ----------------------------------------------------------------------

 Structure from the checkpoint file:  "/scratch/puck/g09_3e63da45-6fe8-4ea2-b6c3-be7d6d1289f3/Gau-65363.chk"
 -----
 titel
 -----
 Charge =  0 Multiplicity = 1

                         Standard orientation:
 ---------------------------------------------------------------------
 Center     Atomic      Atomic             Coordinates (Angstroms)
 Number     Number       Type             X           Y           Z
 ---------------------------------------------------------------------
      1          6           0       -2.451133   -0.047945   -0.309331
      2          6           0       -0.967755    0.036236   -0.076089
      3          6           0       -0.208832    1.326315   -0.473044
      4          6           0        1.179349    1.021849    0.134738
      5          6           0        1.927707   -0.029103   -0.724314
      6          6           0        1.001612   -1.092727   -0.098522
      7          8           0       -0.297107   -1.069756   -0.698648
      8          6           0        0.768756   -0.137239    1.125952
      9          8           0       -0.625939   -0.094665    1.301938
     10          1           0       -2.829737   -1.001773    0.064501
     11          1           0       -2.960857    0.768289    0.208039
     12          1           0       -2.665959    0.021991   -1.378273
     13          1           0       -0.181506    1.477895   -1.554692
     14          1           0       -0.679947    2.193058   -0.001247
     15          1           0        1.718163    1.894799    0.501878
     16          1           0        1.891659    0.077061   -1.811264
     17          1           0        2.965078   -0.163990   -0.401984
     18          1           0        1.327776   -2.127969    0.009425
     19          1           0        1.301474   -0.288317    2.060955
 ---------------------------------------------------------------------

 SCF Done:  E(RB3LYP) =  -423.201776110     A.U. after    1 cycles

 The electronic state is 1-A.
 Alpha  occ. eigenvalues --  -19.14410 -19.13815 -10.27723 -10.23115 -10.22858
 Alpha  occ. eigenvalues --  -10.19162 -10.18206 -10.18122 -10.17805  -1.09368
 Alpha  occ. eigenvalues --   -0.98991  -0.83661  -0.77879  -0.70764  -0.64904
 Alpha  occ. eigenvalues --   -0.61810  -0.58140  -0.55976  -0.51789  -0.47842
 Alpha  occ. eigenvalues --   -0.45336  -0.44418  -0.42764  -0.41758  -0.39185
 Alpha  occ. eigenvalues --   -0.38275  -0.37714  -0.37027  -0.34716  -0.32382
 Alpha  occ. eigenvalues --   -0.31406  -0.29753  -0.26350  -0.25038
 Alpha virt. eigenvalues --    0.08583   0.10732   0.11504   0.12465   0.13583
 Alpha virt. eigenvalues --    0.14547   0.14958   0.16049   0.16772   0.17222
 Alpha virt. eigenvalues --    0.18526   0.19050   0.20540   0.20864   0.22267

 Mulliken charges:
               1
     1  C   -0.477461
     2  C    0.454538
     3  C   -0.251378
     4  C   -0.088486
     5  C   -0.249661
     6  C    0.071574
     7  O   -0.306290
     8  C    0.071912
     9  O   -0.267855
    10  H    0.138390
    11  H    0.128490
    12  H    0.130987
    13  H    0.103969
    14  H    0.104145
    15  H    0.070039
    16  H    0.103054
    17  H    0.099065
    18  H    0.077562
    19  H    0.087405
 Sum of Mulliken charges =   0.00000

 Dipole moment (field-independent basis, Debye):
    X=              0.9819    Y=              1.0444    Z=             -0.1799  Tot=              1.4447
 Quadrupole moment (field-independent basis, Debye-Ang):
   XX=            -49.3628   YY=            -53.2161   ZZ=            -54.6787
   XY=             -1.7804   XZ=              2.3938   YZ=             -1.2786

  Exact polarizability:  83.905  -2.317  69.477   1.306  -0.913  65.957
 Approx polarizability: 111.805  -2.456 103.284   0.947   0.712 104.280

                      1                      2                      3
                      A                      A                      A
 Frequencies --    177.6715               249.9849               282.6911
 Red. masses --      1.0260                 2.4707                 2.6059
 Frc consts  --      0.0191                 0.0910                 0.1227
 IR Inten    --      0.0197                 2.3483                 2.1298

                      4                      5                      6
                      A                      A                      A
 Frequencies --    378.9782               395.2314               470.7147
 Red. masses --      2.7400                 2.2558                 2.1545
 Frc consts  --      0.2319                 0.2076                 0.2813
 IR Inten    --      1.8405                 1.8913                 0.5372

                      7                      8                      9
                      A                      A                      A
 Frequencies --    592.2743               602.9626               653.9692
 Red. masses --      4.0081                 6.2710                 5.2912
 Frc consts  --      0.8284                 1.3433                 1.3333
 IR Inten    --      1.5199                 8.0776                 1.9145

                     10                     11                     12
                      A                      A                      A
 Frequencies --    683.6113               791.3200               798.8324
 Red. masses --      4.5538                 2.3278                 3.9543
 Frc consts  --      1.2538                 0.8588                 1.4867
 IR Inten    --      2.2835                11.0172                14.5649

                     13                     14                     15
                      A                      A                      A
 Frequencies --    835.2668               848.0522               853.3066
 Red. masses --      3.5793                 2.2234                 2.1566
 Frc consts  --      1.4713                 0.9421                 0.9252
 IR Inten    --     20.6153                 6.0593                 6.8416

                     16                     17                     18
                      A                      A                      A
 Frequencies --    892.9980               909.1800               948.1220
 Red. masses --      3.0028                 1.9663                 1.7355
 Frc consts  --      1.4108                 0.9576                 0.9192
 IR Inten    --      2.4491                15.1744                13.1889

                     19                     20                     21
                      A                      A                      A
 Frequencies --    967.6129               983.6630              1035.9622
 Red. masses --      2.7612                 2.2323                 2.4049
 Frc consts  --      1.5232                 1.2726                 1.5207
 IR Inten    --      3.2367                18.3053                 3.8671

                     22                     23                     24
                      A                      A                      A
 Frequencies --   1052.7188              1073.6031              1092.0123
 Red. masses --      1.6168                 3.2386                 1.6163
 Frc consts  --      1.0557                 2.1993                 1.1356
 IR Inten    --     29.8909                71.4328                20.4289

                     25                     26                     27
                      A                      A                      A
 Frequencies --   1129.1857              1147.7962              1181.7071
 Red. masses --      1.7018                 1.6387                 1.9665
 Frc consts  --      1.2785                 1.2720                 1.6179
 IR Inten    --     11.9068                 6.5641                33.1431

                     28                     29                     30
                      A                      A                      A
 Frequencies --   1188.7168              1204.4117              1237.4670
 Red. masses --      1.5093                 1.7388                 1.4624
 Frc consts  --      1.2566                 1.4861                 1.3194
 IR Inten    --      8.5495                12.1553                 6.1200

                     31                     32                     33
                      A                      A                      A
 Frequencies --   1263.5513              1274.3771              1312.5436
 Red. masses --      1.7528                 1.7539                 1.5540
 Frc consts  --      1.6488                 1.6782                 1.5773
 IR Inten    --      6.4262                 6.5814                14.5611

                     34                     35                     36
                      A                      A                      A
 Frequencies --   1324.0729              1349.9685              1354.9485
 Red. masses --      1.5761                 1.5709                 1.7622
 Frc consts  --      1.6280                 1.6867                 1.9062
 IR Inten    --     11.7952                22.7269                13.3627

                     37                     38                     39
                      A                      A                      A
 Frequencies --   1422.7812              1471.7631              1479.9669
 Red. masses --      1.7493                 1.1106                 1.0576
 Frc consts  --      2.0864                 1.4173                 1.3648
 IR Inten    --     40.0663                 0.5278                 0.6888

                     40                     41                     42
                      A                      A                      A
 Frequencies --   1486.3003              1488.1441              3051.3837
 Red. masses --      1.1042                 1.0527                 1.0586
 Frc consts  --      1.4371                 1.3736                 5.8073
 IR Inten    --      6.9980                 2.1179                29.0332

                     43                     44                     45
                      A                      A                      A
 Frequencies --   3057.1201              3061.9695              3102.6683
 Red. masses --      1.0393                 1.0549                 1.0903
 Frc consts  --      5.7231                 5.8273                 6.1841
 IR Inten    --      4.3554                29.3951                53.5247

                     46                     47                     48
                      A                      A                      A
 Frequencies --   3109.9014              3111.3288              3117.3408
 Red. masses --      1.0970                 1.1025                 1.1031
 Frc consts  --      6.2508                 6.2879                 6.3160
 IR Inten    --     24.4642                16.1905                26.8941

                     49                     50                     51
                      A                      A                      A
 Frequencies --   3136.4924              3140.0246              3162.7486
 Red. masses --      1.1019                 1.1025                 1.0922
 Frc consts  --      6.3869                 6.4049                 6.4369
 IR Inten    --     13.8046                10.7450                25.4854

 - Thermochemistry -
 -------------------
 Temperature   298.150 Kelvin.  Pressure   1.00000 Atm.
 Atom     1 has atomic number  6 and mass  12.00000

 Molecular mass:   126.06808 amu.
 Principal axes and moments of inertia in atomic units:
                           1         2         3
     Eigenvalues --   559.103301028.867691069.30479
           X            0.99983  -0.00857   0.01627
           Y            0.01140   0.98323  -0.18204
           Z           -0.01444   0.18219   0.98316
 This molecule is an asymmetric top.
 Rotational symmetry number  1.
 Warning -- assumption of classical behavior for rotation
           may cause significant error
 Rotational temperatures (Kelvin)      0.15492     0.08418     0.08100
 Rotational constants (GHZ):           3.22792     1.75410     1.68777
 Zero-point vibrational energy     424312.0 (Joules/Mol)
                                  101.41299 (Kcal/Mol)
 Warning -- explicit consideration of   8 degrees of freedom as
           vibrations may cause significant error
 Vibrational temperatures:    255.63   359.67   406.73   545.26   568.65
          (Kelvin)            677.25   852.15   867.53   940.91   983.56
                             1138.53  1149.34  1201.76  1220.16  1227.72
                             1284.82  1308.11  1364.13  1392.18  1415.27
                             1490.52  1514.63  1544.67  1571.16  1624.64
                             1651.42  1700.21  1710.30  1732.88  1780.44
                             1817.97  1833.54  1888.46  1905.04  1942.30
                             1949.47  2047.06  2117.54  2129.34  2138.45
                             2141.10  4390.26  4398.51  4405.49  4464.04
                             4474.45  4476.50  4485.15  4512.71  4517.79
                             4550.48

 Zero-point correction=                           0.161612 (Hartree/Particle)
 Thermal correction to Energy=                    0.168345
 Thermal correction to Enthalpy=                  0.169289
 Thermal correction to Gibbs Free Energy=         0.130990
 Sum of electronic and zero-point Energies=           -423.040164
 Sum of electronic and thermal Energies=              -423.033432
 Sum of electronic and thermal Enthalpies=            -423.032487
 Sum of electronic and thermal Free Energies=         -423.070786

                     E (Thermal)             CV                S
                      KCal/Mol        Cal/Mol-Kelvin    Cal/Mol-Kelvin
 Total                  105.638             28.601             80.606
 Electronic               0.000              0.000              0.000
 Translational            0.889              2.981             40.409
 Rotational               0.889              2.981             27.911
 Vibrational            103.860             22.639             12.287
 Vibration     1          0.628              1.870              2.353
 Vibration     2          0.663              1.763              1.731
 Vibration     3          0.682              1.706              1.517
 Vibration     4          0.749              1.515              1.043
 Vibration     5          0.762              1.480              0.980
 Vibration     6          0.828              1.315              0.736
 Vibration     7          0.950              1.048              0.463
 Vibration     8          0.961              1.026              0.445

 Optimization completed.
    -- Stationary point found.
 Normal termination of Gaussian 09 at Mon Jan 27 18:55:19 2020.
