 Gaussian 09, Revision D.01,
 Gaussian 09:  ES64L-G09RevD.01 24-Apr-2013

 -----------------------------
 # b3lyp 6-31G(2df,p) opt Freq
 -----------------------------

 -----
 titel
 -----
 Symbolic Z-matrix:
 Charge =  0 Multiplicity = 1

 SCF Done:  E(RB3LYP) =  -423.225598108     A.U. after   14 cycles
 Optimization completed.
    -- Stationary point found.
 Normal termination of Gaussian 09 at Mon Jan 27 22:03:27 2020.

 ----------------------------------------------------------------------
 #N Geom=AllCheck Guess=TCheck SCRF=Check GenChk RB3LYP/6-31G(2df,p) Fr
 eq
 ----------------------------------------------------------------------

 Structure from the checkpoint file:  "/scratch/puck/g09_d6560aeb-4046-4462-9691-68873bf82446/Gau-192810.chk"
 -----
 titel
 -----
 Charge =  0 Multiplicity = 1

                         Standard orientation:
 ---------------------------------------------------------------------
 Center     Atomic      Atomic             Coordinates (Angstroms)
 Number     Number       Type             X           Y           Z
 ---------------------------------------------------------------------
      1          6           0       -2.915351   -0.398956   -0.474959
      2          6           0       -1.512677   -0.314466    0.055531
      3          6           0       -0.642292   -1.321725   -0.005794
      4          6           0        0.754442   -1.232764    0.560492
      5          6           0        1.704274   -0.217003   -0.071823
      6          8           0        2.812665   -0.521454   -0.420979
      7          8           0        1.353823    1.092068   -0.138057
      8          6           0        0.038473    1.668133   -0.168381
      9          6           0       -1.063129    1.002352    0.654989
     10          1           0       -3.647566   -0.206559    0.320074
     11          1           0       -3.095070    0.357606   -1.250064
     12          1           0       -3.127550   -1.381598   -0.903839
     13          1           0       -0.929302   -2.267180   -0.457076
     14          1           0        0.707456   -0.984405    1.631662
     15          1           0        1.270447   -2.189442    0.481093
     16          1           0        0.198973    2.691327    0.184528
     17          1           0       -0.274216    1.721126   -1.218946
     18          1           0       -0.719095    0.870580    1.689828
     19          1           0       -1.898420    1.710213    0.694694
 ---------------------------------------------------------------------

 SCF Done:  E(RB3LYP) =  -423.225598108     A.U. after    1 cycles

 The electronic state is 1-A.
 Alpha  occ. eigenvalues --  -19.17077 -19.11263 -10.30272 -10.25236 -10.20339
 Alpha  occ. eigenvalues --  -10.20122 -10.20074 -10.19273 -10.18973  -1.08611
 Alpha  occ. eigenvalues --   -1.00648  -0.83763  -0.77856  -0.74283  -0.67252
 Alpha  occ. eigenvalues --   -0.66799  -0.55043  -0.54206  -0.49910  -0.48750
 Alpha  occ. eigenvalues --   -0.48216  -0.44495  -0.43352  -0.42454  -0.41443
 Alpha  occ. eigenvalues --   -0.40600  -0.39174  -0.38180  -0.36960  -0.33640
 Alpha  occ. eigenvalues --   -0.32404  -0.29035  -0.27185  -0.23731
 Alpha virt. eigenvalues --    0.00268   0.02027   0.08024   0.10027   0.11066
 Alpha virt. eigenvalues --    0.11555   0.12802   0.13695   0.15232   0.16369
 Alpha virt. eigenvalues --    0.16724   0.19554   0.20112   0.20632   0.22575

 Mulliken charges:
               1
     1  C   -0.484032
     2  C    0.332762
     3  C   -0.172592
     4  C   -0.377987
     5  C    0.398556
     6  O   -0.307281
     7  O   -0.233363
     8  C   -0.043250
     9  C   -0.325818
    10  H    0.128206
    11  H    0.126701
    12  H    0.126703
    13  H    0.095599
    14  H    0.134167
    15  H    0.135806
    16  H    0.120179
    17  H    0.116343
    18  H    0.120112
    19  H    0.109191
 Sum of Mulliken charges =   0.00000

 Dipole moment (field-independent basis, Debye):
    X=             -4.4556    Y=              0.5203    Z=              1.0553  Tot=              4.6083
 Quadrupole moment (field-independent basis, Debye-Ang):
   XX=            -63.7000   YY=            -49.8805   ZZ=            -52.3271
   XY=             -0.8417   XZ=              3.3277   YZ=              0.0530

  Exact polarizability:  95.094 -10.012  81.814   1.356   1.632  58.062
 Approx polarizability: 133.810 -23.082 122.731  -1.642   3.955  90.093

                      1                      2                      3
                      A                      A                      A
 Frequencies --     68.0832                81.4372               179.4752
 Red. masses --      4.3964                 4.5646                 2.2423
 Frc consts  --      0.0120                 0.0178                 0.0426
 IR Inten    --      3.0384                 1.9239                 3.7630

                      4                      5                      6
                      A                      A                      A
 Frequencies --    206.1748               269.6613               315.4714
 Red. masses --      1.0960                 2.1682                 3.2011
 Frc consts  --      0.0274                 0.0929                 0.1877
 IR Inten    --      0.0802                 0.5577                 0.2724

                      7                      8                      9
                      A                      A                      A
 Frequencies --    343.3889               354.3033               466.1833
 Red. masses --      4.6317                 2.5097                 2.9073
 Frc consts  --      0.3218                 0.1856                 0.3723
 IR Inten    --      1.0836                 1.5663                 3.7127

                     10                     11                     12
                      A                      A                      A
 Frequencies --    515.5540               561.5091               608.5180
 Red. masses --      2.4721                 4.0874                 2.5820
 Frc consts  --      0.3871                 0.7593                 0.5633
 IR Inten    --      3.1682                 5.4729                 4.8465

                     13                     14                     15
                      A                      A                      A
 Frequencies --    695.6745               745.3291               804.9047
 Red. masses --      4.4123                 3.0368                 2.2162
 Frc consts  --      1.2581                 0.9940                 0.8460
 IR Inten    --      1.6469                 5.0673                 7.1521

                     16                     17                     18
                      A                      A                      A
 Frequencies --    871.1834               887.6242               944.2545
 Red. masses --      1.8881                 2.3725                 2.0319
 Frc consts  --      0.8443                 1.1013                 1.0674
 IR Inten    --     23.7839                 9.2868                 1.9850

                     19                     20                     21
                      A                      A                      A
 Frequencies --    992.4424              1014.6106              1026.8461
 Red. masses --      2.2027                 1.5924                 1.8426
 Frc consts  --      1.2782                 0.9658                 1.1447
 IR Inten    --      5.9184                 2.0508                11.4742

                     22                     23                     24
                      A                      A                      A
 Frequencies --   1072.9342              1099.4993              1122.8678
 Red. masses --      2.1400                 2.1767                 3.0900
 Frc consts  --      1.4515                 1.5504                 2.2954
 IR Inten    --      8.5357                 5.7810                49.2502

                     25                     26                     27
                      A                      A                      A
 Frequencies --   1151.0240              1205.0645              1232.1842
 Red. masses --      1.8293                 2.2311                 1.4737
 Frc consts  --      1.4280                 1.9090                 1.3183
 IR Inten    --     80.3344                84.1862                27.4183

                     28                     29                     30
                      A                      A                      A
 Frequencies --   1260.7874              1306.6257              1330.8635
 Red. masses --      1.4922                 1.2335                 1.3680
 Frc consts  --      1.3975                 1.2408                 1.4276
 IR Inten    --     51.6112                25.9457                 0.1373

                     31                     32                     33
                      A                      A                      A
 Frequencies --   1342.5952              1381.9639              1414.3079
 Red. masses --      1.3155                 1.7428                 1.2759
 Frc consts  --      1.3971                 1.9611                 1.5037
 IR Inten    --     25.0539                 3.8289                 1.1250

                     34                     35                     36
                      A                      A                      A
 Frequencies --   1440.9436              1462.1575              1478.8692
 Red. masses --      1.3342                 1.0997                 1.0470
 Frc consts  --      1.6321                 1.3852                 1.3492
 IR Inten    --     18.6058                 1.4961                 7.6064

                     37                     38                     39
                      A                      A                      A
 Frequencies --   1480.5891              1490.4341              1507.0464
 Red. masses --      1.0866                 1.0659                 1.0968
 Frc consts  --      1.4034                 1.3950                 1.4676
 IR Inten    --      9.3586                 3.6079                 6.4500

                     40                     41                     42
                      A                      A                      A
 Frequencies --   1744.1575              1829.7470              3001.3157
 Red. masses --      7.1570                11.7841                 1.0704
 Frc consts  --     12.8278                23.2449                 5.6809
 IR Inten    --      0.6927               347.0571                14.0698

                     43                     44                     45
                      A                      A                      A
 Frequencies --   3012.8596              3017.8599              3026.7510
 Red. masses --      1.0416                 1.0637                 1.0611
 Frc consts  --      5.5709                 5.7075                 5.7276
 IR Inten    --     18.2577                20.1076                34.1145

                     46                     47                     48
                      A                      A                      A
 Frequencies --   3058.5838              3072.8514              3083.2784
 Red. masses --      1.0985                 1.0979                 1.1013
 Frc consts  --      6.0547                 6.1081                 6.1684
 IR Inten    --     18.6616                24.3420                35.6299

                     49                     50                     51
                      A                      A                      A
 Frequencies --   3115.0100              3130.7673              3168.3709
 Red. masses --      1.0986                 1.0900                 1.0907
 Frc consts  --      6.2809                 6.2950                 6.4508
 IR Inten    --     18.6084                 6.4362                15.8955

 - Thermochemistry -
 -------------------
 Temperature   298.150 Kelvin.  Pressure   1.00000 Atm.
 Atom     1 has atomic number  6 and mass  12.00000

 Molecular mass:   126.06808 amu.
 Principal axes and moments of inertia in atomic units:
                           1         2         3
     Eigenvalues --   587.245391465.575271869.72242
           X            0.99987  -0.00504   0.01503
           Y            0.00502   0.99999   0.00136
           Z           -0.01504  -0.00128   0.99989
 This molecule is an asymmetric top.
 Rotational symmetry number  1.
 Warning -- assumption of classical behavior for rotation
           may cause significant error
 Rotational temperatures (Kelvin)      0.14749     0.05910     0.04632
 Rotational constants (GHZ):           3.07323     1.23142     0.96525
 Zero-point vibrational energy     418662.7 (Joules/Mol)
                                  100.06279 (Kcal/Mol)
 Warning -- explicit consideration of  12 degrees of freedom as
           vibrations may cause significant error
 Vibrational temperatures:     97.96   117.17   258.22   296.64   387.98
          (Kelvin)            453.89   494.06   509.76   670.73   741.77
                              807.89   875.52  1000.92  1072.36  1158.08
                             1253.44  1277.09  1358.57  1427.90  1459.80
                             1477.40  1543.71  1581.93  1615.55  1656.06
                             1733.82  1772.84  1813.99  1879.94  1914.81
                             1931.69  1988.34  2034.87  2073.19  2103.72
                             2127.76  2130.23  2144.40  2168.30  2509.45
                             2632.59  4318.22  4334.83  4342.02  4354.81
                             4400.61  4421.14  4436.14  4481.80  4504.47
                             4558.57

 Zero-point correction=                           0.159460 (Hartree/Particle)
 Thermal correction to Energy=                    0.168169
 Thermal correction to Enthalpy=                  0.169113
 Thermal correction to Gibbs Free Energy=         0.125708
 Sum of electronic and zero-point Energies=           -423.066138
 Sum of electronic and thermal Energies=              -423.057429
 Sum of electronic and thermal Enthalpies=            -423.056485
 Sum of electronic and thermal Free Energies=         -423.099890

                     E (Thermal)             CV                S
                      KCal/Mol        Cal/Mol-Kelvin    Cal/Mol-Kelvin
 Total                  105.528             32.413             91.353
 Electronic               0.000              0.000              0.000
 Translational            0.889              2.981             40.409
 Rotational               0.889              2.981             28.866
 Vibrational            103.750             26.452             22.079
 Vibration     1          0.598              1.969              4.208
 Vibration     2          0.600              1.962              3.856
 Vibration     3          0.629              1.868              2.334
 Vibration     4          0.641              1.831              2.077
 Vibration     5          0.674              1.729              1.598
 Vibration     6          0.703              1.644              1.333
 Vibration     7          0.722              1.589              1.196
 Vibration     8          0.730              1.566              1.147
 Vibration     9          0.824              1.325              0.748
 Vibration    10          0.871              1.216              0.620
 Vibration    11          0.917              1.115              0.521
 Vibration    12          0.967              1.014              0.435

 Optimization completed.
    -- Stationary point found.
 Normal termination of Gaussian 09 at Mon Jan 27 22:48:25 2020.
