 Gaussian 09, Revision D.01,
 Gaussian 09:  ES64L-G09RevD.01 24-Apr-2013

 -----------------------------
 # b3lyp 6-31G(2df,p) opt Freq
 -----------------------------

 -----
 titel
 -----
 Symbolic Z-matrix:
 Charge =  0 Multiplicity = 1

 SCF Done:  E(RB3LYP) =  -423.181101713     A.U. after   14 cycles
 SCF Done:  E(RB3LYP) =  -423.181101741     A.U. after    6 cycles
 SCF Done:  E(RB3LYP) =  -423.181101647     A.U. after    7 cycles
 Optimization completed.
    -- Stationary point found.
 Normal termination of Gaussian 09 at Mon Jan 27 14:41:36 2020.

 ----------------------------------------------------------------------
 #N Geom=AllCheck Guess=TCheck SCRF=Check GenChk RB3LYP/6-31G(2df,p) Fr
 eq
 ----------------------------------------------------------------------

 Structure from the checkpoint file:  "/scratch/puck/g09_daab9df1-b72d-42e4-ada8-84b6394aa3c3/Gau-5092.chk"
 -----
 titel
 -----
 Charge =  0 Multiplicity = 1

                         Standard orientation:
 ---------------------------------------------------------------------
 Center     Atomic      Atomic             Coordinates (Angstroms)
 Number     Number       Type             X           Y           Z
 ---------------------------------------------------------------------
      1          6           0       -2.433266   -0.910310    0.257800
      2          6           0       -1.491121    0.167352   -0.242847
      3          8           0       -1.797028    1.338785   -0.253427
      4          6           0       -0.135882   -0.305152   -0.730935
      5          6           0        1.089467    0.665153   -0.769905
      6          6           0        1.972451   -0.622570   -0.696341
      7          6           0        0.821226   -1.066529    0.235757
      8          8           0        0.922372   -0.177610    1.357209
      9          6           0        1.153241    1.100311    0.700540
     10          1           0       -2.051020   -1.299027    1.209224
     11          1           0       -3.428841   -0.493149    0.414527
     12          1           0       -2.481277   -1.753790   -0.439145
     13          1           0       -0.256707   -0.847348   -1.674857
     14          1           0        1.209532    1.429994   -1.533859
     15          1           0        2.012026   -1.173604   -1.637143
     16          1           0        2.963879   -0.538617   -0.245532
     17          1           0        0.663298   -2.086518    0.582437
     18          1           0        0.374038    1.810536    0.983347
     19          1           0        2.135620    1.492590    0.986336
 ---------------------------------------------------------------------

 SCF Done:  E(RB3LYP) =  -423.181101647     A.U. after    1 cycles

 The electronic state is 1-A.
 Alpha  occ. eigenvalues --  -19.13807 -19.12897 -10.26953 -10.24532 -10.22330
 Alpha  occ. eigenvalues --  -10.20351 -10.19927 -10.19179 -10.18774  -1.04570
 Alpha  occ. eigenvalues --   -1.03529  -0.84357  -0.75406  -0.72331  -0.68388
 Alpha  occ. eigenvalues --   -0.58607  -0.57756  -0.54001  -0.52140  -0.47847
 Alpha  occ. eigenvalues --   -0.47319  -0.43684  -0.42836  -0.41666  -0.40099
 Alpha  occ. eigenvalues --   -0.38363  -0.37680  -0.36874  -0.35197  -0.34357
 Alpha  occ. eigenvalues --   -0.32972  -0.31031  -0.24672  -0.24072
 Alpha virt. eigenvalues --   -0.01427   0.08175   0.10555   0.11594   0.12281
 Alpha virt. eigenvalues --    0.14046   0.14818   0.14910   0.15580   0.16607
 Alpha virt. eigenvalues --    0.16905   0.17548   0.19462   0.20170   0.21256

 Mulliken charges:
               1
     1  C   -0.485086
     2  C    0.372312
     3  O   -0.306297
     4  C   -0.106376
     5  C   -0.082223
     6  C   -0.240746
     7  C    0.091856
     8  O   -0.285977
     9  C   -0.086849
    10  H    0.157348
    11  H    0.141723
    12  H    0.129408
    13  H    0.098076
    14  H    0.083837
    15  H    0.102695
    16  H    0.103884
    17  H    0.082156
    18  H    0.131073
    19  H    0.099187
 Sum of Mulliken charges =   0.00000

 Dipole moment (field-independent basis, Debye):
    X=              0.8730    Y=             -2.1087    Z=             -1.4281  Tot=              2.6923
 Quadrupole moment (field-independent basis, Debye-Ang):
   XX=            -52.8669   YY=            -53.2228   ZZ=            -54.4743
   XY=              5.6084   XZ=             -1.9663   YZ=              1.6319

  Exact polarizability:  83.253   1.161  76.341  -2.023   1.775  64.041
 Approx polarizability: 108.321  -3.102 122.674  -0.504   0.994 100.692

                      1                      2                      3
                      A                      A                      A
 Frequencies --     39.4081               137.9066               142.9507
 Red. masses --      3.7491                 1.6172                 2.0025
 Frc consts  --      0.0034                 0.0181                 0.0241
 IR Inten    --      3.6189                 1.4088                 1.6350

                      4                      5                      6
                      A                      A                      A
 Frequencies --    176.9599               342.2547               370.5101
 Red. masses --      3.6544                 2.8159                 3.0072
 Frc consts  --      0.0674                 0.1943                 0.2432
 IR Inten    --      3.6582                 4.0589                 0.8326

                      7                      8                      9
                      A                      A                      A
 Frequencies --    461.6565               471.4915               528.2148
 Red. masses --      3.5613                 2.2644                 2.7989
 Frc consts  --      0.4472                 0.2966                 0.4601
 IR Inten    --      4.7267                 0.1213                11.7095

                     10                     11                     12
                      A                      A                      A
 Frequencies --    620.2004               705.3923               790.3084
 Red. masses --      3.1332                 4.1043                 2.6392
 Frc consts  --      0.7101                 1.2032                 0.9712
 IR Inten    --      7.2663                 1.7325                 0.9211

                     13                     14                     15
                      A                      A                      A
 Frequencies --    837.3127               847.5275               872.9242
 Red. masses --      2.6835                 2.7224                 2.3493
 Frc consts  --      1.1085                 1.1522                 1.0547
 IR Inten    --      1.0491                 6.1032                15.8918

                     16                     17                     18
                      A                      A                      A
 Frequencies --    914.4020               925.1894               945.1841
 Red. masses --      3.4075                 2.6617                 1.8182
 Frc consts  --      1.6786                 1.3424                 0.9570
 IR Inten    --     11.9634                20.3681                 4.7107

                     19                     20                     21
                      A                      A                      A
 Frequencies --    971.5152               981.8168              1016.0344
 Red. masses --      1.4347                 2.1292                 2.2486
 Frc consts  --      0.7978                 1.2093                 1.3677
 IR Inten    --      5.3040                24.8168                15.8297

                     22                     23                     24
                      A                      A                      A
 Frequencies --   1036.2473              1044.6592              1084.2272
 Red. masses --      1.8222                 2.1562                 1.9439
 Frc consts  --      1.1529                 1.3864                 1.3463
 IR Inten    --      1.7857                 3.9780                14.9734

                     25                     26                     27
                      A                      A                      A
 Frequencies --   1106.9054              1118.4652              1164.1945
 Red. masses --      1.4023                 1.5975                 1.6230
 Frc consts  --      1.0123                 1.1774                 1.2961
 IR Inten    --      9.1079                 6.0044                 5.5241

                     28                     29                     30
                      A                      A                      A
 Frequencies --   1191.5690              1207.3469              1228.4251
 Red. masses --      1.3060                 1.6865                 1.7046
 Frc consts  --      1.0925                 1.4484                 1.5155
 IR Inten    --     13.2946                42.2917                27.1779

                     31                     32                     33
                      A                      A                      A
 Frequencies --   1252.5697              1277.9952              1292.9114
 Red. masses --      1.6181                 1.5228                 1.5107
 Frc consts  --      1.4958                 1.4654                 1.4878
 IR Inten    --      0.5820                 6.5372                 8.2177

                     34                     35                     36
                      A                      A                      A
 Frequencies --   1356.6197              1369.2027              1382.2837
 Red. masses --      1.6103                 1.4023                 1.5121
 Frc consts  --      1.7461                 1.5489                 1.7022
 IR Inten    --     11.8241                 5.0722                47.7112

                     37                     38                     39
                      A                      A                      A
 Frequencies --   1463.1832              1475.4841              1490.8159
 Red. masses --      1.0550                 1.0506                 1.1213
 Frc consts  --      1.3307                 1.3475                 1.4683
 IR Inten    --      8.4186                 8.7002                 0.9367

                     40                     41                     42
                      A                      A                      A
 Frequencies --   1528.7056              1803.4217              3035.3639
 Red. masses --      1.0954                11.1001                 1.0368
 Frc consts  --      1.5083                21.2702                 5.6279
 IR Inten    --      1.6041               134.4200                 1.3875

                     43                     44                     45
                      A                      A                      A
 Frequencies --   3040.0733              3059.1479              3071.5785
 Red. masses --      1.0650                 1.0807                 1.0589
 Frc consts  --      5.7990                 5.9587                 5.8861
 IR Inten    --     58.0020                11.2465                28.1920

                     46                     47                     48
                      A                      A                      A
 Frequencies --   3098.4003              3114.8333              3136.7288
 Red. masses --      1.0980                 1.1015                 1.0981
 Frc consts  --      6.2105                 6.2965                 6.3656
 IR Inten    --      8.0050                17.4284                28.4375

                     49                     50                     51
                      A                      A                      A
 Frequencies --   3138.7317              3147.6362              3150.2157
 Red. masses --      1.1022                 1.0918                 1.1021
 Frc consts  --      6.3973                 6.3735                 6.4440
 IR Inten    --     37.6434                15.6533                10.4855

 - Thermochemistry -
 -------------------
 Temperature   298.150 Kelvin.  Pressure   1.00000 Atm.
 Atom     1 has atomic number  6 and mass  12.00000

 Molecular mass:   126.06808 amu.
 Principal axes and moments of inertia in atomic units:
                           1         2         3
     Eigenvalues --   598.080131286.958931387.30642
           X            0.99858   0.04899  -0.02115
           Y           -0.04727   0.99606   0.07501
           Z            0.02475  -0.07390   0.99696
 This molecule is an asymmetric top.
 Rotational symmetry number  1.
 Warning -- assumption of classical behavior for rotation
           may cause significant error
 Rotational temperatures (Kelvin)      0.14482     0.06730     0.06243
 Rotational constants (GHZ):           3.01756     1.40233     1.30090
 Zero-point vibrational energy     418496.2 (Joules/Mol)
                                  100.02299 (Kcal/Mol)
 Warning -- explicit consideration of  10 degrees of freedom as
           vibrations may cause significant error
 Vibrational temperatures:     56.70   198.42   205.67   254.61   492.43
          (Kelvin)            533.08   664.22   678.37   759.98   892.33
                             1014.90  1137.08  1204.70  1219.40  1255.94
                             1315.62  1331.14  1359.91  1397.79  1412.61
                             1461.85  1490.93  1503.03  1559.96  1592.59
                             1609.22  1675.01  1714.40  1737.10  1767.43
                             1802.17  1838.75  1860.21  1951.87  1969.97
                             1988.80  2105.19  2122.89  2144.95  2199.46
                             2594.72  4367.21  4373.98  4401.43  4419.31
                             4457.90  4481.54  4513.05  4515.93  4528.74
                             4532.45

 Zero-point correction=                           0.159397 (Hartree/Particle)
 Thermal correction to Energy=                    0.167503
 Thermal correction to Enthalpy=                  0.168447
 Thermal correction to Gibbs Free Energy=         0.126018
 Sum of electronic and zero-point Energies=           -423.021705
 Sum of electronic and thermal Energies=              -423.013599
 Sum of electronic and thermal Enthalpies=            -423.012654
 Sum of electronic and thermal Free Energies=         -423.055084

                     E (Thermal)             CV                S
                      KCal/Mol        Cal/Mol-Kelvin    Cal/Mol-Kelvin
 Total                  105.110             30.838             89.301
 Electronic               0.000              0.000              0.000
 Translational            0.889              2.981             40.409
 Rotational               0.889              2.981             28.459
 Vibrational            103.332             24.877             20.433
 Vibration     1          0.594              1.981              5.289
 Vibration     2          0.614              1.915              2.833
 Vibration     3          0.616              1.910              2.764
 Vibration     4          0.628              1.871              2.360
 Vibration     5          0.721              1.591              1.202
 Vibration     6          0.743              1.533              1.078
 Vibration     7          0.819              1.335              0.761
 Vibration     8          0.828              1.313              0.733
 Vibration     9          0.883              1.188              0.591
 Vibration    10          0.980              0.989              0.416

 Optimization completed.
    -- Stationary point found.
 Normal termination of Gaussian 09 at Mon Jan 27 16:43:32 2020.
