 Gaussian 09, Revision D.01,
 Gaussian 09:  ES64L-G09RevD.01 24-Apr-2013

 -----------------------------
 # b3lyp 6-31G(2df,p) opt Freq
 -----------------------------

 -----
 titel
 -----
 Symbolic Z-matrix:
 Charge =  0 Multiplicity = 1

 SCF Done:  E(RB3LYP) =  -423.156404138     A.U. after   14 cycles
 Optimization completed.
    -- Stationary point found.
 Normal termination of Gaussian 09 at Tue Jan 28 12:10:43 2020.

 ----------------------------------------------------------------------
 #N Geom=AllCheck Guess=TCheck SCRF=Check GenChk RB3LYP/6-31G(2df,p) Fr
 eq
 ----------------------------------------------------------------------

 Structure from the checkpoint file:  "/scratch/puck/g09_eaab94f9-519d-4d78-81c8-65790cdf1c4a/Gau-103782.chk"
 -----
 titel
 -----
 Charge =  0 Multiplicity = 1

                         Standard orientation:
 ---------------------------------------------------------------------
 Center     Atomic      Atomic             Coordinates (Angstroms)
 Number     Number       Type             X           Y           Z
 ---------------------------------------------------------------------
      1          6           0       -1.001668    1.950223   -0.814073
      2          6           0       -0.211209    1.051428    0.154072
      3          6           0        1.060475    0.489059   -0.510190
      4          6           0        1.966305   -0.289726    0.447879
      5          8           0        3.116352   -0.810284   -0.197277
      6          6           0       -1.108468   -0.063285    0.685600
      7          8           0       -1.413449   -0.166018    1.854015
      8          6           0       -1.603831   -1.016818   -0.300283
      9          6           0       -2.011426   -1.809798   -1.109579
     10          1           0       -0.374200    2.780721   -1.151317
     11          1           0       -1.325490    1.389150   -1.695897
     12          1           0       -1.889336    2.369795   -0.331368
     13          1           0        0.066201    1.632656    1.040780
     14          1           0        0.790177   -0.160312   -1.350556
     15          1           0        1.624947    1.332039   -0.931757
     16          1           0        2.237510    0.344330    1.307433
     17          1           0        1.437099   -1.159725    0.851270
     18          1           0        3.646946   -0.066612   -0.500436
     19          1           0       -2.378141   -2.518123   -1.812616
 ---------------------------------------------------------------------

 SCF Done:  E(RB3LYP) =  -423.156404138     A.U. after    1 cycles

 The electronic state is 1-A.
 Alpha  occ. eigenvalues --  -19.14235 -19.13653 -10.29166 -10.22975 -10.20972
 Alpha  occ. eigenvalues --  -10.20597 -10.20276 -10.19229 -10.19057  -1.05242
 Alpha  occ. eigenvalues --   -1.01774  -0.82429  -0.77274  -0.73024  -0.66905
 Alpha  occ. eigenvalues --   -0.63409  -0.60303  -0.53650  -0.50897  -0.48269
 Alpha  occ. eigenvalues --   -0.46996  -0.45301  -0.43775  -0.41683  -0.39306
 Alpha  occ. eigenvalues --   -0.39036  -0.38295  -0.36297  -0.34916  -0.32168
 Alpha  occ. eigenvalues --   -0.29932  -0.29862  -0.26909  -0.26101
 Alpha virt. eigenvalues --   -0.05968   0.03168   0.07339   0.09173   0.09513
 Alpha virt. eigenvalues --    0.10767   0.12010   0.13143   0.13781   0.16188
 Alpha virt. eigenvalues --    0.17093   0.17964   0.18923   0.19874   0.21683

 Mulliken charges:
               1
     1  C   -0.417499
     2  C   -0.090164
     3  C   -0.220305
     4  C   -0.069270
     5  O   -0.415681
     6  C    0.257996
     7  O   -0.292430
     8  C    0.295366
     9  C   -0.460176
    10  H    0.123029
    11  H    0.133081
    12  H    0.129867
    13  H    0.099199
    14  H    0.120602
    15  H    0.088960
    16  H    0.093053
    17  H    0.124918
    18  H    0.280819
    19  H    0.218635
 Sum of Mulliken charges =   0.00000

 Dipole moment (field-independent basis, Debye):
    X=              0.3779    Y=              1.6255    Z=             -2.7644  Tot=              3.2291
 Quadrupole moment (field-independent basis, Debye-Ang):
   XX=            -53.2105   YY=            -50.3562   ZZ=            -56.3489
   XY=              7.2660   XZ=              5.1834   YZ=              2.8194

  Exact polarizability:  77.754   8.081  79.284   3.615   8.460  77.580
 Approx polarizability: 101.183  14.805 116.916   5.020  23.558 136.767

                      1                      2                      3
                      A                      A                      A
 Frequencies --     28.4822                82.1216                89.7955
 Red. masses --      5.7101                 4.9388                 1.9436
 Frc consts  --      0.0027                 0.0196                 0.0092
 IR Inten    --      2.8921                 0.3833                 4.4786

                      4                      5                      6
                      A                      A                      A
 Frequencies --    144.0985               163.3462               199.7442
 Red. masses --      3.9078                 2.8085                 3.2802
 Frc consts  --      0.0478                 0.0442                 0.0771
 IR Inten    --      1.2502                 2.1991                 0.8319

                      7                      8                      9
                      A                      A                      A
 Frequencies --    226.2129               276.8431               302.5386
 Red. masses --      1.0741                 2.9727                 1.3795
 Frc consts  --      0.0324                 0.1342                 0.0744
 IR Inten    --      0.3350                19.5076                68.8540

                     10                     11                     12
                      A                      A                      A
 Frequencies --    317.2210               366.6191               414.5317
 Red. masses --      2.8911                 3.8172                 5.3635
 Frc consts  --      0.1714                 0.3023                 0.5430
 IR Inten    --     21.4556                 8.1165                 7.7922

                     13                     14                     15
                      A                      A                      A
 Frequencies --    532.6082               626.8308               653.2542
 Red. masses --      3.8732                 3.1789                 1.3037
 Frc consts  --      0.6473                 0.7359                 0.3278
 IR Inten    --      7.3532                 3.4441                37.3555

                     16                     17                     18
                      A                      A                      A
 Frequencies --    693.0506               711.2641               760.3539
 Red. masses --      4.9186                 1.3230                 2.8084
 Frc consts  --      1.3919                 0.3943                 0.9566
 IR Inten    --      4.0240                27.6266                 5.3469

                     19                     20                     21
                      A                      A                      A
 Frequencies --    799.2652               917.9204               979.7351
 Red. masses --      1.5190                 1.7315                 1.9086
 Frc consts  --      0.5717                 0.8596                 1.0794
 IR Inten    --      5.7144                 9.6676                22.8876

                     22                     23                     24
                      A                      A                      A
 Frequencies --   1002.8919              1016.8459              1079.0612
 Red. masses --      1.5625                 2.9652                 2.4764
 Frc consts  --      0.9259                 1.8064                 1.6989
 IR Inten    --     48.4986                56.5982                15.6148

                     25                     26                     27
                      A                      A                      A
 Frequencies --   1083.1871              1144.6595              1153.5988
 Red. masses --      4.3205                 1.7698                 1.7347
 Frc consts  --      2.9867                 1.3662                 1.3601
 IR Inten    --     90.0722                 2.4256                20.2694

                     28                     29                     30
                      A                      A                      A
 Frequencies --   1230.9689              1291.6909              1310.1724
 Red. masses --      2.3231                 1.3314                 1.2371
 Frc consts  --      2.0740                 1.3088                 1.2511
 IR Inten    --     68.9853                 2.2639                 9.0789

                     31                     32                     33
                      A                      A                      A
 Frequencies --   1342.7727              1357.5503              1395.5282
 Red. masses --      1.3176                 1.3387                 1.2700
 Frc consts  --      1.3997                 1.4536                 1.4572
 IR Inten    --      3.3655                 0.2281                 4.7749

                     34                     35                     36
                      A                      A                      A
 Frequencies --   1410.0360              1429.3679              1481.0656
 Red. masses --      1.2169                 1.2672                 1.0794
 Frc consts  --      1.4255                 1.5254                 1.3951
 IR Inten    --      6.4666                37.2775                 1.0342

                     37                     38                     39
                      A                      A                      A
 Frequencies --   1494.4327              1502.8079              1509.5750
 Red. masses --      1.0434                 1.0549                 1.0927
 Frc consts  --      1.3729                 1.4037                 1.4671
 IR Inten    --      5.4510                 6.9215                 0.8721

                     40                     41                     42
                      A                      A                      A
 Frequencies --   1764.6280              2206.7379              2976.5432
 Red. masses --     12.1018                 5.9056                 1.0708
 Frc consts  --     22.2028                16.9440                 5.5894
 IR Inten    --    161.1959                57.9343                46.7388

                     43                     44                     45
                      A                      A                      A
 Frequencies --   3014.3408              3039.3681              3049.1609
 Red. masses --      1.0654                 1.0343                 1.0841
 Frc consts  --      5.7034                 5.6296                 5.9383
 IR Inten    --     22.7915                20.2809                 4.2351

                     46                     47                     48
                      A                      A                      A
 Frequencies --   3067.0632              3083.5718              3111.6090
 Red. masses --      1.0882                 1.0991                 1.1022
 Frc consts  --      6.0313                 6.1576                 6.2878
 IR Inten    --     12.4789                39.9963                21.3118

                     49                     50                     51
                      A                      A                      A
 Frequencies --   3116.7426              3492.2957              3814.7980
 Red. masses --      1.1016                 1.1618                 1.0661
 Frc consts  --      6.3050                 8.3486                 9.1412
 IR Inten    --     22.6476                52.7225                17.5822

 - Thermochemistry -
 -------------------
 Temperature   298.150 Kelvin.  Pressure   1.00000 Atm.
 Atom     1 has atomic number  6 and mass  12.00000

 Molecular mass:   126.06808 amu.
 Principal axes and moments of inertia in atomic units:
                           1         2         3
     Eigenvalues --   920.145751762.837431935.76874
           X            0.99968   0.00032   0.02539
           Y            0.00063   0.99930  -0.03744
           Z           -0.02538   0.03744   0.99898
 This molecule is an asymmetric top.
 Rotational symmetry number  1.
 Warning -- assumption of classical behavior for rotation
           may cause significant error
 Rotational temperatures (Kelvin)      0.09413     0.04913     0.04474
 Rotational constants (GHZ):           1.96136     1.02377     0.93231
 Zero-point vibrational energy     408278.9 (Joules/Mol)
                                   97.58101 (Kcal/Mol)
 Warning -- explicit consideration of  13 degrees of freedom as
           vibrations may cause significant error
 Vibrational temperatures:     40.98   118.15   129.20   207.33   235.02
          (Kelvin)            287.39   325.47   398.32   435.29   456.41
                              527.48   596.42   766.30   901.87   939.89
                              997.14  1023.35  1093.98  1149.96  1320.68
                             1409.62  1442.94  1463.01  1552.53  1558.46
                             1646.91  1659.77  1771.09  1858.45  1885.04
                             1931.95  1953.21  2007.85  2028.72  2056.54
                             2130.92  2150.15  2162.20  2171.94  2538.90
                             3175.00  4282.58  4336.96  4372.97  4387.06
                             4412.81  4436.57  4476.91  4484.29  5024.63
                             5488.64

 Zero-point correction=                           0.155505 (Hartree/Particle)
 Thermal correction to Energy=                    0.166230
 Thermal correction to Enthalpy=                  0.167175
 Thermal correction to Gibbs Free Energy=         0.118586
 Sum of electronic and zero-point Energies=           -423.000899
 Sum of electronic and thermal Energies=              -422.990174
 Sum of electronic and thermal Enthalpies=            -422.989230
 Sum of electronic and thermal Free Energies=         -423.037818

                     E (Thermal)             CV                S
                      KCal/Mol        Cal/Mol-Kelvin    Cal/Mol-Kelvin
 Total                  104.311             37.461            102.262
 Electronic               0.000              0.000              0.000
 Translational            0.889              2.981             40.409
 Rotational               0.889              2.981             29.531
 Vibrational            102.534             31.499             32.323
 Vibration     1          0.593              1.984              5.932
 Vibration     2          0.600              1.961              3.840
 Vibration     3          0.602              1.956              3.665
 Vibration     4          0.616              1.909              2.749
 Vibration     5          0.623              1.887              2.511
 Vibration     6          0.638              1.840              2.135
 Vibration     7          0.650              1.801              1.909
 Vibration     8          0.678              1.716              1.553
 Vibration     9          0.694              1.669              1.403
 Vibration    10          0.704              1.641              1.324
 Vibration    11          0.740              1.541              1.094
 Vibration    12          0.778              1.439              0.911
 Vibration    13          0.888              1.178              0.581

 Optimization completed.
    -- Stationary point found.
 Normal termination of Gaussian 09 at Tue Jan 28 12:48:02 2020.
