 Gaussian 09, Revision D.01,
 Gaussian 09:  ES64L-G09RevD.01 24-Apr-2013

 -----------------------------
 # b3lyp 6-31G(2df,p) opt Freq
 -----------------------------

 -----
 titel
 -----
 Symbolic Z-matrix:
 Charge =  0 Multiplicity = 1

 SCF Done:  E(RB3LYP) =  -423.110040476     A.U. after   13 cycles
 Optimization completed.
    -- Stationary point found.
 Normal termination of Gaussian 09 at Mon Jan 27 23:07:31 2020.

 ----------------------------------------------------------------------
 #N Geom=AllCheck Guess=TCheck SCRF=Check GenChk RB3LYP/6-31G(2df,p) Fr
 eq
 ----------------------------------------------------------------------

 Structure from the checkpoint file:  "/scratch/puck/g09_354a4500-151b-44e5-a675-5004c3f6cdf1/Gau-196141.chk"
 -----
 titel
 -----
 Charge =  0 Multiplicity = 1

                         Standard orientation:
 ---------------------------------------------------------------------
 Center     Atomic      Atomic             Coordinates (Angstroms)
 Number     Number       Type             X           Y           Z
 ---------------------------------------------------------------------
      1          8           0       -2.675271    0.654236   -0.121425
      2          6           0       -1.480460    0.106031   -0.582997
      3          6           0       -0.886035   -1.228709    0.047366
      4          6           0       -0.435876   -0.379717    1.258783
      5          6           0       -0.081217    0.495327    0.002533
      6          6           0        1.095187    1.440501   -0.033856
      7          6           0        2.264374    0.389947    0.082367
      8          8           0        1.734734   -0.942651   -0.149056
      9          6           0        0.431198   -0.787533   -0.656768
     10          1           0       -2.675248    0.656011    0.841253
     11          1           0       -1.549099    0.118788   -1.674015
     12          1           0       -1.362171   -2.209616    0.052168
     13          1           0       -1.206632    0.000667    1.936287
     14          1           0        0.405342   -0.770304    1.829581
     15          1           0        1.149603    1.980459   -0.984259
     16          1           0        1.129188    2.171037    0.778107
     17          1           0        3.056431    0.594618   -0.647596
     18          1           0        2.712599    0.393602    1.081242
     19          1           0        0.421268   -0.843025   -1.753495
 ---------------------------------------------------------------------

 SCF Done:  E(RB3LYP) =  -423.110040476     A.U. after    1 cycles

 The electronic state is 1-A.
 Alpha  occ. eigenvalues --  -19.14423 -19.13871 -10.24776 -10.23264 -10.22751
 Alpha  occ. eigenvalues --  -10.20230 -10.20024 -10.19397 -10.19084  -1.03910
 Alpha  occ. eigenvalues --   -1.02883  -0.89792  -0.76535  -0.68432  -0.66769
 Alpha  occ. eigenvalues --   -0.61946  -0.58741  -0.54659  -0.51682  -0.48795
 Alpha  occ. eigenvalues --   -0.47321  -0.45520  -0.43440  -0.41891  -0.39608
 Alpha  occ. eigenvalues --   -0.37595  -0.37333  -0.34467  -0.33694  -0.32283
 Alpha  occ. eigenvalues --   -0.31172  -0.27417  -0.25794  -0.25043
 Alpha virt. eigenvalues --    0.06841   0.08831   0.09196   0.11414   0.12391
 Alpha virt. eigenvalues --    0.13631   0.14924   0.15494   0.15930   0.16234
 Alpha virt. eigenvalues --    0.18332   0.18514   0.20713   0.21239   0.22032

 Mulliken charges:
               1
     1  O   -0.440751
     2  C    0.087716
     3  C   -0.157486
     4  C   -0.292313
     5  C    0.267442
     6  C   -0.395199
     7  C   -0.069513
     8  O   -0.289017
     9  C    0.141991
    10  H    0.285560
    11  H    0.089305
    12  H    0.077261
    13  H    0.070899
    14  H    0.119226
    15  H    0.113941
    16  H    0.109853
    17  H    0.106926
    18  H    0.111259
    19  H    0.062901
 Sum of Mulliken charges =   0.00000

 Dipole moment (field-independent basis, Debye):
    X=              0.4457    Y=              1.0054    Z=              0.8402  Tot=              1.3839
 Quadrupole moment (field-independent basis, Debye-Ang):
   XX=            -57.4319   YY=            -54.8262   ZZ=            -50.0590
   XY=              5.0963   XZ=             -2.8337   YZ=              1.0267

  Exact polarizability:  85.577   4.813  68.147  -0.440   0.562  70.840
 Approx polarizability: 117.891   2.535 104.802   0.156   1.334 109.892

                      1                      2                      3
                      A                      A                      A
 Frequencies --    100.3290               212.1588               253.7456
 Red. masses --      1.9936                 2.3119                 4.1061
 Frc consts  --      0.0118                 0.0613                 0.1558
 IR Inten    --      0.9421                11.7775                10.8520

                      4                      5                      6
                      A                      A                      A
 Frequencies --    291.7697               321.0135               404.4722
 Red. masses --      1.6878                 2.0735                 3.4289
 Frc consts  --      0.0847                 0.1259                 0.3305
 IR Inten    --     39.0311                24.3206                 0.5302

                      7                      8                      9
                      A                      A                      A
 Frequencies --    497.4247               522.3878               609.8758
 Red. masses --      5.3290                 2.9933                 3.6421
 Frc consts  --      0.7769                 0.4813                 0.7982
 IR Inten    --      1.6438                 9.8686                 7.4445

                     10                     11                     12
                      A                      A                      A
 Frequencies --    692.2072               731.8220               747.9302
 Red. masses --      2.6903                 3.6939                 2.8498
 Frc consts  --      0.7595                 1.1656                 0.9393
 IR Inten    --      1.0026                 0.5215                 3.7069

                     13                     14                     15
                      A                      A                      A
 Frequencies --    829.2111               844.6768               896.2230
 Red. masses --      1.4434                 3.5472                 3.2289
 Frc consts  --      0.5847                 1.4911                 1.5280
 IR Inten    --      1.4687                 0.7541                 2.2555

                     16                     17                     18
                      A                      A                      A
 Frequencies --    907.6221               924.0876               945.1631
 Red. masses --      3.3076                 1.8077                 2.3085
 Frc consts  --      1.6054                 0.9095                 1.2150
 IR Inten    --     23.2578                 1.3113                12.9216

                     19                     20                     21
                      A                      A                      A
 Frequencies --    957.3415               989.8924              1044.7058
 Red. masses --      3.6515                 2.4239                 1.5970
 Frc consts  --      1.9718                 1.3994                 1.0269
 IR Inten    --     34.0780                 2.7375                46.1644

                     22                     23                     24
                      A                      A                      A
 Frequencies --   1055.0093              1073.4423              1106.7198
 Red. masses --      2.0852                 1.6902                 1.9467
 Frc consts  --      1.3675                 1.1475                 1.4049
 IR Inten    --     50.7442                11.5335                75.7219

                     25                     26                     27
                      A                      A                      A
 Frequencies --   1139.3599              1157.1445              1167.4822
 Red. masses --      1.6559                 2.0484                 1.7090
 Frc consts  --      1.2665                 1.6160                 1.3724
 IR Inten    --      4.9223                47.3336                 5.5683

                     28                     29                     30
                      A                      A                      A
 Frequencies --   1190.9066              1215.1115              1220.2905
 Red. masses --      1.7000                 1.4008                 1.7582
 Frc consts  --      1.4206                 1.2186                 1.5426
 IR Inten    --    108.4703                 1.1367                 0.5004

                     31                     32                     33
                      A                      A                      A
 Frequencies --   1229.0690              1249.6645              1277.1142
 Red. masses --      1.2179                 1.8472                 1.4706
 Frc consts  --      1.0839                 1.6996                 1.4132
 IR Inten    --     12.8164                 3.1880                 3.1408

                     34                     35                     36
                      A                      A                      A
 Frequencies --   1287.3403              1313.0307              1370.4931
 Red. masses --      1.4849                 2.8399                 1.3053
 Frc consts  --      1.4498                 2.8847                 1.4445
 IR Inten    --     17.0821                 6.3424                 3.4886

                     37                     38                     39
                      A                      A                      A
 Frequencies --   1397.6803              1462.2654              1489.2309
 Red. masses --      1.2406                 1.2225                 1.0975
 Frc consts  --      1.4279                 1.5401                 1.4340
 IR Inten    --     22.8422                60.5927                 1.6055

                     40                     41                     42
                      A                      A                      A
 Frequencies --   1519.7993              1526.9615              3010.5394
 Red. masses --      1.0890                 1.1428                 1.0831
 Frc consts  --      1.4820                 1.5699                 5.7836
 IR Inten    --      0.8344                 2.5901                55.5987

                     43                     44                     45
                      A                      A                      A
 Frequencies --   3029.6930              3051.0130              3056.5788
 Red. masses --      1.0602                 1.0648                 1.0621
 Frc consts  --      5.7338                 5.8398                 5.8464
 IR Inten    --     65.3660                52.7308                34.3284

                     46                     47                     48
                      A                      A                      A
 Frequencies --   3071.7027              3082.5865              3108.8893
 Red. masses --      1.1047                 1.0855                 1.1055
 Frc consts  --      6.1411                 6.0770                 6.2953
 IR Inten    --     20.9898                44.2338                28.1025

                     49                     50                     51
                      A                      A                      A
 Frequencies --   3111.4493              3143.4077              3815.8165
 Red. masses --      1.0925                 1.0981                 1.0648
 Frc consts  --      6.2317                 6.3930                 9.1343
 IR Inten    --     57.7642                16.8277                12.8216

 - Thermochemistry -
 -------------------
 Temperature   298.150 Kelvin.  Pressure   1.00000 Atm.
 Atom     1 has atomic number  8 and mass  15.99491

 Molecular mass:   126.06808 amu.
 Principal axes and moments of inertia in atomic units:
                           1         2         3
     Eigenvalues --   498.747541277.753581448.40762
           X            0.99932   0.03657  -0.00495
           Y           -0.03656   0.99933   0.00151
           Z            0.00500  -0.00132   0.99999
 This molecule is an asymmetric top.
 Rotational symmetry number  1.
 Warning -- assumption of classical behavior for rotation
           may cause significant error
 Rotational temperatures (Kelvin)      0.17366     0.06779     0.05980
 Rotational constants (GHZ):           3.61855     1.41243     1.24602
 Zero-point vibrational energy     422603.9 (Joules/Mol)
                                  101.00475 (Kcal/Mol)
 Warning -- explicit consideration of   9 degrees of freedom as
           vibrations may cause significant error
 Vibrational temperatures:    144.35   305.25   365.08   419.79   461.87
          (Kelvin)            581.94   715.68   751.60   877.47   995.93
                             1052.93  1076.10  1193.05  1215.30  1289.46
                             1305.86  1329.55  1359.88  1377.40  1424.23
                             1503.10  1517.92  1544.44  1592.32  1639.28
                             1664.87  1679.74  1713.45  1748.27  1755.72
                             1768.35  1797.99  1837.48  1852.19  1889.16
                             1971.83  2010.95  2103.87  2142.67  2186.65
                             2196.95  4331.49  4359.05  4389.72  4397.73
                             4419.49  4435.15  4472.99  4476.68  4522.66
                             5490.10

 Zero-point correction=                           0.160961 (Hartree/Particle)
 Thermal correction to Energy=                    0.168322
 Thermal correction to Enthalpy=                  0.169266
 Thermal correction to Gibbs Free Energy=         0.129337
 Sum of electronic and zero-point Energies=           -422.949079
 Sum of electronic and thermal Energies=              -422.941718
 Sum of electronic and thermal Enthalpies=            -422.940774
 Sum of electronic and thermal Free Energies=         -422.980704

                     E (Thermal)             CV                S
                      KCal/Mol        Cal/Mol-Kelvin    Cal/Mol-Kelvin
 Total                  105.624             29.876             84.039
 Electronic               0.000              0.000              0.000
 Translational            0.889              2.981             40.409
 Rotational               0.889              2.981             28.314
 Vibrational            103.846             23.915             15.316
 Vibration     1          0.604              1.949              3.448
 Vibration     2          0.643              1.822              2.025
 Vibration     3          0.665              1.756              1.704
 Vibration     4          0.687              1.689              1.464
 Vibration     5          0.706              1.633              1.305
 Vibration     6          0.770              1.460              0.946
 Vibration     7          0.853              1.256              0.665
 Vibration     8          0.877              1.200              0.604
 Vibration     9          0.969              1.011              0.433

 Optimization completed.
    -- Stationary point found.
 Normal termination of Gaussian 09 at Mon Jan 27 23:57:06 2020.
