 Gaussian 09, Revision D.01,
 Gaussian 09:  ES64L-G09RevD.01 24-Apr-2013

 -----------------------------
 # b3lyp 6-31G(2df,p) opt Freq
 -----------------------------

 -----
 titel
 -----
 Symbolic Z-matrix:
 Charge =  0 Multiplicity = 1

 SCF Done:  E(RB3LYP) =  -423.161891851     A.U. after   14 cycles
 Optimization completed.
    -- Stationary point found.
 Normal termination of Gaussian 09 at Tue Jan 28 08:17:25 2020.

 ----------------------------------------------------------------------
 #N Geom=AllCheck Guess=TCheck SCRF=Check GenChk RB3LYP/6-31G(2df,p) Fr
 eq
 ----------------------------------------------------------------------

 Structure from the checkpoint file:  "/scratch/puck/g09_a37ec030-d0e6-4226-b1bd-405592c6cb01/Gau-79827.chk"
 -----
 titel
 -----
 Charge =  0 Multiplicity = 1

                         Standard orientation:
 ---------------------------------------------------------------------
 Center     Atomic      Atomic             Coordinates (Angstroms)
 Number     Number       Type             X           Y           Z
 ---------------------------------------------------------------------
      1          6           0        3.763275   -1.100279    0.503072
      2          6           0        3.337437    0.102520   -0.358296
      3          6           0        1.895533    0.325679   -0.365796
      4          6           0        0.702726    0.498877   -0.375425
      5          6           0       -0.743847    0.707788   -0.333374
      6          8           0       -1.103164    1.847578    0.447989
      7          6           0       -1.474523   -0.560537    0.169451
      8          6           0       -2.982150   -0.407182    0.144750
      9          8           0       -3.740151   -1.263963   -0.233557
     10          1           0        3.461438   -0.959916    1.544542
     11          1           0        3.301767   -2.022096    0.139127
     12          1           0        4.849709   -1.223345    0.472941
     13          1           0        3.839204    1.010150    0.000762
     14          1           0        3.682713   -0.041801   -1.389959
     15          1           0       -1.104414    0.940310   -1.343528
     16          1           0       -0.562619    1.830875    1.245641
     17          1           0       -1.193679   -1.439722   -0.416237
     18          1           0       -1.166773   -0.736878    1.209905
     19          1           0       -3.351531    0.572317    0.515060
 ---------------------------------------------------------------------

 SCF Done:  E(RB3LYP) =  -423.161891851     A.U. after    1 cycles

 The electronic state is 1-A.
 Alpha  occ. eigenvalues --  -19.15172 -19.13718 -10.26917 -10.26821 -10.21750
 Alpha  occ. eigenvalues --  -10.19849 -10.19125 -10.18894 -10.17980  -1.04388
 Alpha  occ. eigenvalues --   -1.03435  -0.80965  -0.79090  -0.73469  -0.67408
 Alpha  occ. eigenvalues --   -0.63868  -0.58280  -0.53601  -0.49108  -0.48390
 Alpha  occ. eigenvalues --   -0.46791  -0.46367  -0.43191  -0.42793  -0.40723
 Alpha  occ. eigenvalues --   -0.40028  -0.37998  -0.37174  -0.36304  -0.36171
 Alpha  occ. eigenvalues --   -0.29785  -0.26853  -0.26526  -0.24328
 Alpha virt. eigenvalues --   -0.02362   0.03124   0.04175   0.08779   0.10068
 Alpha virt. eigenvalues --    0.12515   0.13246   0.14066   0.14545   0.14927
 Alpha virt. eigenvalues --    0.16170   0.16686   0.18829   0.19986   0.21133

 Mulliken charges:
               1
     1  C   -0.366105
     2  C   -0.318511
     3  C    0.132416
     4  C    0.004789
     5  C   -0.075901
     6  O   -0.417464
     7  C   -0.275804
     8  C    0.147226
     9  O   -0.242718
    10  H    0.127148
    11  H    0.131274
    12  H    0.119296
    13  H    0.134757
    14  H    0.136495
    15  H    0.126584
    16  H    0.285943
    17  H    0.131169
    18  H    0.121684
    19  H    0.097722
 Sum of Mulliken charges =   0.00000

 Dipole moment (field-independent basis, Debye):
    X=              3.8541    Y=              0.4465    Z=              1.1908  Tot=              4.0585
 Quadrupole moment (field-independent basis, Debye-Ang):
   XX=            -58.9579   YY=            -58.2101   ZZ=            -49.9315
   XY=             -4.8627   XZ=             -1.9222   YZ=              0.6421

  Exact polarizability: 118.489  -2.680  69.049   0.881   2.591  60.578
 Approx polarizability: 158.732  -2.396 101.571   3.423   7.197  91.571

                      1                      2                      3
                      A                      A                      A
 Frequencies --      9.0216                55.6291                64.4589
 Red. masses --      2.4233                 4.4020                 4.0014
 Frc consts  --      0.0001                 0.0080                 0.0098
 IR Inten    --      0.5062                 4.2787                 2.6312

                      4                      5                      6
                      A                      A                      A
 Frequencies --     74.5168               138.6750               180.1612
 Red. masses --      2.5358                 2.8202                 3.2749
 Frc consts  --      0.0083                 0.0320                 0.0626
 IR Inten    --      2.9632                 0.6124                 0.7032

                      7                      8                      9
                      A                      A                      A
 Frequencies --    226.0108               262.2247               279.3796
 Red. masses --      1.4214                 3.3783                 1.1000
 Frc consts  --      0.0428                 0.1369                 0.0506
 IR Inten    --      1.3638                10.5676                95.7027

                     10                     11                     12
                      A                      A                      A
 Frequencies --    353.1844               364.9111               419.0368
 Red. masses --      3.1540                 3.6655                 5.3001
 Frc consts  --      0.2318                 0.2876                 0.5483
 IR Inten    --     10.9824                 3.4825                 7.3235

                     13                     14                     15
                      A                      A                      A
 Frequencies --    512.6555               555.7550               565.3770
 Red. masses --      2.6198                 4.8601                 3.4216
 Frc consts  --      0.4057                 0.8844                 0.6444
 IR Inten    --     10.6066                 5.7286                16.5131

                     16                     17                     18
                      A                      A                      A
 Frequencies --    757.5550               783.2563               807.0154
 Red. masses --      3.1862                 1.1840                 1.7509
 Frc consts  --      1.0773                 0.4280                 0.6719
 IR Inten    --     11.0091                 1.8228                 2.4560

                     19                     20                     21
                      A                      A                      A
 Frequencies --    885.4656               966.8179              1029.8768
 Red. masses --      2.8029                 2.3094                 3.6163
 Frc consts  --      1.2948                 1.2718                 2.2599
 IR Inten    --      6.8646                 1.5009                79.8989

                     22                     23                     24
                      A                      A                      A
 Frequencies --   1069.2417              1079.4945              1093.1545
 Red. masses --      2.2989                 2.0309                 2.9010
 Frc consts  --      1.5485                 1.3943                 2.0425
 IR Inten    --     53.3829                 1.4774                51.0988

                     25                     26                     27
                      A                      A                      A
 Frequencies --   1102.9443              1160.7945              1201.7809
 Red. masses --      1.4784                 2.4038                 1.3396
 Frc consts  --      1.0596                 1.9083                 1.1399
 IR Inten    --      0.7884                18.8561                 8.1133

                     28                     29                     30
                      A                      A                      A
 Frequencies --   1262.1452              1285.1394              1291.6853
 Red. masses --      1.3141                 1.1639                 1.3673
 Frc consts  --      1.2333                 1.1326                 1.3441
 IR Inten    --      1.8407                 0.1656                 6.0443

                     31                     32                     33
                      A                      A                      A
 Frequencies --   1349.5918              1350.3402              1409.6840
 Red. masses --      1.4906                 1.3301                 1.2116
 Frc consts  --      1.5996                 1.4289                 1.4186
 IR Inten    --     21.6808                30.9953                 1.6293

                     34                     35                     36
                      A                      A                      A
 Frequencies --   1413.3345              1422.1736              1448.6338
 Red. masses --      1.2033                 1.2552                 1.1021
 Frc consts  --      1.4162                 1.4957                 1.3627
 IR Inten    --     34.1303                66.7671                 4.8560

                     37                     38                     39
                      A                      A                      A
 Frequencies --   1471.5279              1495.4313              1505.3037
 Red. masses --      1.0734                 1.0397                 1.0556
 Frc consts  --      1.3695                 1.3699                 1.4092
 IR Inten    --      2.3336                 5.3469                 1.2958

                     40                     41                     42
                      A                      A                      A
 Frequencies --   1829.1926              2359.5581              2917.7238
 Red. masses --      9.9728                11.8972                 1.0837
 Frc consts  --     19.6602                39.0263                 5.4355
 IR Inten    --    190.1718                15.8119                76.8703

                     43                     44                     45
                      A                      A                      A
 Frequencies --   3017.8747              3023.4765              3034.6345
 Red. masses --      1.0696                 1.0590                 1.0794
 Frc consts  --      5.7398                 5.7037                 5.8568
 IR Inten    --      1.4626                20.8263                22.5421

                     46                     47                     48
                      A                      A                      A
 Frequencies --   3046.2194              3051.3879              3109.2834
 Red. masses --      1.0343                 1.1008                 1.0956
 Frc consts  --      5.6547                 6.0391                 6.2406
 IR Inten    --     25.8882                 6.7192                 8.9506

                     49                     50                     51
                      A                      A                      A
 Frequencies --   3120.4896              3124.8919              3805.7087
 Red. masses --      1.1023                 1.1029                 1.0662
 Frc consts  --      6.3243                 6.3456                 9.0984
 IR Inten    --     28.6830                23.4567                22.5286

 - Thermochemistry -
 -------------------
 Temperature   298.150 Kelvin.  Pressure   1.00000 Atm.
 Atom     1 has atomic number  6 and mass  12.00000

 Molecular mass:   126.06808 amu.
 Principal axes and moments of inertia in atomic units:
                           1         2         3
     Eigenvalues --   532.484043032.580863395.55412
           X            0.99981  -0.01953   0.00184
           Y            0.01955   0.99973  -0.01281
           Z           -0.00159   0.01284   0.99992
 This molecule is an asymmetric top.
 Rotational symmetry number  1.
 Warning -- assumption of classical behavior for rotation
           may cause significant error
 Rotational temperatures (Kelvin)      0.16266     0.02856     0.02551
 Rotational constants (GHZ):           3.38929     0.59512     0.53150
 Zero-point vibrational energy     407590.6 (Joules/Mol)
                                   97.41649 (Kcal/Mol)
 Warning -- explicit consideration of  15 degrees of freedom as
           vibrations may cause significant error
 Vibrational temperatures:     12.98    80.04    92.74   107.21   199.52
          (Kelvin)            259.21   325.18   377.28   401.96   508.15
                              525.03   602.90   737.60   799.61   813.45
                             1089.95  1126.93  1161.11  1273.99  1391.03
                             1481.76  1538.40  1553.15  1572.80  1586.89
                             1670.12  1729.09  1815.94  1849.03  1858.44
                             1941.76  1942.84  2028.22  2033.47  2046.19
                             2084.26  2117.20  2151.59  2165.79  2631.80
                             3394.87  4197.95  4342.04  4350.10  4366.16
                             4382.82  4390.26  4473.56  4489.68  4496.02
                             5475.56

 Zero-point correction=                           0.155243 (Hartree/Particle)
 Thermal correction to Energy=                    0.166303
 Thermal correction to Enthalpy=                  0.167248
 Thermal correction to Gibbs Free Energy=         0.115779
 Sum of electronic and zero-point Energies=           -423.006649
 Sum of electronic and thermal Energies=              -422.995588
 Sum of electronic and thermal Enthalpies=            -422.994644
 Sum of electronic and thermal Free Energies=         -423.046113

                     E (Thermal)             CV                S
                      KCal/Mol        Cal/Mol-Kelvin    Cal/Mol-Kelvin
 Total                  104.357             37.198            108.324
 Electronic               0.000              0.000              0.000
 Translational            0.889              2.981             40.409
 Rotational               0.889              2.981             30.084
 Vibrational            102.580             31.236             37.831
 Vibration     1          0.593              1.987              8.216
 Vibration     2          0.596              1.975              4.607
 Vibration     3          0.597              1.971              4.316
 Vibration     4          0.599              1.966              4.030
 Vibration     5          0.614              1.915              2.822
 Vibration     6          0.629              1.867              2.327
 Vibration     7          0.650              1.801              1.910
 Vibration     8          0.670              1.742              1.647
 Vibration     9          0.680              1.712              1.537
 Vibration    10          0.729              1.569              1.152
 Vibration    11          0.738              1.544              1.101
 Vibration    12          0.782              1.429              0.895
 Vibration    13          0.868              1.222              0.627
 Vibration    14          0.911              1.127              0.532
 Vibration    15          0.921              1.106              0.513

 Optimization completed on the basis of negligible forces.
    -- Stationary point found.
 Normal termination of Gaussian 09 at Tue Jan 28 09:03:20 2020.
