 Gaussian 09, Revision D.01,
 Gaussian 09:  ES64L-G09RevD.01 24-Apr-2013

 -----------------------------
 # b3lyp 6-31G(2df,p) opt Freq
 -----------------------------

 -----
 titel
 -----
 Symbolic Z-matrix:
 Charge =  0 Multiplicity = 1

 SCF Done:  E(RB3LYP) =  -423.161241689     A.U. after   13 cycles
 Optimization completed.
    -- Stationary point found.
 Normal termination of Gaussian 09 at Tue Jan 28 12:10:36 2020.

 ----------------------------------------------------------------------
 #N Geom=AllCheck Guess=TCheck SCRF=Check GenChk RB3LYP/6-31G(2df,p) Fr
 eq
 ----------------------------------------------------------------------

 Structure from the checkpoint file:  "/scratch/puck/g09_5bd14f74-b520-4ecb-a214-4dcf520342e0/Gau-25564.chk"
 -----
 titel
 -----
 Charge =  0 Multiplicity = 1

                         Standard orientation:
 ---------------------------------------------------------------------
 Center     Atomic      Atomic             Coordinates (Angstroms)
 Number     Number       Type             X           Y           Z
 ---------------------------------------------------------------------
      1          6           0       -2.380372   -0.487293   -0.635700
      2          8           0       -1.698718    0.394179    0.232166
      3          6           0       -0.315669    0.186441    0.359493
      4          6           0        0.372344    1.473233    0.855763
      5          8           0        1.141776    1.608805   -0.357676
      6          6           0        0.604019    0.368289   -0.891347
      7          6           0        1.557514   -0.787961   -0.823874
      8          6           0        1.296159   -1.585488    0.214451
      9          6           0        0.111167   -1.137448    1.035975
     10          1           0       -2.353712   -1.530012   -0.289432
     11          1           0       -3.421742   -0.158493   -0.659448
     12          1           0       -1.976235   -0.451689   -1.657167
     13          1           0       -0.324576    2.305737    0.998945
     14          1           0        1.010608    1.362355    1.740974
     15          1           0        0.145494    0.536899   -1.871821
     16          1           0        2.366272   -0.925582   -1.532528
     17          1           0        1.864361   -2.474749    0.468348
     18          1           0       -0.696736   -1.879105    1.026331
     19          1           0        0.370827   -0.987867    2.091316
 ---------------------------------------------------------------------

 SCF Done:  E(RB3LYP) =  -423.161241689     A.U. after    1 cycles

 The electronic state is 1-A.
 Alpha  occ. eigenvalues --  -19.14799 -19.12635 -10.23996 -10.22890 -10.22888
 Alpha  occ. eigenvalues --  -10.22217 -10.19358 -10.19052 -10.18345  -1.04973
 Alpha  occ. eigenvalues --   -1.02041  -0.83173  -0.74464  -0.70223  -0.66599
 Alpha  occ. eigenvalues --   -0.65890  -0.55633  -0.53354  -0.52592  -0.49106
 Alpha  occ. eigenvalues --   -0.45841  -0.45140  -0.44642  -0.41841  -0.41124
 Alpha  occ. eigenvalues --   -0.40180  -0.38658  -0.36211  -0.34626  -0.32048
 Alpha  occ. eigenvalues --   -0.29795  -0.26439  -0.24872  -0.24207
 Alpha virt. eigenvalues --    0.00714   0.08123   0.08904   0.12077   0.12428
 Alpha virt. eigenvalues --    0.12616   0.13289   0.14620   0.15565   0.16731
 Alpha virt. eigenvalues --    0.17321   0.19942   0.20644   0.21072   0.22004

 Mulliken charges:
               1
     1  C   -0.259979
     2  O   -0.295971
     3  C    0.371678
     4  C   -0.119434
     5  O   -0.293709
     6  C    0.018252
     7  C   -0.079005
     8  C   -0.062655
     9  C   -0.350285
    10  H    0.110232
    11  H    0.132764
    12  H    0.112712
    13  H    0.111118
    14  H    0.096136
    15  H    0.078917
    16  H    0.101303
    17  H    0.100825
    18  H    0.113252
    19  H    0.113849
 Sum of Mulliken charges =   0.00000

 Dipole moment (field-independent basis, Debye):
    X=             -0.7108    Y=             -2.2552    Z=              0.0753  Tot=              2.3658
 Quadrupole moment (field-independent basis, Debye-Ang):
   XX=            -53.4623   YY=            -54.7356   ZZ=            -50.5688
   XY=             -1.6398   XZ=              2.1067   YZ=              0.9681

  Exact polarizability:  76.686  -2.459  75.639  -1.835  -2.938  73.290
 Approx polarizability: 104.239   0.225 112.879  -7.019 -10.793 117.109

                      1                      2                      3
                      A                      A                      A
 Frequencies --     80.6694               107.7087               189.0427
 Red. masses --      3.1420                 1.5466                 1.8535
 Frc consts  --      0.0120                 0.0106                 0.0390
 IR Inten    --      0.7044                 1.2346                 1.6375

                      4                      5                      6
                      A                      A                      A
 Frequencies --    230.7684               274.5935               338.8758
 Red. masses --      2.3662                 3.0523                 3.0014
 Frc consts  --      0.0742                 0.1356                 0.2031
 IR Inten    --      5.6882                 0.1441                 3.9404

                      7                      8                      9
                      A                      A                      A
 Frequencies --    390.4105               482.9610               489.0427
 Red. masses --      2.8081                 2.5030                 3.0203
 Frc consts  --      0.2522                 0.3440                 0.4256
 IR Inten    --      1.6387                 1.9542                 4.7587

                     10                     11                     12
                      A                      A                      A
 Frequencies --    583.5847               674.5922               738.2572
 Red. masses --      4.1695                 4.5731                 1.7422
 Frc consts  --      0.8367                 1.2262                 0.5595
 IR Inten    --      4.9367                 3.6988                14.9058

                     13                     14                     15
                      A                      A                      A
 Frequencies --    782.2060               857.0999               914.3428
 Red. masses --      3.2142                 2.7999                 1.7093
 Frc consts  --      1.1587                 1.2119                 0.8420
 IR Inten    --     10.5261                12.7391                 3.0407

                     16                     17                     18
                      A                      A                      A
 Frequencies --    926.1476               962.0346               972.9068
 Red. masses --      2.1228                 2.0499                 3.1097
 Frc consts  --      1.0728                 1.1178                 1.7343
 IR Inten    --      0.8460                 9.1615                30.8359

                     19                     20                     21
                      A                      A                      A
 Frequencies --    982.5930              1010.3233              1022.9303
 Red. masses --      1.3736                 5.8692                 2.7599
 Frc consts  --      0.7814                 3.5298                 1.7015
 IR Inten    --      4.2418                40.3495                49.8529

                     22                     23                     24
                      A                      A                      A
 Frequencies --   1071.7152              1083.7869              1124.6781
 Red. masses --      2.8915                 2.5061                 1.5304
 Frc consts  --      1.9567                 1.7343                 1.1406
 IR Inten    --     18.9323                22.4343                25.7656

                     25                     26                     27
                      A                      A                      A
 Frequencies --   1147.6335              1153.8733              1181.3450
 Red. masses --      1.4296                 1.5308                 1.2883
 Frc consts  --      1.1093                 1.2009                 1.0593
 IR Inten    --     21.4459                19.5427                 2.3522

                     28                     29                     30
                      A                      A                      A
 Frequencies --   1189.5906              1231.3591              1249.9045
 Red. masses --      1.8158                 1.7744                 1.8219
 Frc consts  --      1.5140                 1.5851                 1.6770
 IR Inten    --      5.5935                36.1813                 3.2858

                     31                     32                     33
                      A                      A                      A
 Frequencies --   1273.3024              1302.3179              1329.7930
 Red. masses --      1.7030                 1.3742                 1.6905
 Frc consts  --      1.6267                 1.3732                 1.7613
 IR Inten    --     35.5740                16.4793                17.2297

                     34                     35                     36
                      A                      A                      A
 Frequencies --   1362.9490              1376.0453              1475.0626
 Red. masses --      1.7059                 1.7321                 1.1146
 Frc consts  --      1.8671                 1.9323                 1.4288
 IR Inten    --     20.7881                 7.5098                 3.2312

                     37                     38                     39
                      A                      A                      A
 Frequencies --   1482.2831              1497.5694              1506.6211
 Red. masses --      1.1146                 1.0680                 1.0571
 Frc consts  --      1.4429                 1.4112                 1.4137
 IR Inten    --      0.5464                 8.8325                 9.1007

                     40                     41                     42
                      A                      A                      A
 Frequencies --   1510.6042              1672.9798              2993.0958
 Red. masses --      1.0994                 6.1864                 1.0359
 Frc consts  --      1.4781                10.2016                 5.4675
 IR Inten    --      1.0182                 2.2558                38.5136

                     43                     44                     45
                      A                      A                      A
 Frequencies --   3018.0725              3028.0060              3041.8802
 Red. masses --      1.0580                 1.0613                 1.0984
 Frc consts  --      5.6782                 5.7333                 5.9881
 IR Inten    --     52.9711                23.2153                32.2352

                     46                     47                     48
                      A                      A                      A
 Frequencies --   3051.1497              3054.8205              3078.2491
 Red. masses --      1.0886                 1.1009                 1.1086
 Frc consts  --      5.9709                 6.0527                 6.1891
 IR Inten    --     61.1611                22.5511                34.5193

                     49                     50                     51
                      A                      A                      A
 Frequencies --   3119.5149              3177.5944              3205.8486
 Red. masses --      1.0973                 1.0858                 1.1021
 Frc consts  --      6.2915                 6.4597                 6.6738
 IR Inten    --     26.1830                 8.9796                19.5239

 - Thermochemistry -
 -------------------
 Temperature   298.150 Kelvin.  Pressure   1.00000 Atm.
 Atom     1 has atomic number  6 and mass  12.00000

 Molecular mass:   126.06808 amu.
 Principal axes and moments of inertia in atomic units:
                           1         2         3
     Eigenvalues --   776.784871042.622991333.81792
           X            0.99956  -0.00109   0.02972
           Y            0.00065   0.99989   0.01481
           Z           -0.02973  -0.01479   0.99945
 This molecule is an asymmetric top.
 Rotational symmetry number  1.
 Warning -- assumption of classical behavior for rotation
           may cause significant error
 Rotational temperatures (Kelvin)      0.11150     0.08307     0.06494
 Rotational constants (GHZ):           2.32335     1.73096     1.35306
 Zero-point vibrational energy     418709.3 (Joules/Mol)
                                  100.07394 (Kcal/Mol)
 Warning -- explicit consideration of  10 degrees of freedom as
           vibrations may cause significant error
 Vibrational temperatures:    116.07   154.97   271.99   332.02   395.08
          (Kelvin)            487.57   561.71   694.87   703.62   839.65
                              970.59  1062.19  1125.42  1233.17  1315.53
                             1332.52  1384.15  1399.79  1413.73  1453.63
                             1471.77  1541.96  1559.33  1618.16  1651.19
                             1660.16  1699.69  1711.55  1771.65  1798.33
                             1832.00  1873.74  1913.27  1960.98  1979.82
                             2122.28  2132.67  2154.67  2167.69  2173.42
                             2407.04  4306.39  4342.33  4356.62  4376.58
                             4389.92  4395.20  4428.91  4488.28  4571.84
                             4612.50

 Zero-point correction=                           0.159478 (Hartree/Particle)
 Thermal correction to Energy=                    0.167600
 Thermal correction to Enthalpy=                  0.168544
 Thermal correction to Gibbs Free Energy=         0.126637
 Sum of electronic and zero-point Energies=           -423.001764
 Sum of electronic and thermal Energies=              -422.993642
 Sum of electronic and thermal Enthalpies=            -422.992698
 Sum of electronic and thermal Free Energies=         -423.034605

                     E (Thermal)             CV                S
                      KCal/Mol        Cal/Mol-Kelvin    Cal/Mol-Kelvin
 Total                  105.170             30.950             88.200
 Electronic               0.000              0.000              0.000
 Translational            0.889              2.981             40.409
 Rotational               0.889              2.981             28.470
 Vibrational            103.393             24.988             19.321
 Vibration     1          0.600              1.962              3.875
 Vibration     2          0.606              1.943              3.310
 Vibration     3          0.633              1.855              2.237
 Vibration     4          0.652              1.794              1.873
 Vibration     5          0.677              1.720              1.567
 Vibration     6          0.719              1.598              1.217
 Vibration     7          0.758              1.491              0.999
 Vibration     8          0.839              1.288              0.702
 Vibration     9          0.845              1.274              0.686
 Vibration    10          0.940              1.067              0.479

 Normal termination of Gaussian 09 at Tue Jan 28 12:58:23 2020.
