 Gaussian 09, Revision D.01,
 Gaussian 09:  ES64L-G09RevD.01 24-Apr-2013

 -----------------------------
 # b3lyp 6-31G(2df,p) opt Freq
 -----------------------------

 -----
 titel
 -----
 Symbolic Z-matrix:
 Charge =  0 Multiplicity = 1

 SCF Done:  E(RB3LYP) =  -423.151314426     A.U. after   12 cycles
 Optimization completed.
    -- Stationary point found.
 Normal termination of Gaussian 09 at Mon Jan 27 18:00:00 2020.

 ----------------------------------------------------------------------
 #N Geom=AllCheck Guess=TCheck SCRF=Check GenChk RB3LYP/6-31G(2df,p) Fr
 eq
 ----------------------------------------------------------------------

 Structure from the checkpoint file:  "/scratch/puck/g09_f4b4f8d7-91ca-4ad9-8d23-24b6cbfb739b/Gau-45951.chk"
 -----
 titel
 -----
 Charge =  0 Multiplicity = 1

                         Standard orientation:
 ---------------------------------------------------------------------
 Center     Atomic      Atomic             Coordinates (Angstroms)
 Number     Number       Type             X           Y           Z
 ---------------------------------------------------------------------
      1          6           0       -2.420358   -0.699160    0.333348
      2          6           0       -1.043427   -0.208809   -0.000306
      3          6           0       -0.798127    0.933443   -1.011473
      4          6           0        0.665615    1.095742   -0.577626
      5          8           0        0.512490    1.536727    0.805945
      6          6           0        0.082119    0.200836    1.065619
      7          6           0        0.929341   -0.405490   -0.058105
      8          6           0        2.298876   -1.004683   -0.007577
      9          8           0       -0.135688   -1.231860   -0.533898
     10          1           0       -3.014926    0.112452    0.764380
     11          1           0       -2.933367   -1.059146   -0.564660
     12          1           0       -2.378134   -1.520820    1.054285
     13          1           0       -0.943616    0.579093   -2.033927
     14          1           0       -1.364417    1.848903   -0.827688
     15          1           0        1.369376    1.691282   -1.156818
     16          1           0        0.015067   -0.097104    2.111505
     17          1           0        2.660747   -1.229318   -1.016438
     18          1           0        2.994815   -0.301837    0.459846
     19          1           0        2.295798   -1.933715    0.569858
 ---------------------------------------------------------------------

 SCF Done:  E(RB3LYP) =  -423.151314426     A.U. after    2 cycles

 The electronic state is 1-A.
 Alpha  occ. eigenvalues --  -19.13864 -19.13446 -10.24118 -10.24028 -10.23530
 Alpha  occ. eigenvalues --  -10.23235 -10.18415 -10.18311 -10.18155  -1.07933
 Alpha  occ. eigenvalues --   -1.01806  -0.78014  -0.75850  -0.72888  -0.69190
 Alpha  occ. eigenvalues --   -0.63417  -0.55912  -0.53580  -0.49939  -0.47923
 Alpha  occ. eigenvalues --   -0.46577  -0.43534  -0.42046  -0.41190  -0.40300
 Alpha  occ. eigenvalues --   -0.40115  -0.38524  -0.35919  -0.35568  -0.33852
 Alpha  occ. eigenvalues --   -0.30985  -0.29991  -0.25194  -0.23735
 Alpha virt. eigenvalues --    0.07899   0.10504   0.10804   0.11264   0.13121
 Alpha virt. eigenvalues --    0.13921   0.14154   0.14704   0.15840   0.17114
 Alpha virt. eigenvalues --    0.17529   0.17785   0.18474   0.18968   0.21015

 Mulliken charges:
               1
     1  C   -0.508673
     2  C    0.378578
     3  C   -0.244089
     4  C   -0.012382
     5  O   -0.298504
     6  C   -0.038029
     7  C    0.433365
     8  C   -0.521883
     9  O   -0.357584
    10  H    0.127850
    11  H    0.131569
    12  H    0.127418
    13  H    0.107362
    14  H    0.107103
    15  H    0.081493
    16  H    0.087263
    17  H    0.131506
    18  H    0.136646
    19  H    0.130991
 Sum of Mulliken charges =   0.00000

 Dipole moment (field-independent basis, Debye):
    X=             -0.1516    Y=             -0.1859    Z=             -0.1463  Tot=              0.2809
 Quadrupole moment (field-independent basis, Debye-Ang):
   XX=            -48.7593   YY=            -57.7421   ZZ=            -51.9417
   XY=             -1.3028   XZ=             -1.3536   YZ=             -4.2510

  Exact polarizability:  84.614  -0.390  70.353  -0.613  -3.889  68.752
 Approx polarizability: 110.401   1.965 110.119  -0.399  -0.526 106.643

                      1                      2                      3
                      A                      A                      A
 Frequencies --    191.6353               207.8283               211.4160
 Red. masses --      1.1225                 1.0866                 2.5457
 Frc consts  --      0.0243                 0.0277                 0.0670
 IR Inten    --      0.5737                 0.2985                 0.9653

                      4                      5                      6
                      A                      A                      A
 Frequencies --    238.0967               259.5451               328.9866
 Red. masses --      2.0125                 2.8812                 2.4948
 Frc consts  --      0.0672                 0.1144                 0.1591
 IR Inten    --      1.1494                 0.3797                 0.0924

                      7                      8                      9
                      A                      A                      A
 Frequencies --    462.3736               533.8348               539.2646
 Red. masses --      1.9119                 4.5355                 4.5044
 Frc consts  --      0.2408                 0.7615                 0.7718
 IR Inten    --      1.0407                 9.5184                12.3657

                     10                     11                     12
                      A                      A                      A
 Frequencies --    600.7718               631.0611               708.4821
 Red. masses --      3.6854                 3.3819                 4.6447
 Frc consts  --      0.7837                 0.7935                 1.3736
 IR Inten    --      0.0561                 0.5485                 2.5211

                     13                     14                     15
                      A                      A                      A
 Frequencies --    762.6893               793.9069               853.8590
 Red. masses --      3.5649                 3.9267                 4.4873
 Frc consts  --      1.2218                 1.4582                 1.9276
 IR Inten    --      2.7206                23.8877                22.3954

                     16                     17                     18
                      A                      A                      A
 Frequencies --    868.0537               878.7068               902.8873
 Red. masses --      1.9535                 2.4246                 2.5824
 Frc consts  --      0.8673                 1.1030                 1.2403
 IR Inten    --      8.9457                 3.0437                13.6531

                     19                     20                     21
                      A                      A                      A
 Frequencies --    937.3777               960.1916               991.1126
 Red. masses --      2.2926                 2.3424                 1.7433
 Frc consts  --      1.1869                 1.2724                 1.0089
 IR Inten    --     17.1583                32.9693                 7.6395

                     22                     23                     24
                      A                      A                      A
 Frequencies --   1039.3643              1055.4321              1091.8160
 Red. masses --      2.3995                 1.5864                 1.5600
 Frc consts  --      1.5273                 1.0412                 1.0957
 IR Inten    --     11.0764                13.1569                 0.4854

                     25                     26                     27
                      A                      A                      A
 Frequencies --   1124.8495              1138.2886              1164.4217
 Red. masses --      1.9637                 1.8983                 2.1776
 Frc consts  --      1.4639                 1.4492                 1.7396
 IR Inten    --     27.0022                 0.0763                 5.6529

                     28                     29                     30
                      A                      A                      A
 Frequencies --   1202.1022              1226.6937              1229.7558
 Red. masses --      1.7458                 1.8347                 1.9114
 Frc consts  --      1.4864                 1.6266                 1.7031
 IR Inten    --     11.7318                32.1430                 7.4714

                     31                     32                     33
                      A                      A                      A
 Frequencies --   1237.7497              1305.3990              1323.1425
 Red. masses --      2.0548                 1.7711                 2.3148
 Frc consts  --      1.8547                 1.7782                 2.3877
 IR Inten    --     19.2294                12.2770                17.3284

                     34                     35                     36
                      A                      A                      A
 Frequencies --   1385.8383              1411.2241              1432.0943
 Red. masses --      1.4815                 1.4005                 2.5333
 Frc consts  --      1.6764                 1.6433                 3.0611
 IR Inten    --      0.2174                14.7383                 2.8555

                     37                     38                     39
                      A                      A                      A
 Frequencies --   1463.0902              1478.5662              1480.0902
 Red. masses --      1.1819                 1.0464                 1.0650
 Frc consts  --      1.4906                 1.3479                 1.3746
 IR Inten    --      4.1435                 0.5000                 7.8230

                     40                     41                     42
                      A                      A                      A
 Frequencies --   1491.9063              1494.5390              3036.9671
 Red. masses --      1.0496                 1.0542                 1.0352
 Frc consts  --      1.3764                 1.3874                 5.6253
 IR Inten    --      2.6808                 4.7967                20.1543

                     43                     44                     45
                      A                      A                      A
 Frequencies --   3038.8751              3074.9676              3106.1801
 Red. masses --      1.0351                 1.0572                 1.1010
 Frc consts  --      5.6322                 5.8899                 6.2587
 IR Inten    --     16.3540                17.9378                12.1203

                     46                     47                     48
                      A                      A                      A
 Frequencies --   3107.7027              3114.4119              3119.8903
 Red. masses --      1.1007                 1.1015                 1.1014
 Frc consts  --      6.2634                 6.2949                 6.3167
 IR Inten    --     13.6713                12.7645                10.5131

                     49                     50                     51
                      A                      A                      A
 Frequencies --   3128.8775              3137.2724              3139.8982
 Red. masses --      1.0917                 1.1048                 1.0965
 Frc consts  --      6.2969                 6.4069                 6.3694
 IR Inten    --     41.2046                15.6137                21.8697

 - Thermochemistry -
 -------------------
 Temperature   298.150 Kelvin.  Pressure   1.00000 Atm.
 Atom     1 has atomic number  6 and mass  12.00000

 Molecular mass:   126.06808 amu.
 Principal axes and moments of inertia in atomic units:
                           1         2         3
     Eigenvalues --   656.387361015.861151243.62247
           X            0.99950  -0.03054  -0.00844
           Y            0.02967   0.99555  -0.08946
           Z            0.01113   0.08916   0.99595
 This molecule is an asymmetric top.
 Rotational symmetry number  1.
 Warning -- assumption of classical behavior for rotation
           may cause significant error
 Rotational temperatures (Kelvin)      0.13196     0.08526     0.06965
 Rotational constants (GHZ):           2.74951     1.77656     1.45120
 Zero-point vibrational energy     416560.6 (Joules/Mol)
                                   99.56036 (Kcal/Mol)
 Warning -- explicit consideration of  10 degrees of freedom as
           vibrations may cause significant error
 Vibrational temperatures:    275.72   299.02   304.18   342.57   373.43
          (Kelvin)            473.34   665.25   768.07   775.88   864.38
                              907.96  1019.35  1097.34  1142.25  1228.51
                             1248.93  1264.26  1299.05  1348.68  1381.50
                             1425.99  1495.41  1518.53  1570.88  1618.41
                             1637.74  1675.34  1729.55  1764.94  1769.34
                             1780.84  1878.18  1903.70  1993.91  2030.43
                             2060.46  2105.06  2127.32  2129.52  2146.52
                             2150.31  4369.51  4372.26  4424.19  4469.09
                             4471.29  4480.94  4488.82  4501.75  4513.83
                             4517.61

 Zero-point correction=                           0.158660 (Hartree/Particle)
 Thermal correction to Energy=                    0.166398
 Thermal correction to Enthalpy=                  0.167342
 Thermal correction to Gibbs Free Energy=         0.127048
 Sum of electronic and zero-point Energies=           -422.992655
 Sum of electronic and thermal Energies=              -422.984917
 Sum of electronic and thermal Enthalpies=            -422.983972
 Sum of electronic and thermal Free Energies=         -423.024267

                     E (Thermal)             CV                S
                      KCal/Mol        Cal/Mol-Kelvin    Cal/Mol-Kelvin
 Total                  104.416             31.298             84.807
 Electronic               0.000              0.000              0.000
 Translational            0.889              2.981             40.409
 Rotational               0.889              2.981             28.208
 Vibrational            102.639             25.336             16.191
 Vibration     1          0.634              1.851              2.212
 Vibration     2          0.641              1.829              2.063
 Vibration     3          0.643              1.823              2.031
 Vibration     4          0.656              1.782              1.817
 Vibration     5          0.668              1.747              1.665
 Vibration     6          0.712              1.618              1.265
 Vibration     7          0.820              1.334              0.759
 Vibration     8          0.889              1.175              0.579
 Vibration     9          0.894              1.163              0.567
 Vibration    10          0.959              1.030              0.448

 Optimization completed.
    -- Stationary point found.
 Normal termination of Gaussian 09 at Mon Jan 27 18:43:17 2020.
