 Gaussian 09, Revision D.01,
 Gaussian 09:  ES64L-G09RevD.01 24-Apr-2013

 -----------------------------
 # b3lyp 6-31G(2df,p) opt Freq
 -----------------------------

 -----
 titel
 -----
 Symbolic Z-matrix:
 Charge =  0 Multiplicity = 1

 SCF Done:  E(RB3LYP) =  -423.129558088     A.U. after   14 cycles
 Optimization completed.
    -- Stationary point found.
 Normal termination of Gaussian 09 at Tue Jan 28 11:46:29 2020.

 ----------------------------------------------------------------------
 #N Geom=AllCheck Guess=TCheck SCRF=Check GenChk RB3LYP/6-31G(2df,p) Fr
 eq
 ----------------------------------------------------------------------

 Structure from the checkpoint file:  "/scratch/puck/g09_b9f15951-11e5-4fb4-8155-b303662987d8/Gau-89533.chk"
 -----
 titel
 -----
 Charge =  0 Multiplicity = 1

                         Standard orientation:
 ---------------------------------------------------------------------
 Center     Atomic      Atomic             Coordinates (Angstroms)
 Number     Number       Type             X           Y           Z
 ---------------------------------------------------------------------
      1          6           0       -2.736323   -0.685454   -0.409843
      2          8           0       -1.329280   -0.706670   -0.358585
      3          6           0       -0.778421    0.070411    0.676823
      4          6           0       -0.660054    1.589636    0.274707
      5          6           0        0.657227    1.640662   -0.499950
      6          6           0        1.409926    0.622582   -0.105162
      7          6           0        2.272231   -0.540019   -0.528043
      8          8           0        1.345151   -1.431211    0.168043
      9          6           0        0.718284   -0.297579    0.841965
     10          1           0       -3.181157   -1.041960    0.532548
     11          1           0       -3.139387    0.316886   -0.620336
     12          1           0       -3.037047   -1.356085   -1.218339
     13          1           0       -1.358567   -0.065216    1.602495
     14          1           0       -1.509757    1.902194   -0.340892
     15          1           0       -0.664843    2.231569    1.166047
     16          1           0        0.842165    2.330904   -1.314036
     17          1           0        2.332588   -0.747682   -1.601629
     18          1           0        3.274826   -0.593974   -0.083900
     19          1           0        1.016983   -0.275024    1.899393
 ---------------------------------------------------------------------

 SCF Done:  E(RB3LYP) =  -423.129558088     A.U. after    1 cycles

 The electronic state is 1-A.
 Alpha  occ. eigenvalues --  -19.13889 -19.13352 -10.23738 -10.23599 -10.22473
 Alpha  occ. eigenvalues --  -10.22386 -10.18989 -10.18583 -10.18307  -1.04092
 Alpha  occ. eigenvalues --   -1.02482  -0.82995  -0.73374  -0.69452  -0.67611
 Alpha  occ. eigenvalues --   -0.65000  -0.57195  -0.52951  -0.50327  -0.49291
 Alpha  occ. eigenvalues --   -0.46474  -0.44827  -0.44085  -0.42786  -0.40889
 Alpha  occ. eigenvalues --   -0.39679  -0.36567  -0.36179  -0.33160  -0.31754
 Alpha  occ. eigenvalues --   -0.30103  -0.25969  -0.24759  -0.23565
 Alpha virt. eigenvalues --    0.00637   0.07098   0.08992   0.11306   0.13028
 Alpha virt. eigenvalues --    0.13189   0.14318   0.15397   0.16331   0.16945
 Alpha virt. eigenvalues --    0.17437   0.18029   0.18561   0.19478   0.22164

 Mulliken charges:
               1
     1  C   -0.234158
     2  O   -0.226590
     3  C    0.063561
     4  C   -0.281225
     5  C   -0.198167
     6  C    0.201004
     7  C   -0.155986
     8  O   -0.297701
     9  C    0.104447
    10  H    0.105668
    11  H    0.102876
    12  H    0.130447
    13  H    0.056680
    14  H    0.111892
    15  H    0.108338
    16  H    0.100314
    17  H    0.123791
    18  H    0.107466
    19  H    0.077342
 Sum of Mulliken charges =   0.00000

 Dipole moment (field-independent basis, Debye):
    X=             -0.7694    Y=              1.9135    Z=              0.2569  Tot=              2.0784
 Quadrupole moment (field-independent basis, Debye-Ang):
   XX=            -47.0966   YY=            -56.6128   ZZ=            -50.9124
   XY=              0.7915   XZ=             -1.3312   YZ=             -0.3780

  Exact polarizability:  89.887  -7.076  76.029  -2.876  -2.914  68.405
 Approx polarizability: 118.811 -16.261 120.017  -2.046  -7.104 104.261

                      1                      2                      3
                      A                      A                      A
 Frequencies --     86.9055               109.9991               165.8611
 Red. masses --      2.7354                 2.3295                 2.4297
 Frc consts  --      0.0122                 0.0166                 0.0394
 IR Inten    --      2.3662                 1.3225                 0.7777

                      4                      5                      6
                      A                      A                      A
 Frequencies --    208.9897               258.5329               318.0797
 Red. masses --      1.7400                 2.4188                 3.0231
 Frc consts  --      0.0448                 0.0953                 0.1802
 IR Inten    --      0.6559                 4.8598                 1.7626

                      7                      8                      9
                      A                      A                      A
 Frequencies --    349.2290               397.3926               504.4847
 Red. masses --      2.9155                 2.6075                 3.9998
 Frc consts  --      0.2095                 0.2426                 0.5998
 IR Inten    --      3.7172                 0.5577                 6.9676

                     10                     11                     12
                      A                      A                      A
 Frequencies --    671.2179               740.8129               762.3980
 Red. masses --      4.5382                 2.5367                 5.5751
 Frc consts  --      1.2046                 0.8202                 1.9093
 IR Inten    --      3.1872                 2.4774                 2.4971

                     13                     14                     15
                      A                      A                      A
 Frequencies --    831.4922               840.3799               873.5286
 Red. masses --      2.0571                 1.8085                 4.0295
 Frc consts  --      0.8380                 0.7525                 1.8116
 IR Inten    --     23.1871                13.6933                22.1924

                     16                     17                     18
                      A                      A                      A
 Frequencies --    914.8229               923.1465               965.1812
 Red. masses --      3.4464                 2.3043                 2.3066
 Frc consts  --      1.6994                 1.1570                 1.2660
 IR Inten    --     16.4648                33.0876                 6.2693

                     19                     20                     21
                      A                      A                      A
 Frequencies --    970.8250              1008.2892              1039.6061
 Red. masses --      4.1893                 1.8717                 3.1000
 Frc consts  --      2.3264                 1.1211                 1.9740
 IR Inten    --     51.4868                 2.6567                 0.8939

                     22                     23                     24
                      A                      A                      A
 Frequencies --   1070.2800              1110.6076              1137.1566
 Red. masses --      2.5430                 1.9387                 1.2017
 Frc consts  --      1.7163                 1.4089                 0.9155
 IR Inten    --     37.6629                 5.7268                13.3646

                     25                     26                     27
                      A                      A                      A
 Frequencies --   1142.9402              1181.0544              1187.6686
 Red. masses --      2.4881                 1.3338                 1.3764
 Frc consts  --      1.9150                 1.0962                 1.1439
 IR Inten    --     84.0765                 3.4141                20.5732

                     28                     29                     30
                      A                      A                      A
 Frequencies --   1226.0159              1232.6759              1239.0060
 Red. masses --      1.6484                 1.8969                 1.4481
 Frc consts  --      1.4598                 1.6982                 1.3098
 IR Inten    --     40.9982                12.2538                 2.3922

                     31                     32                     33
                      A                      A                      A
 Frequencies --   1286.9456              1317.6769              1341.9431
 Red. masses --      1.3683                 1.4330                 1.4356
 Frc consts  --      1.3352                 1.4659                 1.5232
 IR Inten    --      6.6943                 0.9801                11.5641

                     34                     35                     36
                      A                      A                      A
 Frequencies --   1356.7743              1389.8830              1469.2442
 Red. masses --      1.6919                 1.2845                 1.0937
 Frc consts  --      1.8350                 1.4620                 1.3910
 IR Inten    --      0.8259                35.9222                 0.9751

                     37                     38                     39
                      A                      A                      A
 Frequencies --   1480.8309              1491.0553              1507.9386
 Red. masses --      1.1148                 1.0739                 1.1046
 Frc consts  --      1.4403                 1.4068                 1.4798
 IR Inten    --      2.1563                 3.8461                 1.3176

                     40                     41                     42
                      A                      A                      A
 Frequencies --   1509.3404              1748.6043              2972.0043
 Red. masses --      1.0662                 8.6842                 1.0430
 Frc consts  --      1.4310                15.6445                 5.4280
 IR Inten    --      6.7348                 3.5218                36.2891

                     43                     44                     45
                      A                      A                      A
 Frequencies --   2982.2841              3003.7705              3013.9747
 Red. masses --      1.0764                 1.0796                 1.0637
 Frc consts  --      5.6405                 5.7394                 5.6930
 IR Inten    --     41.7460                74.5519                89.4445

                     46                     47                     48
                      A                      A                      A
 Frequencies --   3018.4448              3022.0139              3073.3638
 Red. masses --      1.0957                 1.0770                 1.1038
 Frc consts  --      5.8819                 5.7951                 6.1429
 IR Inten    --     60.8697                49.7142                28.3111

                     49                     50                     51
                      A                      A                      A
 Frequencies --   3078.0090              3114.9978              3205.1119
 Red. masses --      1.0937                 1.0958                 1.0955
 Frc consts  --      6.1051                 6.2645                 6.6305
 IR Inten    --     22.5518                26.9516                10.9246

 - Thermochemistry -
 -------------------
 Temperature   298.150 Kelvin.  Pressure   1.00000 Atm.
 Atom     1 has atomic number  6 and mass  12.00000

 Molecular mass:   126.06808 amu.
 Principal axes and moments of inertia in atomic units:
                           1         2         3
     Eigenvalues --   630.416081245.274411589.19623
           X            0.99998   0.00030  -0.00616
           Y           -0.00028   0.99999   0.00425
           Z            0.00616  -0.00424   0.99997
 This molecule is an asymmetric top.
 Rotational symmetry number  1.
 Warning -- assumption of classical behavior for rotation
           may cause significant error
 Rotational temperatures (Kelvin)      0.13739     0.06955     0.05450
 Rotational constants (GHZ):           2.86278     1.44927     1.13563
 Zero-point vibrational energy     417812.5 (Joules/Mol)
                                   99.85958 (Kcal/Mol)
 Warning -- explicit consideration of   9 degrees of freedom as
           vibrations may cause significant error
 Vibrational temperatures:    125.04   158.26   238.64   300.69   371.97
          (Kelvin)            457.65   502.46   571.76   725.84   965.73
                             1065.86  1096.92  1196.33  1209.12  1256.81
                             1316.22  1328.20  1388.68  1396.80  1450.70
                             1495.76  1539.89  1597.91  1636.11  1644.43
                             1699.27  1708.79  1763.96  1773.54  1782.65
                             1851.63  1895.84  1930.75  1952.09  1999.73
                             2113.91  2130.58  2145.29  2169.58  2171.60
                             2515.85  4276.05  4290.84  4321.75  4336.43
                             4342.86  4348.00  4421.88  4428.56  4481.78
                             4611.44

 Zero-point correction=                           0.159136 (Hartree/Particle)
 Thermal correction to Energy=                    0.167385
 Thermal correction to Enthalpy=                  0.168329
 Thermal correction to Gibbs Free Energy=         0.126066
 Sum of electronic and zero-point Energies=           -422.970422
 Sum of electronic and thermal Energies=              -422.962173
 Sum of electronic and thermal Enthalpies=            -422.961229
 Sum of electronic and thermal Free Energies=         -423.003492

                     E (Thermal)             CV                S
                      KCal/Mol        Cal/Mol-Kelvin    Cal/Mol-Kelvin
 Total                  105.036             30.940             88.950
 Electronic               0.000              0.000              0.000
 Translational            0.889              2.981             40.409
 Rotational               0.889              2.981             28.613
 Vibrational            103.258             24.979             19.928
 Vibration     1          0.601              1.958              3.729
 Vibration     2          0.606              1.941              3.269
 Vibration     3          0.624              1.884              2.482
 Vibration     4          0.642              1.827              2.052
 Vibration     5          0.667              1.748              1.672
 Vibration     6          0.704              1.639              1.320
 Vibration     7          0.726              1.577              1.170
 Vibration     8          0.764              1.476              0.972
 Vibration     9          0.860              1.240              0.647

 Optimization completed.
    -- Stationary point found.
 Normal termination of Gaussian 09 at Tue Jan 28 13:24:08 2020.
