 Gaussian 09, Revision D.01,
 Gaussian 09:  ES64L-G09RevD.01 24-Apr-2013

 -----------------------------
 # b3lyp 6-31G(2df,p) opt Freq
 -----------------------------

 -----
 titel
 -----
 Symbolic Z-matrix:
 Charge =  0 Multiplicity = 1

 SCF Done:  E(RB3LYP) =  -423.166337552     A.U. after   14 cycles
 Optimization completed.
    -- Stationary point found.
 Normal termination of Gaussian 09 at Mon Jan 27 22:13:59 2020.

 ----------------------------------------------------------------------
 #N Geom=AllCheck Guess=TCheck SCRF=Check GenChk RB3LYP/6-31G(2df,p) Fr
 eq
 ----------------------------------------------------------------------

 Structure from the checkpoint file:  "/scratch/puck/g09_527b437d-183c-4f5c-82d1-999c3a7a6cf0/Gau-28593.chk"
 -----
 titel
 -----
 Charge =  0 Multiplicity = 1

                         Standard orientation:
 ---------------------------------------------------------------------
 Center     Atomic      Atomic             Coordinates (Angstroms)
 Number     Number       Type             X           Y           Z
 ---------------------------------------------------------------------
      1          6           0        2.030168   -1.774835   -0.100715
      2          6           0        0.736719   -1.192248    0.431478
      3          6           0       -0.358324   -0.869663   -0.523963
      4          6           0       -1.652773   -0.492910    0.221470
      5          8           0       -2.661124    0.071441   -0.585091
      6          6           0       -0.891262    0.634033    0.972527
      7          6           0        0.393049    0.278617    0.218124
      8          6           0        1.309441    1.272221   -0.347828
      9          8           0        1.222067    2.462279   -0.143391
     10          1           0        1.959567   -2.866724   -0.140303
     11          1           0        2.253258   -1.424668   -1.112456
     12          1           0        2.879471   -1.517062    0.539757
     13          1           0        0.450636   -1.583371    1.408560
     14          1           0       -0.293813   -1.118514   -1.578040
     15          1           0       -2.053493   -1.300485    0.852058
     16          1           0       -3.064177   -0.634750   -1.100999
     17          1           0       -1.278769    1.608934    0.674802
     18          1           0       -0.851572    0.569804    2.063392
     19          1           0        2.109240    0.865791   -1.005467
 ---------------------------------------------------------------------

 SCF Done:  E(RB3LYP) =  -423.166337552     A.U. after    1 cycles

 The electronic state is 1-A.
 Alpha  occ. eigenvalues --  -19.14519 -19.12431 -10.26083 -10.24530 -10.21593
 Alpha  occ. eigenvalues --  -10.20874 -10.20676 -10.19478 -10.18579  -1.03187
 Alpha  occ. eigenvalues --   -1.02914  -0.90926  -0.76575  -0.69679  -0.68309
 Alpha  occ. eigenvalues --   -0.62191  -0.57657  -0.52640  -0.52561  -0.49968
 Alpha  occ. eigenvalues --   -0.48666  -0.43688  -0.42116  -0.41259  -0.40225
 Alpha  occ. eigenvalues --   -0.39093  -0.38434  -0.37693  -0.36432  -0.32895
 Alpha  occ. eigenvalues --   -0.30766  -0.27395  -0.26423  -0.24129
 Alpha virt. eigenvalues --   -0.01812   0.07063   0.08876   0.09948   0.11613
 Alpha virt. eigenvalues --    0.11706   0.13296   0.14774   0.15407   0.15971
 Alpha virt. eigenvalues --    0.16624   0.18749   0.19465   0.20159   0.22665

 Mulliken charges:
               1
     1  C   -0.430966
     2  C   -0.062960
     3  C   -0.158295
     4  C    0.132968
     5  O   -0.431170
     6  C   -0.314387
     7  C    0.261241
     8  C    0.046046
     9  O   -0.272655
    10  H    0.126882
    11  H    0.125399
    12  H    0.130810
    13  H    0.090093
    14  H    0.098674
    15  H    0.067998
    16  H    0.283019
    17  H    0.145132
    18  H    0.099191
    19  H    0.062980
 Sum of Mulliken charges =   0.00000

 Dipole moment (field-independent basis, Debye):
    X=             -0.2672    Y=             -4.5376    Z=             -0.3322  Tot=              4.5576
 Quadrupole moment (field-independent basis, Debye-Ang):
   XX=            -52.1866   YY=            -60.3828   ZZ=            -50.4059
   XY=             -0.3051   XZ=              0.9645   YZ=              1.5111

  Exact polarizability:  84.194   1.033  85.671  -2.093   1.446  65.283
 Approx polarizability: 111.533   6.180 137.632   0.366   4.002 100.719

                      1                      2                      3
                      A                      A                      A
 Frequencies --     88.1508               147.6695               195.1878
 Red. masses --      6.0099                 2.6167                 2.5521
 Frc consts  --      0.0275                 0.0336                 0.0573
 IR Inten    --      1.2342                 2.4089                 1.5768

                      4                      5                      6
                      A                      A                      A
 Frequencies --    200.2049               231.2524               251.3308
 Red. masses --      3.2055                 1.7255                 1.6111
 Frc consts  --      0.0757                 0.0544                 0.0600
 IR Inten    --      2.5775                 0.3332                 1.6051

                      7                      8                      9
                      A                      A                      A
 Frequencies --    309.3686               322.2340               407.6338
 Red. masses --      1.3072                 1.9706                 2.8780
 Frc consts  --      0.0737                 0.1206                 0.2818
 IR Inten    --     91.8162                26.1294                 6.6964

                     10                     11                     12
                      A                      A                      A
 Frequencies --    453.2450               467.7730               520.2350
 Red. masses --      3.2615                 3.1619                 4.4155
 Frc consts  --      0.3948                 0.4076                 0.7041
 IR Inten    --      3.2497                19.3152                 1.4748

                     13                     14                     15
                      A                      A                      A
 Frequencies --    697.5979               724.0438               792.0240
 Red. masses --      3.3606                 3.5574                 2.7382
 Frc consts  --      0.9636                 1.0988                 1.0120
 IR Inten    --      9.0804                 9.9020                 3.5809

                     16                     17                     18
                      A                      A                      A
 Frequencies --    889.4870               923.3136               935.2321
 Red. masses --      2.3905                 1.5765                 2.0575
 Frc consts  --      1.1143                 0.7918                 1.0603
 IR Inten    --      4.7803                 3.3856                20.2505

                     19                     20                     21
                      A                      A                      A
 Frequencies --    971.2374               993.9006              1018.2383
 Red. masses --      1.9158                 1.8310                 1.9892
 Frc consts  --      1.0648                 1.0657                 1.2152
 IR Inten    --     12.2674                10.0710                31.5567

                     22                     23                     24
                      A                      A                      A
 Frequencies --   1044.6645              1050.4203              1092.0712
 Red. masses --      1.6225                 1.7152                 2.1510
 Frc consts  --      1.0433                 1.1150                 1.5114
 IR Inten    --     22.3036                 7.7716                 3.0944

                     25                     26                     27
                      A                      A                      A
 Frequencies --   1125.1364              1139.8082              1172.7150
 Red. masses --      2.0693                 1.5439                 1.6909
 Frc consts  --      1.5434                 1.1817                 1.3701
 IR Inten    --     12.9943                24.5231                13.4916

                     28                     29                     30
                      A                      A                      A
 Frequencies --   1214.0362              1227.5316              1261.3018
 Red. masses --      1.5539                 1.5765                 1.5680
 Frc consts  --      1.3494                 1.3996                 1.4697
 IR Inten    --     13.0002                36.2362                18.1130

                     31                     32                     33
                      A                      A                      A
 Frequencies --   1267.4902              1309.2615              1370.6974
 Red. masses --      1.5864                 1.4004                 2.3385
 Frc consts  --      1.5016                 1.4144                 2.5886
 IR Inten    --     11.1165                75.4591                21.7365

                     34                     35                     36
                      A                      A                      A
 Frequencies --   1410.5997              1417.9758              1428.3285
 Red. masses --      1.4977                 1.3840                 1.5278
 Frc consts  --      1.7559                 1.6395                 1.8365
 IR Inten    --     11.4885                 5.6447                10.7270

                     37                     38                     39
                      A                      A                      A
 Frequencies --   1448.6823              1478.6287              1496.6279
 Red. masses --      1.5631                 1.1279                 1.0457
 Frc consts  --      1.9327                 1.4530                 1.3800
 IR Inten    --      5.9611                10.0926                 2.4380

                     40                     41                     42
                      A                      A                      A
 Frequencies --   1505.0326              1791.0151              2883.1278
 Red. masses --      1.1050                10.2699                 1.0811
 Frc consts  --      1.4747                19.4095                 5.2946
 IR Inten    --      4.0754               251.3009               105.2728

                     43                     44                     45
                      A                      A                      A
 Frequencies --   2983.6894              3038.2393              3064.4563
 Red. masses --      1.0843                 1.0356                 1.0641
 Frc consts  --      5.6875                 5.6323                 5.8877
 IR Inten    --     69.6981                28.4187                31.4328

                     46                     47                     48
                      A                      A                      A
 Frequencies --   3090.5515              3101.7397              3115.4264
 Red. masses --      1.0889                 1.1013                 1.0996
 Frc consts  --      6.1276                 6.2427                 6.2883
 IR Inten    --      6.8814                18.6601                31.4532

                     49                     50                     51
                      A                      A                      A
 Frequencies --   3142.5731              3173.4941              3809.9260
 Red. masses --      1.1020                 1.0920                 1.0660
 Frc consts  --      6.4123                 6.4795                 9.1169
 IR Inten    --      6.3829                10.9387                23.4178

 - Thermochemistry -
 -------------------
 Temperature   298.150 Kelvin.  Pressure   1.00000 Atm.
 Atom     1 has atomic number  6 and mass  12.00000

 Molecular mass:   126.06808 amu.
 Principal axes and moments of inertia in atomic units:
                           1         2         3
     Eigenvalues --   889.157141206.461171816.02351
           X            0.99389  -0.10960  -0.01278
           Y            0.10973   0.99391   0.01024
           Z            0.01158  -0.01158   0.99987
 This molecule is an asymmetric top.
 Rotational symmetry number  1.
 Warning -- assumption of classical behavior for rotation
           may cause significant error
 Rotational temperatures (Kelvin)      0.09741     0.07179     0.04769
 Rotational constants (GHZ):           2.02972     1.49590     0.99379
 Zero-point vibrational energy     413875.7 (Joules/Mol)
                                   98.91866 (Kcal/Mol)
 Warning -- explicit consideration of  12 degrees of freedom as
           vibrations may cause significant error
 Vibrational temperatures:    126.83   212.46   280.83   288.05   332.72
          (Kelvin)            361.61   445.11   463.62   586.49   652.12
                              673.02   748.50  1003.69  1041.74  1139.54
                             1279.77  1328.44  1345.59  1397.39  1430.00
                             1465.02  1503.04  1511.32  1571.24  1618.82
                             1639.93  1687.27  1746.73  1766.14  1814.73
                             1823.63  1883.73  1972.13  2029.54  2040.15
                             2055.04  2084.33  2127.41  2153.31  2165.40
                             2576.87  4148.17  4292.86  4371.34  4409.06
                             4446.61  4462.71  4482.40  4521.46  4565.94
                             5481.63

 Zero-point correction=                           0.157637 (Hartree/Particle)
 Thermal correction to Energy=                    0.166657
 Thermal correction to Enthalpy=                  0.167601
 Thermal correction to Gibbs Free Energy=         0.124054
 Sum of electronic and zero-point Energies=           -423.008701
 Sum of electronic and thermal Energies=              -422.999680
 Sum of electronic and thermal Enthalpies=            -422.998736
 Sum of electronic and thermal Free Energies=         -423.042284

                     E (Thermal)             CV                S
                      KCal/Mol        Cal/Mol-Kelvin    Cal/Mol-Kelvin
 Total                  104.579             33.850             91.654
 Electronic               0.000              0.000              0.000
 Translational            0.889              2.981             40.409
 Rotational               0.889              2.981             29.056
 Vibrational            102.801             27.889             22.189
 Vibration     1          0.601              1.958              3.701
 Vibration     2          0.617              1.905              2.702
 Vibration     3          0.636              1.847              2.178
 Vibration     4          0.638              1.840              2.131
 Vibration     5          0.653              1.793              1.869
 Vibration     6          0.663              1.761              1.721
 Vibration     7          0.699              1.656              1.366
 Vibration     8          0.707              1.631              1.299
 Vibration     9          0.772              1.454              0.935
 Vibration    10          0.812              1.354              0.786
 Vibration    11          0.825              1.322              0.744
 Vibration    12          0.875              1.205              0.609

 Normal termination of Gaussian 09 at Tue Jan 28 00:24:14 2020.
