 Gaussian 09, Revision D.01,
 Gaussian 09:  ES64L-G09RevD.01 24-Apr-2013

 -----------------------------
 # b3lyp 6-31G(2df,p) opt Freq
 -----------------------------

 -----
 titel
 -----
 Symbolic Z-matrix:
 Charge =  0 Multiplicity = 1

 SCF Done:  E(RB3LYP) =  -423.187763401     A.U. after   14 cycles
 SCF Done:  E(RB3LYP) =  -423.187763822     A.U. after    7 cycles
 SCF Done:  E(RB3LYP) =  -423.187763691     A.U. after    7 cycles
 SCF Done:  E(RB3LYP) =  -423.187764393     A.U. after    7 cycles
 SCF Done:  E(RB3LYP) =  -423.187764744     A.U. after    7 cycles
 SCF Done:  E(RB3LYP) =  -423.187765073     A.U. after    9 cycles
 SCF Done:  E(RB3LYP) =  -423.187765108     A.U. after    6 cycles
 Optimization completed.
    -- Stationary point found.
 Normal termination of Gaussian 09 at Mon Jan 27 14:39:36 2020.

 ----------------------------------------------------------------------
 #N Geom=AllCheck Guess=TCheck SCRF=Check GenChk RB3LYP/6-31G(2df,p) Fr
 eq
 ----------------------------------------------------------------------

 Structure from the checkpoint file:  "/scratch/puck/g09_acdfa7f6-76a8-42aa-a82f-7b2b80b4d75d/Gau-171155.chk"
 -----
 titel
 -----
 Charge =  0 Multiplicity = 1

                         Standard orientation:
 ---------------------------------------------------------------------
 Center     Atomic      Atomic             Coordinates (Angstroms)
 Number     Number       Type             X           Y           Z
 ---------------------------------------------------------------------
      1          6           0       -3.250415   -0.533137    0.246084
      2          6           0       -1.976412    0.201242   -0.094829
      3          8           0       -1.889417    1.363929   -0.390353
      4          8           0       -0.917590   -0.645952   -0.039945
      5          6           0        0.343354   -0.082941   -0.355876
      6          6           0        1.472754   -1.002098   -0.023091
      7          6           0        2.789688   -0.396989   -0.519590
      8          6           0        2.511674    0.883807    0.341125
      9          6           0        1.201981    0.255342    0.825759
     10          1           0       -3.423453   -1.335214   -0.477289
     11          1           0       -3.165729   -0.998354    1.232067
     12          1           0       -4.086060    0.165285    0.231569
     13          1           0        0.325932    0.537063   -1.248683
     14          1           0        1.281340   -2.043244    0.205945
     15          1           0        3.666685   -0.945120   -0.169850
     16          1           0        2.875575   -0.256697   -1.602267
     17          1           0        3.245923    1.011948    1.138892
     18          1           0        2.414133    1.831083   -0.199121
     19          1           0        0.765974    0.338080    1.813629
 ---------------------------------------------------------------------

 SCF Done:  E(RB3LYP) =  -423.187765108     A.U. after    1 cycles

 The electronic state is 1-A.
 Alpha  occ. eigenvalues --  -19.18155 -19.12241 -10.30534 -10.24053 -10.19398
 Alpha  occ. eigenvalues --  -10.19358 -10.19311 -10.18911 -10.18803  -1.10017
 Alpha  occ. eigenvalues --   -1.01433  -0.89605  -0.76215  -0.72111  -0.65782
 Alpha  occ. eigenvalues --   -0.61874  -0.56372  -0.53886  -0.49169  -0.49011
 Alpha  occ. eigenvalues --   -0.47117  -0.46281  -0.44027  -0.43184  -0.40665
 Alpha  occ. eigenvalues --   -0.39070  -0.37431  -0.36724  -0.34191  -0.33050
 Alpha  occ. eigenvalues --   -0.32382  -0.27281  -0.26406  -0.25857
 Alpha virt. eigenvalues --    0.01622   0.08801   0.10525   0.10956   0.11830
 Alpha virt. eigenvalues --    0.13049   0.14693   0.15070   0.15729   0.17091
 Alpha virt. eigenvalues --    0.17534   0.18571   0.19660   0.20504   0.22475

 Mulliken charges:
               1
     1  C   -0.480449
     2  C    0.419526
     3  O   -0.343534
     4  O   -0.259659
     5  C    0.141258
     6  C   -0.096055
     7  C   -0.237604
     8  C   -0.235315
     9  C   -0.074995
    10  H    0.151073
    11  H    0.148409
    12  H    0.148258
    13  H    0.108879
    14  H    0.094513
    15  H    0.109267
    16  H    0.099916
    17  H    0.109290
    18  H    0.105196
    19  H    0.092026
 Sum of Mulliken charges =   0.00000

 Dipole moment (field-independent basis, Debye):
    X=              0.5704    Y=             -1.7484    Z=              0.6152  Tot=              1.9393
 Quadrupole moment (field-independent basis, Debye-Ang):
   XX=            -47.5424   YY=            -56.6591   ZZ=            -51.5903
   XY=              4.3379   XZ=             -1.1420   YZ=              0.7564

  Exact polarizability:  96.691   0.497  71.585  -1.533  -0.467  62.668
 Approx polarizability: 113.062  -2.737 116.397  -0.596  -2.170  96.360

                      1                      2                      3
                      A                      A                      A
 Frequencies --     33.4797                50.7890                93.7225
 Red. masses --      2.4459                 1.4190                 2.7627
 Frc consts  --      0.0016                 0.0022                 0.0143
 IR Inten    --      1.3680                 0.1708                 1.7419

                      4                      5                      6
                      A                      A                      A
 Frequencies --    123.7760               258.9396               289.2743
 Red. masses --      3.9184                 1.7685                 3.1709
 Frc consts  --      0.0354                 0.0699                 0.1563
 IR Inten    --      2.7934                 0.7927                 1.2762

                      7                      8                      9
                      A                      A                      A
 Frequencies --    327.6090               347.2067               508.5581
 Red. masses --      4.0228                 4.1428                 3.4797
 Frc consts  --      0.2544                 0.2943                 0.5302
 IR Inten    --      3.0446                 4.2787                 3.9728

                     10                     11                     12
                      A                      A                      A
 Frequencies --    606.8427               650.0554               705.9307
 Red. masses --      2.7413                 4.3844                 3.5861
 Frc consts  --      0.5948                 1.0916                 1.0529
 IR Inten    --      5.0736                 6.7006                 4.3316

                     13                     14                     15
                      A                      A                      A
 Frequencies --    777.4353               802.5174               877.1656
 Red. masses --      1.2228                 1.8634                 2.9661
 Frc consts  --      0.4355                 0.7071                 1.3446
 IR Inten    --      3.3968                 3.5430                 8.9317

                     16                     17                     18
                      A                      A                      A
 Frequencies --    904.1581               928.2704               951.8958
 Red. masses --      1.9430                 2.7020                 2.8687
 Frc consts  --      0.9359                 1.3718                 1.5315
 IR Inten    --      9.7999                11.7371                 2.3764

                     19                     20                     21
                      A                      A                      A
 Frequencies --    964.1120              1003.2615              1015.4763
 Red. masses --      1.8970                 1.6917                 1.2461
 Frc consts  --      1.0389                 1.0033                 0.7571
 IR Inten    --      0.9654                22.3726                 2.9518

                     22                     23                     24
                      A                      A                      A
 Frequencies --   1018.6068              1063.0790              1089.7742
 Red. masses --      1.6638                 1.8180                 1.8616
 Frc consts  --      1.0171                 1.2106                 1.3026
 IR Inten    --      1.4483                 5.7517                 2.2577

                     25                     26                     27
                      A                      A                      A
 Frequencies --   1096.7384              1111.2437              1145.0504
 Red. masses --      2.2266                 2.0110                 1.7592
 Frc consts  --      1.5780                 1.4631                 1.3590
 IR Inten    --     31.9568                 1.8962                39.0767

                     28                     29                     30
                      A                      A                      A
 Frequencies --   1196.9042              1223.9184              1245.8356
 Red. masses --      2.0681                 1.1813                 1.5466
 Frc consts  --      1.7456                 1.0426                 1.4143
 IR Inten    --     13.4043                 0.2276                10.7714

                     31                     32                     33
                      A                      A                      A
 Frequencies --   1251.1192              1257.9010              1288.3259
 Red. masses --      1.5205                 3.0932                 1.6858
 Frc consts  --      1.4023                 2.8837                 1.6485
 IR Inten    --     30.8668               422.4434                 1.5759

                     34                     35                     36
                      A                      A                      A
 Frequencies --   1317.9760              1392.9829              1432.0190
 Red. masses --      1.3985                 1.3637                 2.6764
 Frc consts  --      1.4313                 1.5591                 3.2337
 IR Inten    --     11.7228                57.2949                 4.0631

                     37                     38                     39
                      A                      A                      A
 Frequencies --   1469.6053              1475.5638              1481.1704
 Red. masses --      1.0514                 1.0469                 1.0843
 Frc consts  --      1.3379                 1.3430                 1.4015
 IR Inten    --     11.3886                 6.4744                 0.2023

                     40                     41                     42
                      A                      A                      A
 Frequencies --   1501.6141              1832.8743              3044.9649
 Red. masses --      1.1210                11.4344                 1.0617
 Frc consts  --      1.4893                22.6323                 5.8001
 IR Inten    --      0.4615               214.3102                42.0986

                     43                     44                     45
                      A                      A                      A
 Frequencies --   3053.2252              3057.3001              3100.5595
 Red. masses --      1.0634                 1.0364                 1.1034
 Frc consts  --      5.8407                 5.7077                 6.2500
 IR Inten    --     56.1243                 2.2746                 1.3188

                     46                     47                     48
                      A                      A                      A
 Frequencies --   3118.6078              3121.8348              3137.3238
 Red. masses --      1.1031                 1.0992                 1.0890
 Frc consts  --      6.3212                 6.3118                 6.3156
 IR Inten    --     39.2548                 5.0126                12.5764

                     49                     50                     51
                      A                      A                      A
 Frequencies --   3169.9141              3185.0680              3195.2604
 Red. masses --      1.1027                 1.0885                 1.0967
 Frc consts  --      6.5286                 6.5063                 6.5970
 IR Inten    --      7.3226                12.6015                11.3405

 - Thermochemistry -
 -------------------
 Temperature   298.150 Kelvin.  Pressure   1.00000 Atm.
 Atom     1 has atomic number  6 and mass  12.00000

 Molecular mass:   126.06808 amu.
 Principal axes and moments of inertia in atomic units:
                           1         2         3
     Eigenvalues --   376.631182020.979972195.41492
           X            0.99981   0.01796  -0.00761
           Y           -0.01792   0.99983   0.00504
           Z            0.00770  -0.00490   0.99996
 This molecule is an asymmetric top.
 Rotational symmetry number  1.
 Rotational temperatures (Kelvin)      0.22997     0.04286     0.03945
 Rotational constants (GHZ):           4.79180     0.89300     0.82205
 Zero-point vibrational energy     414487.1 (Joules/Mol)
                                   99.06480 (Kcal/Mol)
 Warning -- explicit consideration of  10 degrees of freedom as
           vibrations may cause significant error
 Vibrational temperatures:     48.17    73.07   134.85   178.09   372.56
          (Kelvin)            416.20   471.36   499.55   731.70   873.11
                              935.28  1015.68  1118.55  1154.64  1262.04
                             1300.88  1335.57  1369.56  1387.14  1443.47
                             1461.04  1465.55  1529.53  1567.94  1577.96
                             1598.83  1647.47  1722.08  1760.94  1792.48
                             1800.08  1809.84  1853.61  1896.27  2004.19
                             2060.35  2114.43  2123.00  2131.07  2160.49
                             2637.09  4381.02  4392.90  4398.77  4461.01
                             4486.98  4491.62  4513.90  4560.79  4582.60
                             4597.26

 Zero-point correction=                           0.157870 (Hartree/Particle)
 Thermal correction to Energy=                    0.166892
 Thermal correction to Enthalpy=                  0.167836
 Thermal correction to Gibbs Free Energy=         0.122393
 Sum of electronic and zero-point Energies=           -423.029895
 Sum of electronic and thermal Energies=              -423.020873
 Sum of electronic and thermal Enthalpies=            -423.019929
 Sum of electronic and thermal Free Energies=         -423.065372

                     E (Thermal)             CV                S
                      KCal/Mol        Cal/Mol-Kelvin    Cal/Mol-Kelvin
 Total                  104.726             32.364             95.644
 Electronic               0.000              0.000              0.000
 Translational            0.889              2.981             40.409
 Rotational               0.889              2.981             28.904
 Vibrational            102.949             26.402             26.332
 Vibration     1          0.594              1.983              5.612
 Vibration     2          0.595              1.977              4.786
 Vibration     3          0.603              1.954              3.581
 Vibration     4          0.610              1.929              3.041
 Vibration     5          0.668              1.748              1.669
 Vibration     6          0.686              1.694              1.478
 Vibration     7          0.711              1.620              1.272
 Vibration     8          0.725              1.581              1.179
 Vibration     9          0.864              1.231              0.637
 Vibration    10          0.966              1.017              0.438

 Normal termination of Gaussian 09 at Mon Jan 27 15:19:37 2020.
