 Gaussian 09, Revision D.01,
 Gaussian 09:  ES64L-G09RevD.01 24-Apr-2013

 -----------------------------
 # b3lyp 6-31G(2df,p) opt Freq
 -----------------------------

 -----
 titel
 -----
 Symbolic Z-matrix:
 Charge =  0 Multiplicity = 1

 SCF Done:  E(RB3LYP) =  -423.157958925     A.U. after   13 cycles
 Optimization completed.
    -- Stationary point found.
 Normal termination of Gaussian 09 at Mon Jan 27 17:32:53 2020.

 ----------------------------------------------------------------------
 #N Geom=AllCheck Guess=TCheck SCRF=Check GenChk RB3LYP/6-31G(2df,p) Fr
 eq
 ----------------------------------------------------------------------

 Structure from the checkpoint file:  "/scratch/puck/g09_c1a1fa21-4934-4557-9997-64590c3b62ea/Gau-147382.chk"
 -----
 titel
 -----
 Charge =  0 Multiplicity = 1

                         Standard orientation:
 ---------------------------------------------------------------------
 Center     Atomic      Atomic             Coordinates (Angstroms)
 Number     Number       Type             X           Y           Z
 ---------------------------------------------------------------------
      1          6           0        2.468040    0.007877    0.692763
      2          6           0        1.109612    0.030140    0.030741
      3          6           0        0.392880    1.372512    0.092985
      4          8           0       -0.878097    1.401447   -0.517313
      5          6           0       -1.728050    0.320740   -0.270254
      6          6           0       -1.866068   -0.368367    1.060574
      7          6           0       -1.192196   -1.072249   -0.119536
      8          6           0        0.292440   -1.187702   -0.078034
      9          8           0        1.015874   -0.666827   -1.213652
     10          1           0        2.397201    0.260547    1.756077
     11          1           0        2.916982   -0.983658    0.598778
     12          1           0        3.140328    0.731612    0.218495
     13          1           0        0.330661    1.678933    1.150706
     14          1           0        0.985799    2.130374   -0.430720
     15          1           0       -2.631946    0.456808   -0.853081
     16          1           0       -1.225074   -0.069848    1.882538
     17          1           0       -2.855859   -0.691589    1.363538
     18          1           0       -1.721980   -1.886604   -0.604184
     19          1           0        0.701719   -2.121244    0.310142
 ---------------------------------------------------------------------

 SCF Done:  E(RB3LYP) =  -423.157958925     A.U. after    1 cycles

 The electronic state is 1-A.
 Alpha  occ. eigenvalues --  -19.14699 -19.14245 -10.24165 -10.23960 -10.23596
 Alpha  occ. eigenvalues --  -10.23450 -10.19348 -10.19080 -10.18637  -1.07047
 Alpha  occ. eigenvalues --   -1.03698  -0.85628  -0.76852  -0.70533  -0.67811
 Alpha  occ. eigenvalues --   -0.60785  -0.59782  -0.53695  -0.51694  -0.50898
 Alpha  occ. eigenvalues --   -0.47113  -0.45533  -0.43015  -0.41436  -0.40675
 Alpha  occ. eigenvalues --   -0.39483  -0.38193  -0.37698  -0.35422  -0.34185
 Alpha  occ. eigenvalues --   -0.29487  -0.27864  -0.25945  -0.23540
 Alpha virt. eigenvalues --    0.08320   0.08758   0.09309   0.11074   0.11908
 Alpha virt. eigenvalues --    0.13294   0.14112   0.15628   0.16427   0.17387
 Alpha virt. eigenvalues --    0.18143   0.18967   0.19780   0.20912   0.22015

 Mulliken charges:
               1
     1  C   -0.468220
     2  C    0.362111
     3  C   -0.147215
     4  O   -0.251002
     5  C    0.144655
     6  C   -0.347412
     7  C   -0.106192
     8  C   -0.010629
     9  O   -0.295723
    10  H    0.121464
    11  H    0.132713
    12  H    0.128324
    13  H    0.094988
    14  H    0.119034
    15  H    0.106806
    16  H    0.118976
    17  H    0.117276
    18  H    0.094186
    19  H    0.085861
 Sum of Mulliken charges =   0.00000

 Dipole moment (field-independent basis, Debye):
    X=             -0.0590    Y=             -0.5947    Z=              2.2687  Tot=              2.3461
 Quadrupole moment (field-independent basis, Debye-Ang):
   XX=            -49.3183   YY=            -53.0659   ZZ=            -55.7774
   XY=              3.6178   XZ=              2.3098   YZ=              0.0670

  Exact polarizability:  85.321   5.505  72.595   0.299   0.578  64.138
 Approx polarizability: 110.015   7.035 109.887  -2.071   0.758 105.128

                      1                      2                      3
                      A                      A                      A
 Frequencies --    143.9400               181.6680               189.7015
 Red. masses --      2.1827                 1.7409                 1.7353
 Frc consts  --      0.0266                 0.0339                 0.0368
 IR Inten    --      0.6566                 1.0129                 2.1639

                      4                      5                      6
                      A                      A                      A
 Frequencies --    289.0048               342.2586               360.9369
 Red. masses --      2.6310                 2.9452                 3.0755
 Frc consts  --      0.1295                 0.2033                 0.2361
 IR Inten    --      0.9748                 0.1232                 1.4612

                      7                      8                      9
                      A                      A                      A
 Frequencies --    407.8457               409.6436               544.0517
 Red. masses --      4.8700                 2.6350                 3.3698
 Frc consts  --      0.4773                 0.2605                 0.5877
 IR Inten    --      1.3972                 6.5478                 3.4349

                     10                     11                     12
                      A                      A                      A
 Frequencies --    580.7559               681.0618               732.9764
 Red. masses --      4.9262                 3.4282                 3.3032
 Frc consts  --      0.9789                 0.9369                 1.0456
 IR Inten    --     17.5788                 0.6384                 3.3950

                     13                     14                     15
                      A                      A                      A
 Frequencies --    767.4360               817.3843               836.9365
 Red. masses --      3.2503                 1.4918                 3.4547
 Frc consts  --      1.1279                 0.5872                 1.4258
 IR Inten    --     20.5099                12.3126                 1.6516

                     16                     17                     18
                      A                      A                      A
 Frequencies --    880.0474               913.1878               966.1995
 Red. masses --      2.4820                 2.2651                 2.7969
 Frc consts  --      1.1326                 1.1129                 1.5384
 IR Inten    --     29.6469                 9.5103                 7.4275

                     19                     20                     21
                      A                      A                      A
 Frequencies --    983.9442              1008.4176              1037.7360
 Red. masses --      1.6449                 2.5567                 1.5076
 Frc consts  --      0.9383                 1.5318                 0.9565
 IR Inten    --      6.7155                 8.0637                11.9512

                     22                     23                     24
                      A                      A                      A
 Frequencies --   1045.0814              1051.7754              1095.8057
 Red. masses --      1.3418                 1.8757                 2.0742
 Frc consts  --      0.8635                 1.2225                 1.4675
 IR Inten    --      5.1242                 9.7694                24.1981

                     25                     26                     27
                      A                      A                      A
 Frequencies --   1125.3162              1138.6855              1164.3603
 Red. masses --      1.2275                 2.1790                 2.0114
 Frc consts  --      0.9159                 1.6646                 1.6066
 IR Inten    --      0.7812                10.4298                 6.1366

                     28                     29                     30
                      A                      A                      A
 Frequencies --   1179.1194              1230.7397              1256.6895
 Red. masses --      1.9386                 1.8676                 2.6037
 Frc consts  --      1.5880                 1.6667                 2.4227
 IR Inten    --     44.0777                21.3794                50.4747

                     31                     32                     33
                      A                      A                      A
 Frequencies --   1293.6948              1337.7061              1375.6782
 Red. masses --      1.1438                 1.4327                 1.4642
 Frc consts  --      1.1279                 1.5105                 1.6327
 IR Inten    --      6.6173                17.3667                 1.0877

                     34                     35                     36
                      A                      A                      A
 Frequencies --   1388.2363              1412.6895              1428.4518
 Red. masses --      1.8576                 1.2762                 1.3820
 Frc consts  --      2.1093                 1.5006                 1.6614
 IR Inten    --      8.5433                 5.2033                 6.2267

                     37                     38                     39
                      A                      A                      A
 Frequencies --   1469.5113              1484.1098              1489.9801
 Red. masses --      1.5799                 1.2770                 1.1002
 Frc consts  --      2.0102                 1.6572                 1.4391
 IR Inten    --     12.2320                 5.1723                 6.8586

                     40                     41                     42
                      A                      A                      A
 Frequencies --   1494.3334              1511.9157              2966.2440
 Red. masses --      1.1727                 1.7107                 1.0705
 Frc consts  --      1.5429                 2.3039                 5.5495
 IR Inten    --     13.2733                10.9916                47.6549

                     43                     44                     45
                      A                      A                      A
 Frequencies --   3034.3364              3065.9806              3096.7477
 Red. masses --      1.0368                 1.0902                 1.0998
 Frc consts  --      5.6243                 6.0380                 6.2140
 IR Inten    --     21.3921                25.6204                16.9088

                     46                     47                     48
                      A                      A                      A
 Frequencies --   3098.3029              3125.5775              3136.8624
 Red. masses --      1.0881                 1.1006                 1.0543
 Frc consts  --      6.1543                 6.3351                 6.1123
 IR Inten    --     34.6967                14.9369                10.1167

                     49                     50                     51
                      A                      A                      A
 Frequencies --   3150.8289              3178.0231              3223.1075
 Red. masses --      1.0890                 1.0915                 1.1158
 Frc consts  --      6.3700                 6.4953                 6.8295
 IR Inten    --     14.3342                16.6902                11.5068

 - Thermochemistry -
 -------------------
 Temperature   298.150 Kelvin.  Pressure   1.00000 Atm.
 Atom     1 has atomic number  6 and mass  12.00000

 Molecular mass:   126.06808 amu.
 Principal axes and moments of inertia in atomic units:
                           1         2         3
     Eigenvalues --   614.473141142.034671330.04461
           X            0.99917   0.03560   0.01982
           Y           -0.03567   0.99936   0.00273
           Z           -0.01971  -0.00343   0.99980
 This molecule is an asymmetric top.
 Rotational symmetry number  1.
 Warning -- assumption of classical behavior for rotation
           may cause significant error
 Rotational temperatures (Kelvin)      0.14096     0.07584     0.06512
 Rotational constants (GHZ):           2.93705     1.58029     1.35690
 Zero-point vibrational energy     419440.8 (Joules/Mol)
                                  100.24876 (Kcal/Mol)
 Warning -- explicit consideration of  10 degrees of freedom as
           vibrations may cause significant error
 Vibrational temperatures:    207.10   261.38   272.94   415.81   492.43
          (Kelvin)            519.31   586.80   589.39   782.77   835.58
                              979.89  1054.59  1104.17  1176.03  1204.16
                             1266.19  1313.87  1390.14  1415.67  1450.89
                             1493.07  1503.64  1513.27  1576.62  1619.08
                             1638.31  1675.25  1696.49  1770.76  1808.09
                             1861.34  1924.66  1979.29  1997.36  2032.54
                             2055.22  2114.30  2135.30  2143.75  2150.01
                             2175.31  4267.76  4365.73  4411.26  4455.52
                             4457.76  4497.00  4513.24  4533.33  4572.46
                             4637.33

 Zero-point correction=                           0.159757 (Hartree/Particle)
 Thermal correction to Energy=                    0.167511
 Thermal correction to Enthalpy=                  0.168456
 Thermal correction to Gibbs Free Energy=         0.127941
 Sum of electronic and zero-point Energies=           -422.998202
 Sum of electronic and thermal Energies=              -422.990448
 Sum of electronic and thermal Enthalpies=            -422.989503
 Sum of electronic and thermal Free Energies=         -423.030018

                     E (Thermal)             CV                S
                      KCal/Mol        Cal/Mol-Kelvin    Cal/Mol-Kelvin
 Total                  105.115             30.980             85.270
 Electronic               0.000              0.000              0.000
 Translational            0.889              2.981             40.409
 Rotational               0.889              2.981             28.325
 Vibrational            103.338             25.018             16.537
 Vibration     1          0.616              1.909              2.751
 Vibration     2          0.630              1.865              2.311
 Vibration     3          0.633              1.854              2.231
 Vibration     4          0.686              1.694              1.480
 Vibration     5          0.721              1.591              1.202
 Vibration     6          0.735              1.553              1.118
 Vibration     7          0.772              1.453              0.934
 Vibration     8          0.774              1.449              0.928
 Vibration     9          0.899              1.153              0.557
 Vibration    10          0.937              1.073              0.484

 Optimization completed.
    -- Stationary point found.
 Normal termination of Gaussian 09 at Mon Jan 27 18:20:59 2020.
