 Gaussian 09, Revision D.01,
 Gaussian 09:  ES64L-G09RevD.01 24-Apr-2013

 -----------------------------
 # b3lyp 6-31G(2df,p) opt Freq
 -----------------------------

 -----
 titel
 -----
 Symbolic Z-matrix:
 Charge =  0 Multiplicity = 1

 SCF Done:  E(RB3LYP) =  -423.239352142     A.U. after   14 cycles
 Optimization completed.
    -- Stationary point found.
 Normal termination of Gaussian 09 at Mon Jan 27 13:07:45 2020.

 ----------------------------------------------------------------------
 #N Geom=AllCheck Guess=TCheck SCRF=Check GenChk RB3LYP/6-31G(2df,p) Fr
 eq
 ----------------------------------------------------------------------

 Structure from the checkpoint file:  "/scratch/puck/g09_8fbb4582-d156-4022-aba3-4c852de64f7a/Gau-28451.chk"
 -----
 titel
 -----
 Charge =  0 Multiplicity = 1

                         Standard orientation:
 ---------------------------------------------------------------------
 Center     Atomic      Atomic             Coordinates (Angstroms)
 Number     Number       Type             X           Y           Z
 ---------------------------------------------------------------------
      1          8           0        2.777375   -0.368537    0.092426
      2          6           0        1.606774   -0.240528   -0.185494
      3          6           0        1.048810    1.115571   -0.609219
      4          6           0        0.049087    1.703720    0.416030
      5          6           0       -1.399987    1.226000    0.232229
      6          6           0       -1.594972   -0.273715    0.034377
      7          8           0       -2.484265   -0.699600   -0.666258
      8          6           0       -0.622896   -1.222118    0.724787
      9          6           0        0.659701   -1.435071   -0.118912
     10          1           0        1.909708    1.777783   -0.722921
     11          1           0        0.558198    1.025643   -1.587707
     12          1           0        0.403607    1.489944    1.431009
     13          1           0        0.058686    2.794070    0.323836
     14          1           0       -1.991030    1.507600    1.115284
     15          1           0       -1.871848    1.717929   -0.623876
     16          1           0       -0.354917   -0.858575    1.723071
     17          1           0       -1.131195   -2.183177    0.829578
     18          1           0        1.234326   -2.272434    0.282539
     19          1           0        0.360484   -1.696849   -1.142945
 ---------------------------------------------------------------------

 SCF Done:  E(RB3LYP) =  -423.239352142     A.U. after    1 cycles

 The electronic state is 1-A.
 Alpha  occ. eigenvalues --  -19.13449 -19.13375 -10.27567 -10.27428 -10.20934
 Alpha  occ. eigenvalues --  -10.20539 -10.20519 -10.20166 -10.19992  -1.04608
 Alpha  occ. eigenvalues --   -1.04414  -0.83116  -0.78705  -0.74395  -0.67067
 Alpha  occ. eigenvalues --   -0.63961  -0.54743  -0.52856  -0.48777  -0.48256
 Alpha  occ. eigenvalues --   -0.47049  -0.45858  -0.43059  -0.42914  -0.41824
 Alpha  occ. eigenvalues --   -0.40480  -0.38451  -0.37786  -0.36843  -0.35173
 Alpha  occ. eigenvalues --   -0.34711  -0.34026  -0.25185  -0.24430
 Alpha virt. eigenvalues --   -0.02596  -0.01872   0.08075   0.10096   0.11161
 Alpha virt. eigenvalues --    0.11810   0.13159   0.13963   0.15175   0.15829
 Alpha virt. eigenvalues --    0.17074   0.18190   0.19268   0.21131   0.21590

 Mulliken charges:
               1
     1  O   -0.297565
     2  C    0.382854
     3  C   -0.291422
     4  C   -0.225330
     5  C   -0.293243
     6  C    0.380665
     7  O   -0.306259
     8  C   -0.302248
     9  C   -0.296082
    10  H    0.125404
    11  H    0.117416
    12  H    0.115485
    13  H    0.118545
    14  H    0.129906
    15  H    0.130171
    16  H    0.114234
    17  H    0.132263
    18  H    0.129998
    19  H    0.135209
 Sum of Mulliken charges =   0.00000

 Dipole moment (field-independent basis, Debye):
    X=             -0.6252    Y=              1.3939    Z=              0.9520  Tot=              1.8000
 Quadrupole moment (field-independent basis, Debye-Ang):
   XX=            -70.2206   YY=            -49.5619   ZZ=            -51.5035
   XY=             -1.6458   XZ=             -4.9144   YZ=             -0.9267

  Exact polarizability:  85.198  -0.388  78.407   2.987  -0.169  62.147
 Approx polarizability: 127.209   1.120 106.700  12.142   2.338 101.001

                      1                      2                      3
                      A                      A                      A
 Frequencies --     50.7399                73.5932               159.0711
 Red. masses --      5.5219                 3.7131                 3.1706
 Frc consts  --      0.0084                 0.0118                 0.0473
 IR Inten    --      8.2276                 2.7754                 2.6421

                      4                      5                      6
                      A                      A                      A
 Frequencies --    241.5243               293.4886               323.5202
 Red. masses --      1.9966                 3.8871                 3.1198
 Frc consts  --      0.0686                 0.1973                 0.1924
 IR Inten    --      0.2502                 0.6428                 2.5795

                      7                      8                      9
                      A                      A                      A
 Frequencies --    395.8363               472.8213               481.9510
 Red. masses --      1.9290                 2.3112                 3.3954
 Frc consts  --      0.1781                 0.3044                 0.4647
 IR Inten    --      3.1380                 0.7065                17.9049

                     10                     11                     12
                      A                      A                      A
 Frequencies --    516.6535               598.7692               676.4774
 Red. masses --      3.7225                 2.6207                 3.3018
 Frc consts  --      0.5854                 0.5536                 0.8902
 IR Inten    --      1.3689                 0.2115                 0.1465

                     13                     14                     15
                      A                      A                      A
 Frequencies --    703.3454               773.3958               821.7166
 Red. masses --      2.5458                 2.4341                 1.6598
 Frc consts  --      0.7420                 0.8578                 0.6603
 IR Inten    --      1.1698                 5.1518                 2.2216

                     16                     17                     18
                      A                      A                      A
 Frequencies --    885.2071               902.2991               926.0289
 Red. masses --      2.6754                 2.2189                 2.2158
 Frc consts  --      1.2352                 1.0643                 1.1195
 IR Inten    --      7.5975                15.7044                12.7612

                     19                     20                     21
                      A                      A                      A
 Frequencies --    986.9398              1007.4864              1009.7147
 Red. masses --      2.3938                 1.6812                 1.6163
 Frc consts  --      1.3738                 1.0054                 0.9709
 IR Inten    --      2.0618                 1.4364                 2.0622

                     22                     23                     24
                      A                      A                      A
 Frequencies --   1065.3113              1141.1358              1147.9352
 Red. masses --      2.2659                 1.9041                 1.9461
 Frc consts  --      1.5151                 1.4609                 1.5109
 IR Inten    --      3.0258                28.3159                14.9901

                     25                     26                     27
                      A                      A                      A
 Frequencies --   1182.7051              1198.0372              1235.3922
 Red. masses --      1.3978                 1.3923                 1.4261
 Frc consts  --      1.1520                 1.1774                 1.2824
 IR Inten    --     17.0680                16.5352                 6.9301

                     28                     29                     30
                      A                      A                      A
 Frequencies --   1271.0746              1277.0997              1330.2372
 Red. masses --      1.4281                 1.3655                 1.5318
 Frc consts  --      1.3594                 1.3122                 1.5970
 IR Inten    --     19.1366                10.7669                31.7231

                     31                     32                     33
                      A                      A                      A
 Frequencies --   1339.0929              1355.1693              1359.3542
 Red. masses --      1.5030                 1.4995                 1.3707
 Frc consts  --      1.5879                 1.6225                 1.4923
 IR Inten    --      3.2085                 0.2489                 1.1418

                     34                     35                     36
                      A                      A                      A
 Frequencies --   1375.6153              1452.3851              1466.8381
 Red. masses --      1.4201                 1.0793                 1.0886
 Frc consts  --      1.5832                 1.3414                 1.3800
 IR Inten    --     10.9230                 4.3034                 7.0508

                     37                     38                     39
                      A                      A                      A
 Frequencies --   1478.6361              1480.3271              1500.9268
 Red. masses --      1.0891                 1.1121                 1.0802
 Frc consts  --      1.4029                 1.4358                 1.4337
 IR Inten    --      9.7281                 9.9937                 6.5202

                     40                     41                     42
                      A                      A                      A
 Frequencies --   1805.1935              1807.6222              3020.0338
 Red. masses --     10.9755                11.1626                 1.0663
 Frc consts  --     21.0729                21.4898                 5.7299
 IR Inten    --    279.3787                45.2629                10.3002

                     43                     44                     45
                      A                      A                      A
 Frequencies --   3023.9291              3029.7720              3041.1467
 Red. masses --      1.0665                 1.0663                 1.0631
 Frc consts  --      5.7458                 5.7670                 5.7928
 IR Inten    --      2.5392                 6.9031                10.1727

                     46                     47                     48
                      A                      A                      A
 Frequencies --   3048.7156              3075.2055              3093.5684
 Red. masses --      1.0609                 1.0984                 1.0969
 Frc consts  --      5.8099                 6.1202                 6.1851
 IR Inten    --     27.8939                 7.6622                22.7769

                     49                     50                     51
                      A                      A                      A
 Frequencies --   3111.0965              3112.6302              3114.4952
 Red. masses --      1.0964                 1.0983                 1.1000
 Frc consts  --      6.2523                 6.2695                 6.2864
 IR Inten    --     11.9207                14.1329                 8.4386

 - Thermochemistry -
 -------------------
 Temperature   298.150 Kelvin.  Pressure   1.00000 Atm.
 Atom     1 has atomic number  8 and mass  15.99491

 Molecular mass:   126.06808 amu.
 Principal axes and moments of inertia in atomic units:
                           1         2         3
     Eigenvalues --   672.763621350.807601786.52902
           X            0.99984  -0.01142  -0.01373
           Y            0.01129   0.99989  -0.00964
           Z            0.01384   0.00949   0.99986
 This molecule is an asymmetric top.
 Rotational symmetry number  1.
 Warning -- assumption of classical behavior for rotation
           may cause significant error
 Rotational temperatures (Kelvin)      0.12874     0.06412     0.04848
 Rotational constants (GHZ):           2.68258     1.33605     1.01019
 Zero-point vibrational energy     420136.0 (Joules/Mol)
                                  100.41492 (Kcal/Mol)
 Warning -- explicit consideration of  11 degrees of freedom as
           vibrations may cause significant error
 Vibrational temperatures:     73.00   105.88   228.87   347.50   422.26
          (Kelvin)            465.47   569.52   680.28   693.42   743.35
                              861.49   973.30  1011.96  1112.74  1182.27
                             1273.61  1298.21  1332.35  1419.98  1449.55
                             1452.75  1532.74  1641.84  1651.62  1701.65
                             1723.71  1777.45  1828.79  1837.46  1913.91
                             1926.65  1949.78  1955.81  1979.20  2089.66
                             2110.45  2127.42  2129.86  2159.50  2597.27
                             2600.76  4345.15  4350.75  4359.16  4375.53
                             4386.42  4424.53  4450.95  4476.17  4478.38
                             4481.06

 Zero-point correction=                           0.160021 (Hartree/Particle)
 Thermal correction to Energy=                    0.168471
 Thermal correction to Enthalpy=                  0.169415
 Thermal correction to Gibbs Free Energy=         0.126179
 Sum of electronic and zero-point Energies=           -423.079331
 Sum of electronic and thermal Energies=              -423.070881
 Sum of electronic and thermal Enthalpies=            -423.069937
 Sum of electronic and thermal Free Energies=         -423.113173

                     E (Thermal)             CV                S
                      KCal/Mol        Cal/Mol-Kelvin    Cal/Mol-Kelvin
 Total                  105.717             31.645             90.997
 Electronic               0.000              0.000              0.000
 Translational            0.889              2.981             40.409
 Rotational               0.889              2.981             28.875
 Vibrational            103.940             25.683             21.714
 Vibration     1          0.595              1.977              4.788
 Vibration     2          0.599              1.966              4.055
 Vibration     3          0.621              1.892              2.561
 Vibration     4          0.658              1.777              1.792
 Vibration     5          0.688              1.686              1.454
 Vibration     6          0.708              1.628              1.292
 Vibration     7          0.763              1.479              0.978
 Vibration     8          0.830              1.310              0.730
 Vibration     9          0.838              1.290              0.705
 Vibration    10          0.872              1.213              0.618
 Vibration    11          0.957              1.034              0.452

 Optimization completed.
    -- Stationary point found.
 Normal termination of Gaussian 09 at Mon Jan 27 13:53:45 2020.
