 Gaussian 09, Revision D.01,
 Gaussian 09:  ES64L-G09RevD.01 24-Apr-2013

 -----------------------------
 # b3lyp 6-31G(2df,p) opt Freq
 -----------------------------

 -----
 titel
 -----
 Symbolic Z-matrix:
 Charge =  0 Multiplicity = 1

 SCF Done:  E(RB3LYP) =  -423.188297260     A.U. after   12 cycles
 Optimization completed.
    -- Stationary point found.
 Normal termination of Gaussian 09 at Mon Jan 27 18:55:56 2020.

 ----------------------------------------------------------------------
 #N Geom=AllCheck Guess=TCheck SCRF=Check GenChk RB3LYP/6-31G(2df,p) Fr
 eq
 ----------------------------------------------------------------------

 Structure from the checkpoint file:  "/scratch/puck/g09_939f7cf7-5de0-4fd1-9861-bcd5f79d8450/Gau-90616.chk"
 -----
 titel
 -----
 Charge =  0 Multiplicity = 1

                         Standard orientation:
 ---------------------------------------------------------------------
 Center     Atomic      Atomic             Coordinates (Angstroms)
 Number     Number       Type             X           Y           Z
 ---------------------------------------------------------------------
      1          6           0       -2.533576    0.106531   -0.000187
      2          6           0       -1.022060    0.130195    0.000046
      3          6           0       -0.364020    1.505755    0.000214
      4          6           0        1.187324    1.405984   -0.000312
      5          6           0        1.589261   -0.065846   -0.000051
      6          8           0        1.025431   -0.707713   -1.139093
      7          6           0       -0.303077   -0.980853   -0.750748
      8          6           0       -0.303049   -0.980756    0.750978
      9          8           0        1.025452   -0.707388    1.139201
     10          1           0       -2.934980    0.609540   -0.887745
     11          1           0       -2.919826   -0.918512    0.001991
     12          1           0       -2.935260    0.613384    0.885053
     13          1           0       -0.712190    2.064425   -0.875871
     14          1           0       -0.711611    2.063730    0.876975
     15          1           0        1.617409    1.886627   -0.883793
     16          1           0        1.618024    1.887250    0.882527
     17          1           0        2.669359   -0.228457   -0.000040
     18          1           0       -0.801477   -1.691701   -1.397574
     19          1           0       -0.801328   -1.691532    1.397975
 ---------------------------------------------------------------------

 SCF Done:  E(RB3LYP) =  -423.188297260     A.U. after    1 cycles

 The electronic state is 1-A.
 Alpha  occ. eigenvalues --  -19.14797 -19.14797 -10.27550 -10.23055 -10.23028
 Alpha  occ. eigenvalues --  -10.19707 -10.18908 -10.18500 -10.18199  -1.09580
 Alpha  occ. eigenvalues --   -0.99505  -0.85417  -0.78586  -0.71175  -0.66986
 Alpha  occ. eigenvalues --   -0.61752  -0.60921  -0.54121  -0.50709  -0.48053
 Alpha  occ. eigenvalues --   -0.46322  -0.44124  -0.43117  -0.41911  -0.41085
 Alpha  occ. eigenvalues --   -0.38776  -0.38088  -0.37373  -0.35462  -0.33211
 Alpha  occ. eigenvalues --   -0.32240  -0.31774  -0.24217  -0.22211
 Alpha virt. eigenvalues --    0.08949   0.10289   0.11047   0.11300   0.13012
 Alpha virt. eigenvalues --    0.13235   0.15659   0.15971   0.16726   0.17153
 Alpha virt. eigenvalues --    0.18817   0.18845   0.19452   0.20732   0.22344

 Mulliken charges:
               1
     1  C   -0.475198
     2  C    0.226991
     3  C   -0.270185
     4  C   -0.224045
     5  C    0.166966
     6  O   -0.266820
     7  C    0.011317
     8  C    0.011254
     9  O   -0.266828
    10  H    0.120568
    11  H    0.115740
    12  H    0.120556
    13  H    0.105815
    14  H    0.105830
    15  H    0.107695
    16  H    0.107681
    17  H    0.092739
    18  H    0.104964
    19  H    0.104960
 Sum of Mulliken charges =   0.00000

 Dipole moment (field-independent basis, Debye):
    X=             -1.3157    Y=              0.8747    Z=             -0.0001  Tot=              1.5799
 Quadrupole moment (field-independent basis, Debye-Ang):
   XX=            -50.7872   YY=            -51.9426   ZZ=            -56.0314
   XY=              3.2435   XZ=             -0.0004   YZ=             -0.0006

  Exact polarizability:  83.520   2.127  71.741   0.001  -0.001  63.974
 Approx polarizability: 111.912   0.270 102.392   0.002   0.000 105.952

                      1                      2                      3
                      A                      A                      A
 Frequencies --    120.1919               205.3549               256.2248
 Red. masses --      1.8298                 1.0898                 2.3984
 Frc consts  --      0.0156                 0.0271                 0.0928
 IR Inten    --      0.1017                 0.0093                 0.0586

                      4                      5                      6
                      A                      A                      A
 Frequencies --    284.2731               378.3881               398.1719
 Red. masses --      2.4840                 2.6442                 6.7850
 Frc consts  --      0.1183                 0.2231                 0.6338
 IR Inten    --      0.8132                 0.2339                 9.7879

                      7                      8                      9
                      A                      A                      A
 Frequencies --    489.8867               516.5070               627.0302
 Red. masses --      3.0493                 4.9983                 5.9568
 Frc consts  --      0.4312                 0.7856                 1.3799
 IR Inten    --      2.4144                 1.2979                 1.2389

                     10                     11                     12
                      A                      A                      A
 Frequencies --    719.5209               727.6794               808.8990
 Red. masses --      4.8102                 4.1901                 1.7395
 Frc consts  --      1.4672                 1.3072                 0.6706
 IR Inten    --     15.0114                 8.2232                 3.6472

                     13                     14                     15
                      A                      A                      A
 Frequencies --    837.6082               861.9311               866.8367
 Red. masses --      4.2280                 2.0265                 1.5685
 Frc consts  --      1.7477                 0.8870                 0.6944
 IR Inten    --     14.0046                 9.7487                 5.5085

                     16                     17                     18
                      A                      A                      A
 Frequencies --    894.5522               908.8174               951.6151
 Red. masses --      3.3444                 2.7584                 1.9107
 Frc consts  --      1.5768                 1.3423                 1.0194
 IR Inten    --     14.4191                47.9162                 4.5520

                     19                     20                     21
                      A                      A                      A
 Frequencies --   1013.4960              1040.6242              1064.7126
 Red. masses --      2.2719                 1.8469                 4.3572
 Frc consts  --      1.3749                 1.1784                 2.9102
 IR Inten    --      2.1766                 5.7875                29.3241

                     22                     23                     24
                      A                      A                      A
 Frequencies --   1067.3967              1072.9298              1089.0546
 Red. masses --      1.5673                 2.3617                 2.5296
 Frc consts  --      1.0521                 1.6018                 1.7677
 IR Inten    --      3.1557                13.5129                 0.0152

                     25                     26                     27
                      A                      A                      A
 Frequencies --   1115.9843              1150.6950              1201.4295
 Red. masses --      1.6309                 4.4896                 2.5475
 Frc consts  --      1.1968                 3.5025                 2.1665
 IR Inten    --      0.8457               138.4935                 0.5304

                     28                     29                     30
                      A                      A                      A
 Frequencies --   1219.4525              1267.4978              1278.4919
 Red. masses --      1.2659                 1.1943                 1.1239
 Frc consts  --      1.1091                 1.1304                 1.0824
 IR Inten    --      0.6862                 1.3292                 0.0356

                     31                     32                     33
                      A                      A                      A
 Frequencies --   1284.1699              1298.3947              1365.8731
 Red. masses --      1.3477                 2.7555                 1.8899
 Frc consts  --      1.3095                 2.7369                 2.0774
 IR Inten    --      1.0848                 4.6252                10.7767

                     34                     35                     36
                      A                      A                      A
 Frequencies --   1370.9451              1378.3993              1412.2348
 Red. masses --      1.4508                 1.3574                 1.4646
 Frc consts  --      1.6066                 1.5195                 1.7210
 IR Inten    --      9.1646                 7.8081                 3.0364

                     37                     38                     39
                      A                      A                      A
 Frequencies --   1427.2729              1473.8967              1490.6312
 Red. masses --      1.8891                 1.0805                 1.0453
 Frc consts  --      2.2674                 1.3829                 1.3684
 IR Inten    --     16.8679                 1.3251                 4.3602

                     40                     41                     42
                      A                      A                      A
 Frequencies --   1495.7842              1507.2430              3018.8380
 Red. masses --      1.0808                 1.1143                 1.0357
 Frc consts  --      1.4247                 1.4915                 5.5610
 IR Inten    --      0.9282                 6.1486                28.1685

                     43                     44                     45
                      A                      A                      A
 Frequencies --   3029.7570              3055.4747              3060.4180
 Red. masses --      1.0584                 1.0601                 1.1048
 Frc consts  --      5.7245                 5.8309                 6.0966
 IR Inten    --     47.6621                25.9404                 8.6039

                     46                     47                     48
                      A                      A                      A
 Frequencies --   3082.4252              3090.4641              3097.4409
 Red. masses --      1.1014                 1.1006                 1.0902
 Frc consts  --      6.1657                 6.1931                 6.1625
 IR Inten    --     24.3172                23.1700                54.9736

                     49                     50                     51
                      A                      A                      A
 Frequencies --   3101.9781              3190.8868              3199.7115
 Red. masses --      1.1051                 1.0899                 1.0966
 Frc consts  --      6.2653                 6.5379                 6.6149
 IR Inten    --     27.8458                 8.3199                17.1404

 - Thermochemistry -
 -------------------
 Temperature   298.150 Kelvin.  Pressure   1.00000 Atm.
 Atom     1 has atomic number  6 and mass  12.00000

 Molecular mass:   126.06808 amu.
 Principal axes and moments of inertia in atomic units:
                           1         2         3
     Eigenvalues --   631.95809 994.650551171.76128
           X            0.99918   0.04047   0.00000
           Y           -0.04047   0.99918  -0.00001
           Z            0.00000   0.00001   1.00000
 This molecule is an asymmetric top.
 Rotational symmetry number  1.
 Warning -- assumption of classical behavior for rotation
           may cause significant error
 Rotational temperatures (Kelvin)      0.13706     0.08708     0.07392
 Rotational constants (GHZ):           2.85579     1.81445     1.54020
 Zero-point vibrational energy     423881.7 (Joules/Mol)
                                  101.31017 (Kcal/Mol)
 Warning -- explicit consideration of   8 degrees of freedom as
           vibrations may cause significant error
 Vibrational temperatures:    172.93   295.46   368.65   409.01   544.42
          (Kelvin)            572.88   704.84   743.14   902.16  1035.23
                             1046.97  1163.82  1205.13  1240.13  1247.18
                             1287.06  1307.58  1369.16  1458.19  1497.22
                             1531.88  1535.74  1543.70  1566.90  1605.65
                             1655.59  1728.59  1754.52  1823.64  1839.46
                             1847.63  1868.10  1965.18  1972.48  1983.21
                             2031.89  2053.52  2120.61  2144.68  2152.10
                             2168.58  4343.43  4359.14  4396.14  4403.25
                             4434.92  4446.48  4456.52  4463.05  4590.97
                             4603.67

 Zero-point correction=                           0.161448 (Hartree/Particle)
 Thermal correction to Energy=                    0.168666
 Thermal correction to Enthalpy=                  0.169610
 Thermal correction to Gibbs Free Energy=         0.130106
 Sum of electronic and zero-point Energies=           -423.026849
 Sum of electronic and thermal Energies=              -423.019631
 Sum of electronic and thermal Enthalpies=            -423.018687
 Sum of electronic and thermal Free Energies=         -423.058191

                     E (Thermal)             CV                S
                      KCal/Mol        Cal/Mol-Kelvin    Cal/Mol-Kelvin
 Total                  105.840             29.259             83.143
 Electronic               0.000              0.000              0.000
 Translational            0.889              2.981             40.409
 Rotational               0.889              2.981             28.090
 Vibrational            104.062             23.297             14.645
 Vibration     1          0.609              1.932              3.097
 Vibration     2          0.640              1.832              2.085
 Vibration     3          0.666              1.752              1.687
 Vibration     4          0.683              1.703              1.508
 Vibration     5          0.749              1.516              1.046
 Vibration     6          0.764              1.474              0.969
 Vibration     7          0.846              1.272              0.684
 Vibration     8          0.872              1.213              0.618

 Normal termination of Gaussian 09 at Mon Jan 27 19:45:11 2020.
