 Gaussian 09, Revision D.01,
 Gaussian 09:  ES64L-G09RevD.01 24-Apr-2013

 -----------------------------
 # b3lyp 6-31G(2df,p) opt Freq
 -----------------------------

 -----
 titel
 -----
 Symbolic Z-matrix:
 Charge =  0 Multiplicity = 1

 SCF Done:  E(RB3LYP) =  -423.120111597     A.U. after   14 cycles
 Optimization completed.
    -- Stationary point found.
 Normal termination of Gaussian 09 at Tue Jan 28 12:12:36 2020.

 ----------------------------------------------------------------------
 #N Geom=AllCheck Guess=TCheck SCRF=Check GenChk RB3LYP/6-31G(2df,p) Fr
 eq
 ----------------------------------------------------------------------

 Structure from the checkpoint file:  "/scratch/puck/g09_c58f3fcb-7ecd-40c6-9082-777d8ba03cf9/Gau-54399.chk"
 -----
 titel
 -----
 Charge =  0 Multiplicity = 1

                         Standard orientation:
 ---------------------------------------------------------------------
 Center     Atomic      Atomic             Coordinates (Angstroms)
 Number     Number       Type             X           Y           Z
 ---------------------------------------------------------------------
      1          6           0        2.759468    0.211831   -0.420883
      2          6           0        1.713268   -0.325361    0.564914
      3          6           0        0.294710    0.076227    0.235541
      4          6           0       -0.132227    1.539339    0.209921
      5          8           0       -1.533266    1.442444   -0.128333
      6          6           0       -1.725629    0.059112   -0.242519
      7          6           0       -0.920284   -0.719360    0.834970
      8          8           0       -0.705314   -1.832268   -0.093765
      9          6           0       -0.507142   -0.635232   -0.915733
     10          1           0        3.758292   -0.150276   -0.160403
     11          1           0        2.544185   -0.115679   -1.443486
     12          1           0        2.795768    1.306157   -0.422332
     13          1           0        1.746545   -1.420256    0.582775
     14          1           0        1.956573    0.014597    1.580294
     15          1           0       -0.018138    2.035677    1.181961
     16          1           0        0.387288    2.134957   -0.549469
     17          1           0       -2.749399   -0.204683   -0.497023
     18          1           0       -1.153037   -0.952274    1.874511
     19          1           0       -0.252436   -0.768970   -1.967320
 ---------------------------------------------------------------------

 SCF Done:  E(RB3LYP) =  -423.120111597     A.U. after    1 cycles

 The electronic state is 1-A.
 Alpha  occ. eigenvalues --  -19.14595 -19.13787 -10.24324 -10.24284 -10.24162
 Alpha  occ. eigenvalues --  -10.23285 -10.20663 -10.18883 -10.18163  -1.07793
 Alpha  occ. eigenvalues --   -1.03070  -0.81033  -0.75938  -0.72137  -0.65918
 Alpha  occ. eigenvalues --   -0.64118  -0.58747  -0.53472  -0.52482  -0.48150
 Alpha  occ. eigenvalues --   -0.47472  -0.44655  -0.43496  -0.40913  -0.39863
 Alpha  occ. eigenvalues --   -0.38401  -0.37696  -0.35683  -0.34784  -0.33654
 Alpha  occ. eigenvalues --   -0.32389  -0.30456  -0.24837  -0.23675
 Alpha virt. eigenvalues --    0.06970   0.08058   0.11329   0.11705   0.12388
 Alpha virt. eigenvalues --    0.13588   0.14019   0.14588   0.15833   0.16144
 Alpha virt. eigenvalues --    0.17113   0.17417   0.18314   0.20402   0.20617

 Mulliken charges:
               1
     1  C   -0.386668
     2  C   -0.298284
     3  C    0.306383
     4  C   -0.150961
     5  O   -0.275817
     6  C    0.101280
     7  C   -0.036212
     8  O   -0.317570
     9  C   -0.022708
    10  H    0.119031
    11  H    0.120249
    12  H    0.117837
    13  H    0.121704
    14  H    0.097678
    15  H    0.107725
    16  H    0.110668
    17  H    0.103716
    18  H    0.090805
    19  H    0.091144
 Sum of Mulliken charges =   0.00000

 Dipole moment (field-independent basis, Debye):
    X=              1.3125    Y=              0.8128    Z=              0.3335  Tot=              1.5795
 Quadrupole moment (field-independent basis, Debye-Ang):
   XX=            -53.0846   YY=            -59.5412   ZZ=            -49.9640
   XY=              2.1218   XZ=             -0.3343   YZ=              0.3299

  Exact polarizability:  81.719   3.056  71.085  -0.018   0.533  68.769
 Approx polarizability: 108.755   2.922 111.325   0.209   1.165 108.318

                      1                      2                      3
                      A                      A                      A
 Frequencies --     92.7111               169.0027               206.3626
 Red. masses --      2.3160                 2.8912                 1.3368
 Frc consts  --      0.0117                 0.0487                 0.0335
 IR Inten    --      0.2070                 0.2064                 0.4066

                      4                      5                      6
                      A                      A                      A
 Frequencies --    275.5592               306.6662               387.1900
 Red. masses --      2.1024                 2.0718                 3.0743
 Frc consts  --      0.0941                 0.1148                 0.2715
 IR Inten    --      1.1005                 1.2942                 3.7353

                      7                      8                      9
                      A                      A                      A
 Frequencies --    431.6340               515.7706               646.2887
 Red. masses --      3.7250                 4.0022                 3.7739
 Frc consts  --      0.4089                 0.6273                 0.9287
 IR Inten    --      3.7007                 5.6416                 1.7193

                     10                     11                     12
                      A                      A                      A
 Frequencies --    689.1433               713.4320               754.8758
 Red. masses --      4.8883                 3.6712                 2.6304
 Frc consts  --      1.3678                 1.1009                 0.8831
 IR Inten    --      0.1457                 5.7063                 2.7364

                     13                     14                     15
                      A                      A                      A
 Frequencies --    796.7877               818.3851               885.2071
 Red. masses --      1.6279                 2.4530                 3.1635
 Frc consts  --      0.6089                 0.9680                 1.4605
 IR Inten    --      4.6383                14.4760                 1.9542

                     16                     17                     18
                      A                      A                      A
 Frequencies --    886.2632               933.7768               966.1320
 Red. masses --      2.5045                 2.1603                 4.0526
 Frc consts  --      1.1590                 1.1098                 2.2287
 IR Inten    --      4.0764                22.5823                20.5676

                     19                     20                     21
                      A                      A                      A
 Frequencies --    981.8114              1001.4188              1039.5202
 Red. masses --      2.0503                 1.8828                 1.4984
 Frc consts  --      1.1645                 1.1124                 0.9540
 IR Inten    --      5.5372                 2.9287                 0.6009

                     22                     23                     24
                      A                      A                      A
 Frequencies --   1049.5631              1081.3310              1102.3785
 Red. masses --      1.8312                 5.1870                 2.9812
 Frc consts  --      1.1885                 3.5734                 2.1346
 IR Inten    --      2.0839                94.2742                 4.9580

                     25                     26                     27
                      A                      A                      A
 Frequencies --   1132.2628              1152.8997              1170.1412
 Red. masses --      1.7629                 1.3519                 1.5257
 Frc consts  --      1.3316                 1.0587                 1.2308
 IR Inten    --      1.6932                 0.1327                 7.9691

                     28                     29                     30
                      A                      A                      A
 Frequencies --   1192.0414              1210.9158              1227.1189
 Red. masses --      1.9306                 1.2770                 2.2790
 Frc consts  --      1.6163                 1.1032                 2.0219
 IR Inten    --      3.2637                 1.3351                 2.8045

                     31                     32                     33
                      A                      A                      A
 Frequencies --   1249.0633              1287.1518              1310.1985
 Red. masses --      1.6487                 1.6672                 1.4432
 Frc consts  --      1.5155                 1.6274                 1.4596
 IR Inten    --      1.7341                13.6527                19.0873

                     34                     35                     36
                      A                      A                      A
 Frequencies --   1340.7928              1368.5884              1401.4636
 Red. masses --      1.7506                 1.5913                 1.9767
 Frc consts  --      1.8542                 1.7560                 2.2875
 IR Inten    --      7.1661                 5.5967                 2.7472

                     37                     38                     39
                      A                      A                      A
 Frequencies --   1413.4085              1484.2898              1501.7642
 Red. masses --      1.2280                 1.0678                 1.0409
 Frc consts  --      1.4454                 1.3860                 1.3832
 IR Inten    --      2.0020                 2.1534                 5.5376

                     40                     41                     42
                      A                      A                      A
 Frequencies --   1505.6413              1519.7023              3019.6255
 Red. masses --      1.0676                 1.0958                 1.0608
 Frc consts  --      1.4260                 1.4911                 5.6986
 IR Inten    --      4.2665                 0.3162                20.2676

                     43                     44                     45
                      A                      A                      A
 Frequencies --   3022.7532              3035.9782              3062.1046
 Red. masses --      1.0611                 1.0364                 1.1066
 Frc consts  --      5.7125                 5.6282                 6.1135
 IR Inten    --     50.1754                21.5033                31.9546

                     46                     47                     48
                      A                      A                      A
 Frequencies --   3069.1864              3104.6097              3108.8273
 Red. masses --      1.0964                 1.1019                 1.1008
 Frc consts  --      6.0851                 6.2573                 6.2681
 IR Inten    --      3.3571                31.1615                29.6946

                     49                     50                     51
                      A                      A                      A
 Frequencies --   3113.8546              3119.2611              3164.2896
 Red. masses --      1.0898                 1.0931                 1.0938
 Frc consts  --      6.2260                 6.2664                 6.4525
 IR Inten    --     72.9400                 5.8621                27.1497

 - Thermochemistry -
 -------------------
 Temperature   298.150 Kelvin.  Pressure   1.00000 Atm.
 Atom     1 has atomic number  6 and mass  12.00000

 Molecular mass:   126.06808 amu.
 Principal axes and moments of inertia in atomic units:
                           1         2         3
     Eigenvalues --   655.764501099.303711460.52058
           X            0.99966   0.02486  -0.00823
           Y           -0.02487   0.99969  -0.00123
           Z            0.00820   0.00144   0.99997
 This molecule is an asymmetric top.
 Rotational symmetry number  1.
 Warning -- assumption of classical behavior for rotation
           may cause significant error
 Rotational temperatures (Kelvin)      0.13208     0.07879     0.05930
 Rotational constants (GHZ):           2.75212     1.64171     1.23568
 Zero-point vibrational energy     418807.5 (Joules/Mol)
                                  100.09739 (Kcal/Mol)
 Warning -- explicit consideration of   8 degrees of freedom as
           vibrations may cause significant error
 Vibrational temperatures:    133.39   243.16   296.91   396.47   441.22
          (Kelvin)            557.08   621.02   742.08   929.86   991.52
                             1026.47  1086.10  1146.40  1177.47  1273.61
                             1275.13  1343.49  1390.05  1412.61  1440.82
                             1495.64  1510.09  1555.79  1586.07  1629.07
                             1658.76  1683.57  1715.08  1742.24  1765.55
                             1797.12  1851.92  1885.08  1929.10  1969.09
                             2016.39  2033.58  2135.56  2160.70  2166.28
                             2186.51  4344.56  4349.06  4368.09  4405.68
                             4415.87  4466.84  4472.90  4480.14  4487.92
                             4552.70

 Zero-point correction=                           0.159515 (Hartree/Particle)
 Thermal correction to Energy=                    0.167133
 Thermal correction to Enthalpy=                  0.168077
 Thermal correction to Gibbs Free Energy=         0.127440
 Sum of electronic and zero-point Energies=           -422.960596
 Sum of electronic and thermal Energies=              -422.952979
 Sum of electronic and thermal Enthalpies=            -422.952035
 Sum of electronic and thermal Free Energies=         -422.992672

                     E (Thermal)             CV                S
                      KCal/Mol        Cal/Mol-Kelvin    Cal/Mol-Kelvin
 Total                  104.877             30.172             85.528
 Electronic               0.000              0.000              0.000
 Translational            0.889              2.981             40.409
 Rotational               0.889              2.981             28.445
 Vibrational            103.100             24.211             16.674
 Vibration     1          0.602              1.954              3.602
 Vibration     2          0.625              1.881              2.447
 Vibration     3          0.641              1.831              2.076
 Vibration     4          0.677              1.719              1.561
 Vibration     5          0.697              1.661              1.380
 Vibration     6          0.756              1.498              1.011
 Vibration     7          0.793              1.401              0.853
 Vibration     8          0.871              1.215              0.620

 Optimization completed.
    -- Stationary point found.
 Normal termination of Gaussian 09 at Tue Jan 28 13:01:13 2020.
