 Gaussian 09, Revision D.01,
 Gaussian 09:  ES64L-G09RevD.01 24-Apr-2013

 -----------------------------
 # b3lyp 6-31G(2df,p) opt Freq
 -----------------------------

 -----
 titel
 -----
 Symbolic Z-matrix:
 Charge =  0 Multiplicity = 1

 SCF Done:  E(RB3LYP) =  -423.155455869     A.U. after   15 cycles
 Optimization completed.
    -- Stationary point found.
 Normal termination of Gaussian 09 at Mon Jan 27 15:30:21 2020.

 ----------------------------------------------------------------------
 #N Geom=AllCheck Guess=TCheck SCRF=Check GenChk RB3LYP/6-31G(2df,p) Fr
 eq
 ----------------------------------------------------------------------

 Structure from the checkpoint file:  "/scratch/puck/g09_cc7cda51-0208-4649-8e3a-24e0be09416b/Gau-174459.chk"
 -----
 titel
 -----
 Charge =  0 Multiplicity = 1

                         Standard orientation:
 ---------------------------------------------------------------------
 Center     Atomic      Atomic             Coordinates (Angstroms)
 Number     Number       Type             X           Y           Z
 ---------------------------------------------------------------------
      1          6           0       -1.207135   -1.309487   -1.184292
      2          6           0       -1.104701   -0.647384    0.188766
      3          8           0       -2.175373    0.247605    0.418665
      4          6           0        0.272871    0.080388    0.425634
      5          6           0        0.328481    0.585779    1.890117
      6          6           0        1.399176   -0.941131    0.255692
      7          8           0        2.316934   -0.868996   -0.513741
      8          6           0        0.395374    1.196260   -0.507240
      9          6           0        0.428123    2.131853   -1.261933
     10          1           0       -2.196320   -1.760122   -1.296241
     11          1           0       -1.064698   -0.573007   -1.981570
     12          1           0       -0.452750   -2.092475   -1.313338
     13          1           0       -1.199720   -1.409307    0.971656
     14          1           0       -2.088744    0.963098   -0.224929
     15          1           0       -0.563544    1.178641    2.097216
     16          1           0        0.348056   -0.261524    2.583989
     17          1           0        1.217996    1.196931    2.057964
     18          1           0        1.295864   -1.801423    0.958255
     19          1           0        0.498239    2.952644   -1.932854
 ---------------------------------------------------------------------

 SCF Done:  E(RB3LYP) =  -423.155455869     A.U. after    1 cycles

 The electronic state is 1-A.
 Alpha  occ. eigenvalues --  -19.14938 -19.14681 -10.28028 -10.25290 -10.23116
 Alpha  occ. eigenvalues --  -10.19409 -10.19261 -10.18600 -10.18311  -1.05790
 Alpha  occ. eigenvalues --   -1.03250  -0.83699  -0.75202  -0.73901  -0.66684
 Alpha  occ. eigenvalues --   -0.62803  -0.61113  -0.52811  -0.50931  -0.48609
 Alpha  occ. eigenvalues --   -0.46813  -0.45128  -0.44821  -0.42666  -0.40364
 Alpha  occ. eigenvalues --   -0.39584  -0.38304  -0.37703  -0.36579  -0.33680
 Alpha  occ. eigenvalues --   -0.29177  -0.28647  -0.27252  -0.25481
 Alpha virt. eigenvalues --   -0.03013   0.03755   0.04246   0.08436   0.09117
 Alpha virt. eigenvalues --    0.11811   0.12859   0.14305   0.14564   0.15422
 Alpha virt. eigenvalues --    0.16677   0.18130   0.18320   0.20414   0.20653

 Mulliken charges:
               1
     1  C   -0.421267
     2  C    0.120075
     3  O   -0.430409
     4  C   -0.090179
     5  C   -0.427334
     6  C    0.158267
     7  O   -0.247631
     8  C    0.347676
     9  C   -0.469488
    10  H    0.128856
    11  H    0.133605
    12  H    0.127279
    13  H    0.093610
    14  H    0.285143
    15  H    0.151305
    16  H    0.119593
    17  H    0.135713
    18  H    0.080856
    19  H    0.204330
 Sum of Mulliken charges =   0.00000

 Dipole moment (field-independent basis, Debye):
    X=             -1.2032    Y=              0.3112    Z=              0.4763  Tot=              1.3309
 Quadrupole moment (field-independent basis, Debye-Ang):
   XX=            -63.0435   YY=            -48.2121   ZZ=            -51.1874
   XY=              1.3940   XZ=              5.4568   YZ=             -4.1610

  Exact polarizability:  73.008   0.593  82.844  -1.747 -10.518  77.255
 Approx polarizability: 108.784  -1.017 124.753 -10.142 -24.985 117.498

                      1                      2                      3
                      A                      A                      A
 Frequencies --     76.1745                89.8279               134.3249
 Red. masses --      5.1745                 3.3161                 4.5937
 Frc consts  --      0.0177                 0.0158                 0.0488
 IR Inten    --      4.9910                 1.8224                 1.2825

                      4                      5                      6
                      A                      A                      A
 Frequencies --    156.4555               221.8547               224.9547
 Red. masses --      3.8296                 1.4664                 1.3545
 Frc consts  --      0.0552                 0.0425                 0.0404
 IR Inten    --      1.8781                 0.8180                 0.3687

                      7                      8                      9
                      A                      A                      A
 Frequencies --    230.5085               280.9611               322.8680
 Red. masses --      1.2328                 3.1511                 2.4145
 Frc consts  --      0.0386                 0.1466                 0.1483
 IR Inten    --      0.2037                 8.4483                 0.8343

                     10                     11                     12
                      A                      A                      A
 Frequencies --    367.0814               384.8758               419.6754
 Red. masses --      2.0097                 1.9905                 3.8304
 Frc consts  --      0.1596                 0.1737                 0.3975
 IR Inten    --     28.6577                28.7014                12.9227

                     13                     14                     15
                      A                      A                      A
 Frequencies --    427.6102               488.1492               589.6147
 Red. masses --      3.0792                 3.0819                 4.2155
 Frc consts  --      0.3317                 0.4327                 0.8635
 IR Inten    --     42.7903                24.7320                 1.7363

                     16                     17                     18
                      A                      A                      A
 Frequencies --    638.0452               659.6534               666.7734
 Red. masses --      1.2327                 1.2821                 2.9730
 Frc consts  --      0.2957                 0.3287                 0.7787
 IR Inten    --     44.0586                40.4306                 1.3685

                     19                     20                     21
                      A                      A                      A
 Frequencies --    730.0722               850.8647               913.3897
 Red. masses --      5.1387                 2.6734                 1.9836
 Frc consts  --      1.6138                 1.1403                 0.9750
 IR Inten    --     34.5193                 0.5282                37.3184

                     22                     23                     24
                      A                      A                      A
 Frequencies --    937.7518               988.9804              1027.1320
 Red. masses --      1.8377                 1.8454                 1.4073
 Frc consts  --      0.9522                 1.0635                 0.8747
 IR Inten    --      2.3835                 1.2137                12.9869

                     25                     26                     27
                      A                      A                      A
 Frequencies --   1081.2294              1105.9022              1140.9369
 Red. masses --      3.2269                 1.8914                 2.8515
 Frc consts  --      2.2226                 1.3629                 2.1870
 IR Inten    --     13.0203                89.2577                 7.0070

                     28                     29                     30
                      A                      A                      A
 Frequencies --   1168.9210              1228.7622              1318.1760
 Red. masses --      2.3847                 2.5672                 1.6785
 Frc consts  --      1.9198                 2.2837                 1.7183
 IR Inten    --     26.6907                 7.5927                 3.6506

                     31                     32                     33
                      A                      A                      A
 Frequencies --   1344.5423              1394.9787              1409.2078
 Red. masses --      1.3378                 1.1893                 1.2392
 Frc consts  --      1.4249                 1.3636                 1.4499
 IR Inten    --     11.5727                 4.1635                10.2229

                     34                     35                     36
                      A                      A                      A
 Frequencies --   1421.3058              1436.2335              1486.0029
 Red. masses --      1.2100                 1.1767                 1.0548
 Frc consts  --      1.4402                 1.4300                 1.3723
 IR Inten    --     31.0531                36.9712                 1.1179

                     37                     38                     39
                      A                      A                      A
 Frequencies --   1488.6454              1495.0846              1499.3391
 Red. masses --      1.0519                 1.0498                 1.0527
 Frc consts  --      1.3735                 1.3825                 1.3942
 IR Inten    --     11.5738                 1.7597                 3.9274

                     40                     41                     42
                      A                      A                      A
 Frequencies --   1839.1984              2230.8931              2855.9332
 Red. masses --     11.0236                 5.9290                 1.0820
 Frc consts  --     21.9701                17.3856                 5.1994
 IR Inten    --    151.0375                 0.4171                95.5981

                     43                     44                     45
                      A                      A                      A
 Frequencies --   3040.1657              3040.2005              3044.9896
 Red. masses --      1.0484                 1.0532                 1.0548
 Frc consts  --      5.7092                 5.7355                 5.7623
 IR Inten    --     10.2124                 3.8191                37.0142

                     46                     47                     48
                      A                      A                      A
 Frequencies --   3110.2284              3119.1616              3126.4933
 Red. masses --      1.1005                 1.0979                 1.1021
 Frc consts  --      6.2724                 6.2933                 6.3474
 IR Inten    --     19.3613                15.7462                17.6182

                     49                     50                     51
                      A                      A                      A
 Frequencies --   3149.6965              3498.0388              3765.2620
 Red. masses --      1.1027                 1.1619                 1.0654
 Frc consts  --      6.4453                 8.3767                 8.8990
 IR Inten    --      3.5684                69.5012                24.2396

 - Thermochemistry -
 -------------------
 Temperature   298.150 Kelvin.  Pressure   1.00000 Atm.
 Atom     1 has atomic number  6 and mass  12.00000

 Molecular mass:   126.06808 amu.
 Principal axes and moments of inertia in atomic units:
                           1         2         3
     Eigenvalues --   967.904601286.326371395.30092
           X            0.99672   0.05098   0.06280
           Y           -0.05444   0.99702   0.05470
           Z           -0.05983  -0.05793   0.99653
 This molecule is an asymmetric top.
 Rotational symmetry number  1.
 Warning -- assumption of classical behavior for rotation
           may cause significant error
 Rotational temperatures (Kelvin)      0.08949     0.06733     0.06208
 Rotational constants (GHZ):           1.86459     1.40302     1.29344
 Zero-point vibrational energy     404739.3 (Joules/Mol)
                                   96.73502 (Kcal/Mol)
 Warning -- explicit consideration of  15 degrees of freedom as
           vibrations may cause significant error
 Vibrational temperatures:    109.60   129.24   193.26   225.10   319.20
          (Kelvin)            323.66   331.65   404.24   464.53   528.15
                              553.75   603.82   615.23   702.34   848.32
                              918.00   949.09   959.34  1050.41  1224.20
                             1314.16  1349.21  1422.92  1477.81  1555.65
                             1591.14  1641.55  1681.81  1767.91  1896.56
                             1934.49  2007.06  2027.53  2044.94  2066.42
                             2138.02  2141.83  2151.09  2157.21  2646.19
                             3209.75  4109.05  4374.11  4374.16  4381.06
                             4474.92  4487.77  4498.32  4531.71  5032.89
                             5417.37

 Zero-point correction=                           0.154157 (Hartree/Particle)
 Thermal correction to Energy=                    0.164778
 Thermal correction to Enthalpy=                  0.165722
 Thermal correction to Gibbs Free Energy=         0.118937
 Sum of electronic and zero-point Energies=           -423.001299
 Sum of electronic and thermal Energies=              -422.990678
 Sum of electronic and thermal Enthalpies=            -422.989734
 Sum of electronic and thermal Free Energies=         -423.036519

                     E (Thermal)             CV                S
                      KCal/Mol        Cal/Mol-Kelvin    Cal/Mol-Kelvin
 Total                  103.400             38.656             98.469
 Electronic               0.000              0.000              0.000
 Translational            0.889              2.981             40.409
 Rotational               0.889              2.981             28.942
 Vibrational            101.622             32.695             29.118
 Vibration     1          0.599              1.965              3.987
 Vibration     2          0.602              1.956              3.664
 Vibration     3          0.613              1.919              2.883
 Vibration     4          0.620              1.895              2.592
 Vibration     5          0.648              1.808              1.944
 Vibration     6          0.650              1.803              1.919
 Vibration     7          0.652              1.794              1.875
 Vibration     8          0.681              1.709              1.528
 Vibration     9          0.708              1.630              1.296
 Vibration    10          0.740              1.540              1.092
 Vibration    11          0.754              1.502              1.020
 Vibration    12          0.782              1.427              0.893
 Vibration    13          0.789              1.410              0.866
 Vibration    14          0.844              1.276              0.688
 Vibration    15          0.947              1.054              0.468

 Normal termination of Gaussian 09 at Mon Jan 27 16:12:10 2020.
