 Gaussian 09, Revision D.01,
 Gaussian 09:  ES64L-G09RevD.01 24-Apr-2013

 -----------------------------
 # b3lyp 6-31G(2df,p) opt Freq
 -----------------------------

 -----
 titel
 -----
 Symbolic Z-matrix:
 Charge =  0 Multiplicity = 1

 SCF Done:  E(RB3LYP) =  -423.148561784     A.U. after   13 cycles
 Optimization completed.
    -- Stationary point found.
 Normal termination of Gaussian 09 at Mon Jan 27 18:05:29 2020.

 ----------------------------------------------------------------------
 #N Geom=AllCheck Guess=TCheck SCRF=Check GenChk RB3LYP/6-31G(2df,p) Fr
 eq
 ----------------------------------------------------------------------

 Structure from the checkpoint file:  "/scratch/puck/g09_3a60816a-3e2f-421c-9f3e-50b688f4cd53/Gau-89104.chk"
 -----
 titel
 -----
 Charge =  0 Multiplicity = 1

                         Standard orientation:
 ---------------------------------------------------------------------
 Center     Atomic      Atomic             Coordinates (Angstroms)
 Number     Number       Type             X           Y           Z
 ---------------------------------------------------------------------
      1          6           0       -2.151190    0.096450   -0.675616
      2          6           0       -0.830418   -0.221524   -0.038891
      3          6           0       -0.598870   -0.420323    1.483774
      4          6           0        0.873226   -0.223429    1.102566
      5          6           0        1.123451   -1.136494   -0.170645
      6          6           0        1.469791    0.121676   -1.001641
      7          6           0        0.448258    0.755987   -0.064955
      8          8           0        0.299570    2.130969   -0.011406
      9          8           0       -0.227052   -1.414477   -0.573584
     10          1           0       -2.878477   -0.697855   -0.478640
     11          1           0       -2.555429    1.034071   -0.280868
     12          1           0       -2.039994    0.199697   -1.758951
     13          1           0       -0.966767    0.416223    2.087830
     14          1           0       -0.935206   -1.369640    1.907749
     15          1           0        1.692578   -0.044018    1.796118
     16          1           0        1.730971   -2.038504   -0.162281
     17          1           0        2.472788    0.504273   -0.794051
     18          1           0        1.276592    0.077301   -2.076327
     19          1           0       -0.382693    2.352462    0.631793
 ---------------------------------------------------------------------

 SCF Done:  E(RB3LYP) =  -423.148561784     A.U. after    1 cycles

 The electronic state is 1-A.
 Alpha  occ. eigenvalues --  -19.15254 -19.13395 -10.23919 -10.23598 -10.23453
 Alpha  occ. eigenvalues --  -10.18747 -10.18290 -10.17985 -10.17805  -1.05622
 Alpha  occ. eigenvalues --   -1.03098  -0.83902  -0.77891  -0.72429  -0.64901
 Alpha  occ. eigenvalues --   -0.61071  -0.56875  -0.55662  -0.50646  -0.48675
 Alpha  occ. eigenvalues --   -0.46191  -0.45017  -0.41880  -0.40800  -0.39616
 Alpha  occ. eigenvalues --   -0.37325  -0.36678  -0.36070  -0.34472  -0.33098
 Alpha  occ. eigenvalues --   -0.32696  -0.29034  -0.25032  -0.23191
 Alpha virt. eigenvalues --    0.05726   0.09380   0.11867   0.12110   0.13154
 Alpha virt. eigenvalues --    0.13867   0.15254   0.15816   0.16896   0.17736
 Alpha virt. eigenvalues --    0.18196   0.18417   0.19991   0.20842   0.21465

 Mulliken charges:
               1
     1  C   -0.496488
     2  C    0.342652
     3  C   -0.293551
     4  C   -0.136718
     5  C    0.076499
     6  C   -0.285961
     7  C    0.357042
     8  O   -0.475421
     9  O   -0.296664
    10  H    0.130913
    11  H    0.109015
    12  H    0.133027
    13  H    0.084851
    14  H    0.101458
    15  H    0.075282
    16  H    0.082403
    17  H    0.105152
    18  H    0.101575
    19  H    0.284933
 Sum of Mulliken charges =   0.00000

 Dipole moment (field-independent basis, Debye):
    X=             -0.3933    Y=              0.5381    Z=              1.3654  Tot=              1.5194
 Quadrupole moment (field-independent basis, Debye-Ang):
   XX=            -49.9344   YY=            -56.4285   ZZ=            -52.5323
   XY=             -4.1493   XZ=             -0.7696   YZ=              1.2696

  Exact polarizability:  80.750  -2.231  70.087  -2.444  -0.463  72.412
 Approx polarizability: 112.363  -1.729 109.575  -2.896   1.196 107.714

                      1                      2                      3
                      A                      A                      A
 Frequencies --    172.2348               201.2930               215.2778
 Red. masses --      1.0706                 2.0877                 1.4192
 Frc consts  --      0.0187                 0.0498                 0.0388
 IR Inten    --      2.6868                12.9676                44.7130

                      4                      5                      6
                      A                      A                      A
 Frequencies --    240.2610               315.2113               379.4809
 Red. masses --      2.4307                 2.6952                 2.8250
 Frc consts  --      0.0827                 0.1578                 0.2397
 IR Inten    --     33.2047                 4.4276                11.4947

                      7                      8                      9
                      A                      A                      A
 Frequencies --    459.6943               473.9663               532.4383
 Red. masses --      2.1346                 2.1883                 4.2746
 Frc consts  --      0.2658                 0.2896                 0.7140
 IR Inten    --      5.2715                 5.5350                 2.7598

                     10                     11                     12
                      A                      A                      A
 Frequencies --    579.3210               636.7462               681.1139
 Red. masses --      4.5464                 3.4203                 3.7596
 Frc consts  --      0.8990                 0.8170                 1.0276
 IR Inten    --      5.9490                 0.5659                 0.7270

                     13                     14                     15
                      A                      A                      A
 Frequencies --    722.7798               810.0310               838.3339
 Red. masses --      3.9107                 2.6118                 2.9358
 Frc consts  --      1.2037                 1.0097                 1.2157
 IR Inten    --      6.9348                 1.4023                 1.9547

                     16                     17                     18
                      A                      A                      A
 Frequencies --    886.4003               907.8098               921.6164
 Red. masses --      2.3283                 2.0909                 2.5167
 Frc consts  --      1.0778                 1.0152                 1.2595
 IR Inten    --     16.7766                 5.0709                 7.0613

                     19                     20                     21
                      A                      A                      A
 Frequencies --    949.4996               962.9235               983.5818
 Red. masses --      2.1163                 2.1813                 1.7017
 Frc consts  --      1.1241                 1.1917                 0.9700
 IR Inten    --     22.3240                 9.7355                12.3182

                     22                     23                     24
                      A                      A                      A
 Frequencies --   1022.9342              1036.9056              1056.5607
 Red. masses --      1.4762                 1.6376                 2.0993
 Frc consts  --      0.9101                 1.0374                 1.3807
 IR Inten    --     10.2688                25.4547                41.9965

                     25                     26                     27
                      A                      A                      A
 Frequencies --   1112.8403              1140.2394              1144.6359
 Red. masses --      1.6336                 1.6473                 1.9762
 Frc consts  --      1.1920                 1.2619                 1.5255
 IR Inten    --      3.4624                 1.7571                13.0758

                     28                     29                     30
                      A                      A                      A
 Frequencies --   1175.6414              1183.3085              1211.6788
 Red. masses --      1.6467                 1.9411                 1.6543
 Frc consts  --      1.3409                 1.6013                 1.4310
 IR Inten    --      5.0786                26.8778                 3.6572

                     31                     32                     33
                      A                      A                      A
 Frequencies --   1230.0212              1266.5356              1301.1568
 Red. masses --      1.6518                 1.7986                 1.8123
 Frc consts  --      1.4724                 1.6999                 1.8077
 IR Inten    --      2.1955                38.3897                27.6894

                     34                     35                     36
                      A                      A                      A
 Frequencies --   1308.7554              1332.4020              1384.4474
 Red. masses --      2.6024                 2.5576                 1.8865
 Frc consts  --      2.6263                 2.6752                 2.1304
 IR Inten    --    119.3465                39.9604                 3.9874

                     37                     38                     39
                      A                      A                      A
 Frequencies --   1421.0479              1477.2716              1482.5038
 Red. masses --      1.5850                 1.0498                 1.1580
 Frc consts  --      1.8858                 1.3498                 1.4995
 IR Inten    --      9.7644                 4.9861                 3.4709

                     40                     41                     42
                      A                      A                      A
 Frequencies --   1486.6608              1491.9341              3037.0072
 Red. masses --      1.1765                 1.0603                 1.0362
 Frc consts  --      1.5320                 1.3905                 5.6308
 IR Inten    --      1.2662                 6.7635                15.8617

                     43                     44                     45
                      A                      A                      A
 Frequencies --   3045.8317              3059.9240              3105.0420
 Red. masses --      1.0575                 1.0560                 1.1016
 Frc consts  --      5.7802                 5.8258                 6.2577
 IR Inten    --     36.5070                26.5328                 4.4441

                     46                     47                     48
                      A                      A                      A
 Frequencies --   3109.3629              3114.4115              3123.7815
 Red. masses --      1.1053                 1.1014                 1.1095
 Frc consts  --      6.2961                 6.2941                 6.3790
 IR Inten    --     39.7242                12.3536                20.4348

                     49                     50                     51
                      A                      A                      A
 Frequencies --   3137.2341              3148.8042              3802.7903
 Red. masses --      1.0905                 1.0928                 1.0657
 Frc consts  --      6.3236                 6.3839                 9.0799
 IR Inten    --     21.8841                44.2137                14.2147

 - Thermochemistry -
 -------------------
 Temperature   298.150 Kelvin.  Pressure   1.00000 Atm.
 Atom     1 has atomic number  6 and mass  12.00000

 Molecular mass:   126.06808 amu.
 Principal axes and moments of inertia in atomic units:
                           1         2         3
     Eigenvalues --   813.75881 867.276551078.68447
           X            0.97409  -0.22614  -0.00250
           Y            0.22608   0.97400  -0.01422
           Z            0.00565   0.01328   0.99990
 This molecule is an asymmetric top.
 Rotational symmetry number  1.
 Warning -- assumption of classical behavior for rotation
           may cause significant error
 Rotational temperatures (Kelvin)      0.10644     0.09987     0.08030
 Rotational constants (GHZ):           2.21778     2.08093     1.67309
 Zero-point vibrational energy     417626.4 (Joules/Mol)
                                   99.81511 (Kcal/Mol)
 Warning -- explicit consideration of  10 degrees of freedom as
           vibrations may cause significant error
 Vibrational temperatures:    247.81   289.62   309.74   345.68   453.52
          (Kelvin)            545.99   661.40   681.93   766.06   833.51
                              916.13   979.97  1039.92  1165.45  1206.17
                             1275.33  1306.13  1326.00  1366.12  1385.43
                             1415.15  1471.77  1491.87  1520.15  1601.13
                             1640.55  1646.87  1691.48  1702.51  1743.33
                             1769.72  1822.26  1872.07  1883.00  1917.03
                             1991.91  2044.57  2125.46  2132.99  2138.97
                             2146.56  4369.57  4382.27  4402.54  4467.46
                             4473.67  4480.94  4494.42  4513.77  4530.42
                             5471.36

 Zero-point correction=                           0.159066 (Hartree/Particle)
 Thermal correction to Energy=                    0.166807
 Thermal correction to Enthalpy=                  0.167751
 Thermal correction to Gibbs Free Energy=         0.127518
 Sum of electronic and zero-point Energies=           -422.989496
 Sum of electronic and thermal Energies=              -422.981755
 Sum of electronic and thermal Enthalpies=            -422.980811
 Sum of electronic and thermal Free Energies=         -423.021044

                     E (Thermal)             CV                S
                      KCal/Mol        Cal/Mol-Kelvin    Cal/Mol-Kelvin
 Total                  104.673             31.603             84.677
 Electronic               0.000              0.000              0.000
 Translational            0.889              2.981             40.409
 Rotational               0.889              2.981             28.123
 Vibrational            102.895             25.642             16.146
 Vibration     1          0.626              1.877              2.411
 Vibration     2          0.638              1.838              2.121
 Vibration     3          0.645              1.818              1.998
 Vibration     4          0.657              1.779              1.801
 Vibration     5          0.703              1.645              1.335
 Vibration     6          0.749              1.514              1.041
 Vibration     7          0.818              1.339              0.767
 Vibration     8          0.831              1.308              0.727
 Vibration     9          0.887              1.178              0.582
 Vibration    10          0.936              1.076              0.487

 Normal termination of Gaussian 09 at Mon Jan 27 18:52:34 2020.
