 Gaussian 09, Revision D.01,
 Gaussian 09:  ES64L-G09RevD.01 24-Apr-2013

 -----------------------------
 # b3lyp 6-31G(2df,p) opt Freq
 -----------------------------

 -----
 titel
 -----
 Symbolic Z-matrix:
 Charge =  0 Multiplicity = 1

 SCF Done:  E(RB3LYP) =  -423.204390115     A.U. after   14 cycles
 Optimization completed.
    -- Stationary point found.
 Normal termination of Gaussian 09 at Mon Jan 27 23:03:26 2020.

 ----------------------------------------------------------------------
 #N Geom=AllCheck Guess=TCheck SCRF=Check GenChk RB3LYP/6-31G(2df,p) Fr
 eq
 ----------------------------------------------------------------------

 Structure from the checkpoint file:  "/scratch/puck/g09_a38976da-1a09-4e3b-8cdb-940947e84698/Gau-102370.chk"
 -----
 titel
 -----
 Charge =  0 Multiplicity = 1

                         Standard orientation:
 ---------------------------------------------------------------------
 Center     Atomic      Atomic             Coordinates (Angstroms)
 Number     Number       Type             X           Y           Z
 ---------------------------------------------------------------------
      1          6           0       -1.789318    1.492061   -0.693414
      2          6           0       -0.999968    0.720934    0.378937
      3          6           0        0.483611    1.038635    0.386991
      4          6           0        1.361551    0.245443    1.339575
      5          6           0        1.271752   -0.175123   -0.092329
      6          8           0        2.444958   -0.058013   -0.835238
      7          6           0        0.293005   -1.284902   -0.427877
      8          6           0       -1.068185   -0.793350    0.085597
      9          8           0       -2.050619   -1.474729    0.220663
     10          1           0       -1.358679    1.342659   -1.689813
     11          1           0       -2.828361    1.153473   -0.716316
     12          1           0       -1.777710    2.565486   -0.481746
     13          1           0       -1.474688    0.894871    1.352273
     14          1           0        0.814276    2.035323    0.115658
     15          1           0        2.296337    0.708854    1.632616
     16          1           0        0.895396   -0.364943    2.108593
     17          1           0        2.206294    0.143056   -1.747392
     18          1           0        0.219031   -1.415759   -1.517035
     19          1           0        0.538700   -2.263282   -0.005121
 ---------------------------------------------------------------------

 SCF Done:  E(RB3LYP) =  -423.204390115     A.U. after    1 cycles

 The electronic state is 1-A.
 Alpha  occ. eigenvalues --  -19.15158 -19.13292 -10.26985 -10.24738 -10.19929
 Alpha  occ. eigenvalues --  -10.19463 -10.19431 -10.19026 -10.18833  -1.04443
 Alpha  occ. eigenvalues --   -1.03773  -0.88063  -0.77547  -0.74477  -0.65802
 Alpha  occ. eigenvalues --   -0.59892  -0.57996  -0.54022  -0.52076  -0.47514
 Alpha  occ. eigenvalues --   -0.46864  -0.44017  -0.42873  -0.41682  -0.41166
 Alpha  occ. eigenvalues --   -0.39829  -0.38912  -0.37039  -0.35402  -0.34896
 Alpha  occ. eigenvalues --   -0.32702  -0.28899  -0.25737  -0.23845
 Alpha virt. eigenvalues --   -0.02124   0.06546   0.09502   0.11022   0.11689
 Alpha virt. eigenvalues --    0.12466   0.14015   0.15850   0.15959   0.17650
 Alpha virt. eigenvalues --    0.17744   0.19477   0.20354   0.21185   0.21392

 Mulliken charges:
               1
     1  C   -0.404851
     2  C   -0.090861
     3  C   -0.119248
     4  C   -0.337767
     5  C    0.415700
     6  O   -0.469346
     7  C   -0.400720
     8  C    0.380071
     9  O   -0.315769
    10  H    0.112040
    11  H    0.138938
    12  H    0.122233
    13  H    0.101422
    14  H    0.089739
    15  H    0.127503
    16  H    0.115964
    17  H    0.279231
    18  H    0.120477
    19  H    0.135242
 Sum of Mulliken charges =   0.00000

 Dipole moment (field-independent basis, Debye):
    X=              0.9071    Y=              1.8393    Z=             -1.0807  Tot=              2.3181
 Quadrupole moment (field-independent basis, Debye-Ang):
   XX=            -62.7146   YY=            -54.3735   ZZ=            -48.2528
   XY=             -3.9565   XZ=             -0.1066   YZ=             -0.0422

  Exact polarizability:  81.355  -0.575  74.175   0.282   0.149  68.886
 Approx polarizability: 115.240   3.412 108.692  -3.247  -0.477 104.762

                      1                      2                      3
                      A                      A                      A
 Frequencies --     68.7940               140.3653               226.8540
 Red. masses --      3.5293                 3.4729                 2.0601
 Frc consts  --      0.0098                 0.0403                 0.0625
 IR Inten    --      3.9015                 2.7638                 0.5978

                      4                      5                      6
                      A                      A                      A
 Frequencies --    246.3505               273.2780               321.9615
 Red. masses --      1.2100                 1.4043                 1.7315
 Frc consts  --      0.0433                 0.0618                 0.1058
 IR Inten    --      0.9304                30.9524                44.3731

                      7                      8                      9
                      A                      A                      A
 Frequencies --    349.9289               407.8845               429.8487
 Red. masses --      4.9333                 2.7315                 2.8076
 Frc consts  --      0.3559                 0.2677                 0.3057
 IR Inten    --     23.8287                 7.8568                 1.7821

                     10                     11                     12
                      A                      A                      A
 Frequencies --    482.1130               519.8043               614.5577
 Red. masses --      3.9424                 2.9740                 3.4765
 Frc consts  --      0.5399                 0.4735                 0.7736
 IR Inten    --      2.3100                 5.7339                 1.9781

                     13                     14                     15
                      A                      A                      A
 Frequencies --    620.2683               731.4599               755.2667
 Red. masses --      3.7197                 4.3026                 2.5311
 Frc consts  --      0.8432                 1.3563                 0.8507
 IR Inten    --      7.3560                 6.3456                 1.3410

                     16                     17                     18
                      A                      A                      A
 Frequencies --    830.3987               874.3049               921.3942
 Red. masses --      1.6178                 2.5630                 1.8564
 Frc consts  --      0.6573                 1.1543                 0.9286
 IR Inten    --      1.3336                 8.9153                14.9584

                     19                     20                     21
                      A                      A                      A
 Frequencies --    945.4350               956.3193              1009.7410
 Red. masses --      1.3612                 1.6559                 3.6670
 Frc consts  --      0.7169                 0.8923                 2.2028
 IR Inten    --      2.6946                 5.7729                13.6925

                     22                     23                     24
                      A                      A                      A
 Frequencies --   1035.8616              1053.0866              1068.5169
 Red. masses --      1.4468                 1.6264                 1.4443
 Frc consts  --      0.9146                 1.0627                 0.9715
 IR Inten    --      3.1125                21.7670                 1.2660

                     25                     26                     27
                      A                      A                      A
 Frequencies --   1093.0650              1129.4400              1158.3031
 Red. masses --      2.2112                 1.8138                 1.4538
 Frc consts  --      1.5566                 1.3632                 1.1492
 IR Inten    --      0.9041                12.8567                 8.4057

                     28                     29                     30
                      A                      A                      A
 Frequencies --   1177.7122              1219.0201              1248.6093
 Red. masses --      1.9573                 1.7505                 1.8202
 Frc consts  --      1.5995                 1.5326                 1.6720
 IR Inten    --     21.6034                37.8348                92.4897

                     31                     32                     33
                      A                      A                      A
 Frequencies --   1276.7908              1303.8247              1326.8437
 Red. masses --      1.6382                 1.6518                 1.9087
 Frc consts  --      1.5734                 1.6544                 1.9798
 IR Inten    --      4.2651                 1.5376                32.5719

                     34                     35                     36
                      A                      A                      A
 Frequencies --   1341.0723              1401.3205              1415.2973
 Red. masses --      2.0148                 1.2547                 1.6638
 Frc consts  --      2.1349                 1.4516                 1.9635
 IR Inten    --     72.9249                 0.8278                 4.4272

                     37                     38                     39
                      A                      A                      A
 Frequencies --   1451.4186              1491.1884              1498.4552
 Red. masses --      1.1095                 1.4629                 1.0463
 Frc consts  --      1.3771                 1.9166                 1.3842
 IR Inten    --      4.8940                10.2408                 6.8407

                     40                     41                     42
                      A                      A                      A
 Frequencies --   1499.1968              1843.8323              3018.2737
 Red. masses --      1.0643                12.5930                 1.0680
 Frc consts  --      1.4094                25.2244                 5.7322
 IR Inten    --      2.1103               181.9662                12.7661

                     43                     44                     45
                      A                      A                      A
 Frequencies --   3032.3740              3036.1222              3091.0208
 Red. masses --      1.0592                 1.0583                 1.0932
 Frc consts  --      5.7386                 5.7478                 6.1540
 IR Inten    --     12.4723                25.2229                 9.4212

                     46                     47                     48
                      A                      A                      A
 Frequencies --   3102.0210              3121.5274              3122.9254
 Red. masses --      1.1008                 1.0579                 1.1015
 Frc consts  --      6.2411                 6.0733                 6.3296
 IR Inten    --     26.6674                 9.2226                14.4963

                     49                     50                     51
                      A                      A                      A
 Frequencies --   3171.1550              3220.7273              3787.3187
 Red. masses --      1.0908                 1.1134                 1.0659
 Frc consts  --      6.4627                 6.8050                 9.0080
 IR Inten    --      8.5496                 4.7468                12.9637

 - Thermochemistry -
 -------------------
 Temperature   298.150 Kelvin.  Pressure   1.00000 Atm.
 Atom     1 has atomic number  6 and mass  12.00000

 Molecular mass:   126.06808 amu.
 Principal axes and moments of inertia in atomic units:
                           1         2         3
     Eigenvalues --   693.617981298.034961541.06800
           X            0.99835  -0.05383   0.02021
           Y            0.05407   0.99847  -0.01175
           Z           -0.01955   0.01283   0.99973
 This molecule is an asymmetric top.
 Rotational symmetry number  1.
 Warning -- assumption of classical behavior for rotation
           may cause significant error
 Rotational temperatures (Kelvin)      0.12487     0.06673     0.05620
 Rotational constants (GHZ):           2.60192     1.39036     1.17110
 Zero-point vibrational energy     415478.9 (Joules/Mol)
                                   99.30184 (Kcal/Mol)
 Warning -- explicit consideration of  13 degrees of freedom as
           vibrations may cause significant error
 Vibrational temperatures:     98.98   201.95   326.39   354.44   393.19
          (Kelvin)            463.23   503.47   586.85   618.46   693.65
                              747.88   884.21   892.43  1052.41  1086.66
                             1194.76  1257.93  1325.68  1360.27  1375.93
                             1452.79  1490.37  1515.15  1537.36  1572.67
                             1625.01  1666.54  1694.46  1753.90  1796.47
                             1837.01  1875.91  1909.03  1929.50  2016.19
                             2036.29  2088.27  2145.48  2155.94  2157.01
                             2652.86  4342.62  4362.90  4368.30  4447.28
                             4463.11  4491.18  4493.19  4562.58  4633.90
                             5449.10

 Zero-point correction=                           0.158248 (Hartree/Particle)
 Thermal correction to Energy=                    0.166871
 Thermal correction to Enthalpy=                  0.167815
 Thermal correction to Gibbs Free Energy=         0.125161
 Sum of electronic and zero-point Energies=           -423.046143
 Sum of electronic and thermal Energies=              -423.037519
 Sum of electronic and thermal Enthalpies=            -423.036575
 Sum of electronic and thermal Free Energies=         -423.079229

                     E (Thermal)             CV                S
                      KCal/Mol        Cal/Mol-Kelvin    Cal/Mol-Kelvin
 Total                  104.713             33.477             89.774
 Electronic               0.000              0.000              0.000
 Translational            0.889              2.981             40.409
 Rotational               0.889              2.981             28.719
 Vibrational            102.936             27.516             20.646
 Vibration     1          0.598              1.969              4.188
 Vibration     2          0.615              1.913              2.799
 Vibration     3          0.651              1.800              1.904
 Vibration     4          0.661              1.769              1.757
 Vibration     5          0.676              1.723              1.575
 Vibration     6          0.707              1.631              1.300
 Vibration     7          0.727              1.575              1.167
 Vibration     8          0.772              1.453              0.934
 Vibration     9          0.791              1.405              0.859
 Vibration    10          0.838              1.290              0.704
 Vibration    11          0.875              1.206              0.610
 Vibration    12          0.974              1.001              0.425
 Vibration    13          0.980              0.989              0.416

 Normal termination of Gaussian 09 at Mon Jan 27 23:47:55 2020.
