 Gaussian 09, Revision D.01,
 Gaussian 09:  ES64L-G09RevD.01 24-Apr-2013

 -----------------------------
 # b3lyp 6-31G(2df,p) opt Freq
 -----------------------------

 -----
 titel
 -----
 Symbolic Z-matrix:
 Charge =  0 Multiplicity = 1

 SCF Done:  E(RB3LYP) =  -423.164074910     A.U. after   13 cycles
 Optimization completed.
    -- Stationary point found.
 Normal termination of Gaussian 09 at Mon Jan 27 18:05:56 2020.

 ----------------------------------------------------------------------
 #N Geom=AllCheck Guess=TCheck SCRF=Check GenChk RB3LYP/6-31G(2df,p) Fr
 eq
 ----------------------------------------------------------------------

 Structure from the checkpoint file:  "/scratch/puck/g09_c0203c70-7957-4320-8cfc-32106d8f4ed8/Gau-52963.chk"
 -----
 titel
 -----
 Charge =  0 Multiplicity = 1

                         Standard orientation:
 ---------------------------------------------------------------------
 Center     Atomic      Atomic             Coordinates (Angstroms)
 Number     Number       Type             X           Y           Z
 ---------------------------------------------------------------------
      1          8           0       -2.526489   -0.612882    0.018311
      2          6           0       -1.200622   -0.218975    0.087200
      3          6           0       -0.166620   -0.809031    1.047400
      4          6           0        0.929464   -0.475937   -0.026010
      5          8           0        1.898381   -1.446685   -0.298693
      6          6           0        1.580057    0.881453    0.255585
      7          6           0        0.392973    1.877282    0.234897
      8          6           0       -0.724768    1.110181   -0.477841
      9          6           0       -0.215478   -0.192437   -1.054620
     10          1           0       -3.032427   -0.082977    0.644272
     11          1           0       -0.055440   -0.382086    2.051383
     12          1           0       -0.304307   -1.892426    1.128410
     13          1           0        1.452669   -2.286858   -0.447980
     14          1           0        2.128765    0.879720    1.201825
     15          1           0        2.293884    1.100078   -0.545397
     16          1           0        0.097647    2.184613    1.244390
     17          1           0        0.647075    2.790137   -0.311484
     18          1           0       -1.483511    1.647076   -1.037511
     19          1           0       -0.289527   -0.515960   -2.084524
 ---------------------------------------------------------------------

 SCF Done:  E(RB3LYP) =  -423.164074910     A.U. after    1 cycles

 The electronic state is 1-A.
 Alpha  occ. eigenvalues --  -19.14644 -19.13851 -10.23770 -10.23709 -10.18750
 Alpha  occ. eigenvalues --  -10.18140 -10.17801 -10.17797 -10.17421  -1.03332
 Alpha  occ. eigenvalues --   -1.02366  -0.89818  -0.75665  -0.72741  -0.65835
 Alpha  occ. eigenvalues --   -0.59144  -0.56772  -0.54748  -0.52620  -0.47454
 Alpha  occ. eigenvalues --   -0.45955  -0.45557  -0.43011  -0.40333  -0.39201
 Alpha  occ. eigenvalues --   -0.38066  -0.36285  -0.34659  -0.33831  -0.32449
 Alpha  occ. eigenvalues --   -0.29911  -0.25936  -0.25259  -0.24586
 Alpha virt. eigenvalues --    0.07477   0.07934   0.09855   0.11429   0.12376
 Alpha virt. eigenvalues --    0.14074   0.15591   0.15985   0.17015   0.17306
 Alpha virt. eigenvalues --    0.17775   0.19434   0.21025   0.21881   0.25450

 Mulliken charges:
               1
     1  O   -0.468799
     2  C    0.399339
     3  C   -0.371326
     4  C    0.430743
     5  O   -0.497836
     6  C   -0.227588
     7  C   -0.247435
     8  C   -0.108028
     9  C   -0.231772
    10  H    0.283129
    11  H    0.084999
    12  H    0.095522
    13  H    0.278270
    14  H    0.100022
    15  H    0.105511
    16  H    0.096204
    17  H    0.102245
    18  H    0.086004
    19  H    0.090795
 Sum of Mulliken charges =   0.00000

 Dipole moment (field-independent basis, Debye):
    X=             -1.0453    Y=              0.6684    Z=              0.7054  Tot=              1.4272
 Quadrupole moment (field-independent basis, Debye-Ang):
   XX=            -56.7300   YY=            -49.8383   ZZ=            -51.5869
   XY=             -2.0013   XZ=             -2.4580   YZ=              0.5800

  Exact polarizability:  77.890   0.163  76.604  -0.796  -0.080  67.333
 Approx polarizability: 110.746  -0.877 110.364  -3.610   1.630 104.551

                      1                      2                      3
                      A                      A                      A
 Frequencies --    187.4462               221.0464               271.3486
 Red. masses --      2.4860                 1.9451                 1.2784
 Frc consts  --      0.0515                 0.0560                 0.0555
 IR Inten    --      1.5393                 8.1970               105.9401

                      4                      5                      6
                      A                      A                      A
 Frequencies --    295.0107               306.7381               348.0156
 Red. masses --      1.3135                 2.5633                 3.0357
 Frc consts  --      0.0674                 0.1421                 0.2166
 IR Inten    --     18.9823                 2.2359                66.2263

                      7                      8                      9
                      A                      A                      A
 Frequencies --    393.2296               432.2608               458.6304
 Red. masses --      3.3323                 2.3607                 3.2354
 Frc consts  --      0.3036                 0.2599                 0.4010
 IR Inten    --      3.1405                 2.2935                 8.3300

                     10                     11                     12
                      A                      A                      A
 Frequencies --    565.7777               578.3894               691.6488
 Red. masses --      2.8321                 4.8333                 3.5392
 Frc consts  --      0.5341                 0.9527                 0.9975
 IR Inten    --      2.0033                 4.5056                 3.4842

                     13                     14                     15
                      A                      A                      A
 Frequencies --    710.1679               745.2205               825.8257
 Red. masses --      3.2506                 2.8061                 1.5306
 Frc consts  --      0.9659                 0.9182                 0.6150
 IR Inten    --      0.3417                 4.5657                 2.0260

                     16                     17                     18
                      A                      A                      A
 Frequencies --    856.2561               910.5306               923.1478
 Red. masses --      2.1346                 1.8785                 1.7613
 Frc consts  --      0.9221                 0.9176                 0.8844
 IR Inten    --      0.9676                 0.9696                 6.8808

                     19                     20                     21
                      A                      A                      A
 Frequencies --    939.0074               975.9147               976.3388
 Red. masses --      2.5019                 1.5096                 2.4733
 Frc consts  --      1.2997                 0.8471                 1.3891
 IR Inten    --      3.4864                19.9023                 5.1502

                     22                     23                     24
                      A                      A                      A
 Frequencies --   1007.7736              1028.6555              1076.9534
 Red. masses --      1.9836                 1.9333                 2.0710
 Frc consts  --      1.1870                 1.2053                 1.4152
 IR Inten    --     12.2738                 0.6364                14.9842

                     25                     26                     27
                      A                      A                      A
 Frequencies --   1089.7511              1106.2248              1131.3376
 Red. masses --      1.6759                 2.0653                 1.5233
 Frc consts  --      1.1726                 1.4891                 1.1487
 IR Inten    --     43.3425                13.6651                50.3887

                     28                     29                     30
                      A                      A                      A
 Frequencies --   1186.2256              1206.0735              1222.3554
 Red. masses --      1.6128                 1.5218                 1.4414
 Frc consts  --      1.3371                 1.3042                 1.2689
 IR Inten    --     34.9483                10.3777                 0.8971

                     31                     32                     33
                      A                      A                      A
 Frequencies --   1243.1198              1265.5890              1288.8065
 Red. masses --      1.8636                 1.5912                 2.5772
 Frc consts  --      1.6968                 1.5016                 2.5222
 IR Inten    --     24.6142                15.9828                85.1381

                     34                     35                     36
                      A                      A                      A
 Frequencies --   1299.2172              1327.4025              1343.2014
 Red. masses --      1.5852                 1.5689                 1.8613
 Frc consts  --      1.5765                 1.6287                 1.9785
 IR Inten    --     66.4180                 2.7158               104.5788

                     37                     38                     39
                      A                      A                      A
 Frequencies --   1386.7027              1446.2019              1488.2795
 Red. masses --      1.9085                 2.3762                 1.0902
 Frc consts  --      2.1622                 2.9281                 1.4227
 IR Inten    --     15.8214                15.3200                 0.0712

                     40                     41                     42
                      A                      A                      A
 Frequencies --   1493.6781              1512.4115              3024.1074
 Red. masses --      1.2556                 1.1244                 1.0591
 Frc consts  --      1.6505                 1.5154                 5.7067
 IR Inten    --      2.4152                 1.9866                41.5472

                     43                     44                     45
                      A                      A                      A
 Frequencies --   3039.7148              3049.9379              3079.2103
 Red. masses --      1.0619                 1.0636                 1.0979
 Frc consts  --      5.7808                 5.8289                 6.1332
 IR Inten    --     37.9125                31.3072                20.7685

                     46                     47                     48
                      A                      A                      A
 Frequencies --   3083.4811              3100.6654              3171.6083
 Red. masses --      1.1054                 1.1054                 1.0892
 Frc consts  --      6.1925                 6.2616                 6.4552
 IR Inten    --     24.1884                37.1695                13.2903

                     49                     50                     51
                      A                      A                      A
 Frequencies --   3204.1406              3792.6504              3812.9280
 Red. masses --      1.0959                 1.0661                 1.0659
 Frc consts  --      6.6287                 9.0349                 9.1305
 IR Inten    --      7.1445                20.7387                17.0022

 - Thermochemistry -
 -------------------
 Temperature   298.150 Kelvin.  Pressure   1.00000 Atm.
 Atom     1 has atomic number  8 and mass  15.99491

 Molecular mass:   126.06808 amu.
 Principal axes and moments of inertia in atomic units:
                           1         2         3
     Eigenvalues --   683.067831063.254011409.03896
           X            0.99988   0.01567   0.00157
           Y           -0.01567   0.99987  -0.00226
           Z           -0.00161   0.00223   1.00000
 This molecule is an asymmetric top.
 Rotational symmetry number  1.
 Warning -- assumption of classical behavior for rotation
           may cause significant error
 Rotational temperatures (Kelvin)      0.12680     0.08146     0.06147
 Rotational constants (GHZ):           2.64211     1.69738     1.28083
 Zero-point vibrational energy     419412.9 (Joules/Mol)
                                  100.24208 (Kcal/Mol)
 Warning -- explicit consideration of  11 degrees of freedom as
           vibrations may cause significant error
 Vibrational temperatures:    269.69   318.04   390.41   424.45   441.33
          (Kelvin)            500.72   565.77   621.93   659.87   814.03
                              832.17   995.13  1021.77  1072.20  1188.18
                             1231.96  1310.05  1328.20  1351.02  1404.12
                             1404.73  1449.96  1480.00  1549.49  1567.91
                             1591.61  1627.74  1706.71  1735.27  1758.69
                             1788.57  1820.90  1854.30  1869.28  1909.83
                             1932.56  1995.15  2080.76  2141.30  2149.07
                             2176.02  4351.01  4373.47  4388.17  4430.29
                             4436.44  4461.16  4563.23  4610.04  5456.77
                             5485.95

 Zero-point correction=                           0.159746 (Hartree/Particle)
 Thermal correction to Energy=                    0.167550
 Thermal correction to Enthalpy=                  0.168495
 Thermal correction to Gibbs Free Energy=         0.128195
 Sum of electronic and zero-point Energies=           -423.004329
 Sum of electronic and thermal Energies=              -422.996524
 Sum of electronic and thermal Enthalpies=            -422.995580
 Sum of electronic and thermal Free Energies=         -423.035880

                     E (Thermal)             CV                S
                      KCal/Mol        Cal/Mol-Kelvin    Cal/Mol-Kelvin
 Total                  105.139             32.248             84.817
 Electronic               0.000              0.000              0.000
 Translational            0.889              2.981             40.409
 Rotational               0.889              2.981             28.417
 Vibrational            103.362             26.287             15.992
 Vibration     1          0.632              1.857              2.253
 Vibration     2          0.648              1.809              1.951
 Vibration     3          0.675              1.726              1.588
 Vibration     4          0.689              1.683              1.445
 Vibration     5          0.697              1.661              1.380
 Vibration     6          0.726              1.579              1.175
 Vibration     7          0.760              1.485              0.988
 Vibration     8          0.793              1.400              0.851
 Vibration     9          0.817              1.342              0.770
 Vibration    10          0.922              1.105              0.512
 Vibration    11          0.935              1.078              0.488

 Normal termination of Gaussian 09 at Mon Jan 27 18:51:40 2020.
