 Gaussian 09, Revision D.01,
 Gaussian 09:  ES64L-G09RevD.01 24-Apr-2013

 -----------------------------
 # b3lyp 6-31G(2df,p) opt Freq
 -----------------------------

 -----
 titel
 -----
 Symbolic Z-matrix:
 Charge =  0 Multiplicity = 1

 SCF Done:  E(RB3LYP) =  -423.229707807     A.U. after   14 cycles
 Optimization completed.
    -- Stationary point found.
 Normal termination of Gaussian 09 at Tue Jan 28 09:49:57 2020.

 ----------------------------------------------------------------------
 #N Geom=AllCheck Guess=TCheck SCRF=Check GenChk RB3LYP/6-31G(2df,p) Fr
 eq
 ----------------------------------------------------------------------

 Structure from the checkpoint file:  "/scratch/puck/g09_d92e7938-016f-478e-84c3-dba7a549d04d/Gau-96483.chk"
 -----
 titel
 -----
 Charge =  0 Multiplicity = 1

                         Standard orientation:
 ---------------------------------------------------------------------
 Center     Atomic      Atomic             Coordinates (Angstroms)
 Number     Number       Type             X           Y           Z
 ---------------------------------------------------------------------
      1          6           0        2.430995    0.012508    0.916210
      2          6           0        1.769269   -0.485699   -0.374034
      3          6           0        0.262679   -0.366113   -0.364709
      4          6           0       -0.627429   -1.320075   -1.146497
      5          6           0       -0.717782   -1.272061    0.348327
      6          6           0       -1.796197   -0.361178    0.906052
      7          8           0       -1.564542    0.937525    0.333438
      8          6           0       -0.335666    1.008166   -0.262614
      9          8           0        0.138039    2.047225   -0.625206
     10          1           0        3.518263   -0.094220    0.860534
     11          1           0        2.206013    1.069609    1.083786
     12          1           0        2.082397   -0.553590    1.786826
     13          1           0        2.149345    0.089805   -1.225921
     14          1           0        2.039131   -1.532608   -0.555100
     15          1           0       -1.444007   -0.918146   -1.738758
     16          1           0       -0.123299   -2.172073   -1.589524
     17          1           0       -0.387687   -2.115668    0.942170
     18          1           0       -2.811622   -0.668448    0.636949
     19          1           0       -1.731718   -0.275947    1.996765
 ---------------------------------------------------------------------

 SCF Done:  E(RB3LYP) =  -423.229707807     A.U. after    1 cycles

 The electronic state is 1-A.
 Alpha  occ. eigenvalues --  -19.17796 -19.11982 -10.30003 -10.25260 -10.21551
 Alpha  occ. eigenvalues --  -10.21441 -10.20743 -10.19401 -10.17741  -1.09650
 Alpha  occ. eigenvalues --   -1.01802  -0.88981  -0.77211  -0.73132  -0.65537
 Alpha  occ. eigenvalues --   -0.63601  -0.59761  -0.55107  -0.51041  -0.48384
 Alpha  occ. eigenvalues --   -0.47704  -0.44506  -0.43945  -0.42677  -0.41982
 Alpha  occ. eigenvalues --   -0.39593  -0.38288  -0.36498  -0.35632  -0.34303
 Alpha  occ. eigenvalues --   -0.31501  -0.29469  -0.29130  -0.26081
 Alpha virt. eigenvalues --    0.01275   0.07774   0.10308   0.10798   0.11577
 Alpha virt. eigenvalues --    0.11991   0.13005   0.14581   0.15792   0.16847
 Alpha virt. eigenvalues --    0.17380   0.18215   0.18910   0.20743   0.22243

 Mulliken charges:
               1
     1  C   -0.389758
     2  C   -0.275177
     3  C    0.193529
     4  C   -0.338387
     5  C   -0.111417
     6  C   -0.101412
     7  O   -0.232357
     8  C    0.416568
     9  O   -0.354869
    10  H    0.116619
    11  H    0.143328
    12  H    0.109832
    13  H    0.124589
    14  H    0.095012
    15  H    0.131050
    16  H    0.123838
    17  H    0.104542
    18  H    0.123426
    19  H    0.121045
 Sum of Mulliken charges =   0.00000

 Dipole moment (field-independent basis, Debye):
    X=             -0.1674    Y=             -4.1328    Z=              0.9409  Tot=              4.2418
 Quadrupole moment (field-independent basis, Debye-Ang):
   XX=            -51.1414   YY=            -59.2617   ZZ=            -51.5567
   XY=              1.2533   XZ=             -0.5103   YZ=              1.5718

  Exact polarizability:  81.299   5.009  74.427  -3.213  -0.248  68.475
 Approx polarizability: 110.953  10.699 117.010  -7.792  -4.820 102.666

                      1                      2                      3
                      A                      A                      A
 Frequencies --     80.1311               131.9798               180.8379
 Red. masses --      2.4549                 4.0780                 3.4009
 Frc consts  --      0.0093                 0.0419                 0.0655
 IR Inten    --      1.6049                 0.0789                 1.5147

                      4                      5                      6
                      A                      A                      A
 Frequencies --    197.6730               234.9329               296.8030
 Red. masses --      1.8807                 1.8215                 1.7811
 Frc consts  --      0.0433                 0.0592                 0.0924
 IR Inten    --      2.6045                 1.6893                 1.5684

                      7                      8                      9
                      A                      A                      A
 Frequencies --    377.2884               448.9136               486.1721
 Red. masses --      2.3583                 3.0195                 3.5074
 Frc consts  --      0.1978                 0.3585                 0.4884
 IR Inten    --      0.2354                 1.9237                 1.8983

                     10                     11                     12
                      A                      A                      A
 Frequencies --    569.7144               687.8354               711.2615
 Red. masses --      5.2034                 4.9789                 5.0838
 Frc consts  --      0.9951                 1.3879                 1.5153
 IR Inten    --      3.0915                 1.0963                 3.0397

                     13                     14                     15
                      A                      A                      A
 Frequencies --    769.7558               785.9301               841.9926
 Red. masses --      1.5043                 3.5261                 1.8075
 Frc consts  --      0.5252                 1.2833                 0.7550
 IR Inten    --      5.0605                 6.3011                 2.1369

                     16                     17                     18
                      A                      A                      A
 Frequencies --    864.8312               913.4218               939.8651
 Red. masses --      2.4220                 2.3440                 1.6000
 Frc consts  --      1.0673                 1.1523                 0.8327
 IR Inten    --      3.6139                 1.1048                 8.1727

                     19                     20                     21
                      A                      A                      A
 Frequencies --    995.4074              1009.1336              1035.2355
 Red. masses --      2.1519                 1.8273                 2.1048
 Frc consts  --      1.2562                 1.0963                 1.3291
 IR Inten    --      4.1969                51.7183                33.8801

                     22                     23                     24
                      A                      A                      A
 Frequencies --   1061.1195              1063.5560              1091.4045
 Red. masses --      1.3976                 2.0545                 2.4857
 Frc consts  --      0.9272                 1.3693                 1.7445
 IR Inten    --     30.5048                 7.9844                46.5100

                     25                     26                     27
                      A                      A                      A
 Frequencies --   1114.4690              1122.5884              1143.9276
 Red. masses --      2.0525                 1.7550                 2.0962
 Frc consts  --      1.5020                 1.3031                 1.6161
 IR Inten    --     31.5339                13.7337                34.3041

                     28                     29                     30
                      A                      A                      A
 Frequencies --   1232.8971              1258.6357              1292.7928
 Red. masses --      1.1452                 1.6288                 1.9683
 Frc consts  --      1.0256                 1.5202                 1.9382
 IR Inten    --      4.7902                 5.9028                15.5067

                     31                     32                     33
                      A                      A                      A
 Frequencies --   1346.5634              1353.4749              1390.2715
 Red. masses --      1.8130                 1.4877                 1.7792
 Frc consts  --      1.9368                 1.6057                 2.0262
 IR Inten    --     27.8207                 4.1357                13.7456

                     34                     35                     36
                      A                      A                      A
 Frequencies --   1409.7850              1415.0041              1475.4810
 Red. masses --      1.2686                 1.7936                 1.0836
 Frc consts  --      1.4855                 2.1158                 1.3899
 IR Inten    --      4.9026                 8.4042                 1.7759

                     37                     38                     39
                      A                      A                      A
 Frequencies --   1491.9120              1499.4554              1510.4389
 Red. masses --      1.3199                 1.0493                 1.0597
 Frc consts  --      1.7309                 1.3900                 1.4244
 IR Inten    --      5.6704                 6.9179                 3.4377

                     40                     41                     42
                      A                      A                      A
 Frequencies --   1519.9753              1869.4396              3034.0179
 Red. masses --      1.0895                12.7542                 1.0586
 Frc consts  --      1.4830                26.2619                 5.7415
 IR Inten    --      1.2261               339.3140                20.9696

                     43                     44                     45
                      A                      A                      A
 Frequencies --   3037.4055              3038.1981              3070.9322
 Red. masses --      1.0430                 1.0534                 1.1011
 Frc consts  --      5.6694                 5.7289                 6.1182
 IR Inten    --     17.9045                56.5955                 7.0919

                     46                     47                     48
                      A                      A                      A
 Frequencies --   3083.6330              3105.8088              3120.0215
 Red. masses --      1.1075                 1.1009                 1.1019
 Frc consts  --      6.2047                 6.2566                 6.3197
 IR Inten    --     25.2794                33.6002                21.3010

                     49                     50                     51
                      A                      A                      A
 Frequencies --   3125.3435              3187.5102              3215.3536
 Red. masses --      1.0543                 1.0925                 1.1161
 Frc consts  --      6.0675                 6.5401                 6.7986
 IR Inten    --     10.1545                 5.7356                 5.5441

 - Thermochemistry -
 -------------------
 Temperature   298.150 Kelvin.  Pressure   1.00000 Atm.
 Atom     1 has atomic number  6 and mass  12.00000

 Molecular mass:   126.06808 amu.
 Principal axes and moments of inertia in atomic units:
                           1         2         3
     Eigenvalues --   788.335351108.698691418.43369
           X            0.99956   0.02562   0.01481
           Y           -0.02608   0.99914   0.03220
           Z           -0.01397  -0.03257   0.99937
 This molecule is an asymmetric top.
 Rotational symmetry number  1.
 Warning -- assumption of classical behavior for rotation
           may cause significant error
 Rotational temperatures (Kelvin)      0.10987     0.07812     0.06106
 Rotational constants (GHZ):           2.28931     1.62780     1.27235
 Zero-point vibrational energy     420131.7 (Joules/Mol)
                                  100.41388 (Kcal/Mol)
 Warning -- explicit consideration of  10 degrees of freedom as
           vibrations may cause significant error
 Vibrational temperatures:    115.29   189.89   260.19   284.41   338.02
          (Kelvin)            427.03   542.83   645.89   699.49   819.69
                              989.64  1023.35  1107.51  1130.78  1211.44
                             1244.30  1314.21  1352.25  1432.17  1451.92
                             1489.47  1526.71  1530.22  1570.29  1603.47
                             1615.15  1645.85  1773.86  1810.89  1860.04
                             1937.40  1947.35  2000.29  2028.36  2035.87
                             2122.89  2146.53  2157.38  2173.18  2186.90
                             2689.70  4365.27  4370.14  4371.28  4418.38
                             4436.65  4468.56  4489.01  4496.67  4586.11
                             4626.17

 Zero-point correction=                           0.160020 (Hartree/Particle)
 Thermal correction to Energy=                    0.168382
 Thermal correction to Enthalpy=                  0.169326
 Thermal correction to Gibbs Free Energy=         0.126957
 Sum of electronic and zero-point Energies=           -423.069688
 Sum of electronic and thermal Energies=              -423.061326
 Sum of electronic and thermal Enthalpies=            -423.060382
 Sum of electronic and thermal Free Energies=         -423.102750

                     E (Thermal)             CV                S
                      KCal/Mol        Cal/Mol-Kelvin    Cal/Mol-Kelvin
 Total                  105.661             31.625             89.172
 Electronic               0.000              0.000              0.000
 Translational            0.889              2.981             40.409
 Rotational               0.889              2.981             28.607
 Vibrational            103.884             25.663             20.156
 Vibration     1          0.600              1.963              3.888
 Vibration     2          0.612              1.921              2.917
 Vibration     3          0.630              1.866              2.320
 Vibration     4          0.637              1.843              2.155
 Vibration     5          0.655              1.787              1.841
 Vibration     6          0.690              1.680              1.435
 Vibration     7          0.748              1.519              1.050
 Vibration     8          0.808              1.363              0.799
 Vibration     9          0.842              1.281              0.694
 Vibration    10          0.926              1.097              0.505

 Optimization completed.
    -- Stationary point found.
 Normal termination of Gaussian 09 at Tue Jan 28 10:33:41 2020.
