 Gaussian 09, Revision D.01,
 Gaussian 09:  ES64L-G09RevD.01 24-Apr-2013

 -----------------------------
 # b3lyp 6-31G(2df,p) opt Freq
 -----------------------------

 -----
 titel
 -----
 Symbolic Z-matrix:
 Charge =  0 Multiplicity = 1

 SCF Done:  E(RB3LYP) =  -423.166505111     A.U. after   13 cycles
 Optimization completed.
    -- Stationary point found.
 Normal termination of Gaussian 09 at Mon Jan 27 22:00:00 2020.

 ----------------------------------------------------------------------
 #N Geom=AllCheck Guess=TCheck SCRF=Check GenChk RB3LYP/6-31G(2df,p) Fr
 eq
 ----------------------------------------------------------------------

 Structure from the checkpoint file:  "/scratch/puck/g09_d41bc090-6f4b-4442-a4cc-3f74a3683509/Gau-192422.chk"
 -----
 titel
 -----
 Charge =  0 Multiplicity = 1

                         Standard orientation:
 ---------------------------------------------------------------------
 Center     Atomic      Atomic             Coordinates (Angstroms)
 Number     Number       Type             X           Y           Z
 ---------------------------------------------------------------------
      1          6           0       -2.159439   -1.545044    0.369159
      2          6           0       -1.377017   -0.262723    0.543109
      3          6           0       -1.145121    0.686679   -0.618050
      4          8           0       -1.151663    2.064257   -0.424152
      5          6           0        0.016518   -0.091634   -0.030133
      6          8           0        0.910873    0.715984    0.727538
      7          6           0        2.258269    0.296644    0.474688
      8          6           0        2.129005   -0.883857   -0.448129
      9          6           0        0.844327   -1.095575   -0.724276
     10          1           0       -3.229812   -1.369426    0.521319
     11          1           0       -2.038571   -1.956613   -0.638595
     12          1           0       -1.838387   -2.314153    1.080109
     13          1           0       -1.497573    0.242868    1.498457
     14          1           0       -1.527571    0.396078   -1.594549
     15          1           0       -0.324171    2.270547    0.034009
     16          1           0        2.828965    1.124142    0.025820
     17          1           0        2.742323    0.045334    1.430039
     18          1           0        2.978176   -1.442706   -0.818389
     19          1           0        0.433686   -1.864929   -1.363514
 ---------------------------------------------------------------------

 SCF Done:  E(RB3LYP) =  -423.166505111     A.U. after    1 cycles

 The electronic state is 1-A.
 Alpha  occ. eigenvalues --  -19.15294 -19.12960 -10.24038 -10.24002 -10.22656
 Alpha  occ. eigenvalues --  -10.19473 -10.19206 -10.18465 -10.18167  -1.05329
 Alpha  occ. eigenvalues --   -1.01259  -0.84504  -0.79417  -0.72105  -0.68436
 Alpha  occ. eigenvalues --   -0.59517  -0.58043  -0.55110  -0.52457  -0.48608
 Alpha  occ. eigenvalues --   -0.47152  -0.44846  -0.43036  -0.41486  -0.40441
 Alpha  occ. eigenvalues --   -0.38787  -0.37986  -0.35936  -0.34352  -0.33991
 Alpha  occ. eigenvalues --   -0.32735  -0.28523  -0.23853  -0.21302
 Alpha virt. eigenvalues --    0.00889   0.08182   0.09726   0.11106   0.12729
 Alpha virt. eigenvalues --    0.14126   0.14760   0.15560   0.16065   0.16532
 Alpha virt. eigenvalues --    0.17868   0.18074   0.18991   0.21246   0.22665

 Mulliken charges:
               1
     1  C   -0.417216
     2  C   -0.120969
     3  C    0.050350
     4  O   -0.437769
     5  C    0.366834
     6  O   -0.325782
     7  C   -0.132841
     8  C   -0.112025
     9  C   -0.165717
    10  H    0.125231
    11  H    0.112505
    12  H    0.121960
    13  H    0.100054
    14  H    0.092662
    15  H    0.292959
    16  H    0.111526
    17  H    0.114070
    18  H    0.109725
    19  H    0.114443
 Sum of Mulliken charges =   0.00000

 Dipole moment (field-independent basis, Debye):
    X=              1.6763    Y=             -1.9910    Z=             -0.2177  Tot=              2.6118
 Quadrupole moment (field-independent basis, Debye-Ang):
   XX=            -49.5378   YY=            -55.2478   ZZ=            -53.1343
   XY=              3.5286   XZ=             -0.5950   YZ=              2.3641

  Exact polarizability: 102.412   2.495  73.444   2.442   3.234  62.369
 Approx polarizability: 145.724   1.387 105.420   7.268   5.108  95.817

                      1                      2                      3
                      A                      A                      A
 Frequencies --     92.9657               148.0389               190.3444
 Red. masses --      3.1722                 2.8994                 1.1245
 Frc consts  --      0.0162                 0.0374                 0.0240
 IR Inten    --      0.8757                 0.5779                 0.4937

                      4                      5                      6
                      A                      A                      A
 Frequencies --    202.1549               231.8862               253.8409
 Red. masses --      3.4702                 3.8176                 2.8484
 Frc consts  --      0.0836                 0.1209                 0.1081
 IR Inten    --      1.3902                 5.7560                 0.1606

                      7                      8                      9
                      A                      A                      A
 Frequencies --    316.6582               409.3032               422.7565
 Red. masses --      2.6040                 1.2038                 3.1726
 Frc consts  --      0.1538                 0.1188                 0.3341
 IR Inten    --      8.3072                57.5533                 6.2557

                     10                     11                     12
                      A                      A                      A
 Frequencies --    496.3956               550.9611               629.3710
 Red. masses --      3.4362                 3.1862                 3.1339
 Frc consts  --      0.4989                 0.5699                 0.7314
 IR Inten    --      1.3600                 2.3423                11.5829

                     13                     14                     15
                      A                      A                      A
 Frequencies --    723.2641               780.3353               835.8886
 Red. masses --      1.4352                 7.5267                 4.3513
 Frc consts  --      0.4423                 2.7003                 1.7913
 IR Inten    --     10.5886                 8.2811                 5.7063

                     16                     17                     18
                      A                      A                      A
 Frequencies --    844.0766               876.3731               942.3875
 Red. masses --      2.9776                 2.1628                 2.2349
 Frc consts  --      1.2499                 0.9787                 1.1694
 IR Inten    --     45.6147                18.6555                 4.7955

                     19                     20                     21
                      A                      A                      A
 Frequencies --    947.3612               967.2099              1019.4647
 Red. masses --      1.2588                 2.0451                 1.6874
 Frc consts  --      0.6656                 1.1272                 1.0333
 IR Inten    --      0.6170                13.6501                21.3457

                     22                     23                     24
                      A                      A                      A
 Frequencies --   1026.4089              1043.5116              1080.6607
 Red. masses --      1.6000                 1.6184                 2.1512
 Frc consts  --      0.9931                 1.0383                 1.4801
 IR Inten    --     18.6468                 4.2508                22.6909

                     25                     26                     27
                      A                      A                      A
 Frequencies --   1115.7761              1118.1024              1129.1736
 Red. masses --      1.6308                 1.9558                 2.3081
 Frc consts  --      1.1962                 1.4406                 1.7339
 IR Inten    --     58.8325                18.8263                 6.7245

                     28                     29                     30
                      A                      A                      A
 Frequencies --   1161.2667              1197.3280              1203.8629
 Red. masses --      2.7273                 1.0750                 2.1128
 Frc consts  --      2.1669                 0.9080                 1.8041
 IR Inten    --     88.9552                 0.5262                39.9716

                     31                     32                     33
                      A                      A                      A
 Frequencies --   1267.7812              1308.0094              1372.2871
 Red. masses --      1.6650                 1.3829                 1.8577
 Frc consts  --      1.5767                 1.3940                 2.0612
 IR Inten    --      1.5836                 1.3719                 4.9440

                     34                     35                     36
                      A                      A                      A
 Frequencies --   1377.2154              1398.6011              1415.1607
 Red. masses --      1.5057                 1.4318                 1.2623
 Frc consts  --      1.6827                 1.6501                 1.4895
 IR Inten    --     14.0331                45.2378                 2.9098

                     37                     38                     39
                      A                      A                      A
 Frequencies --   1462.8058              1493.2238              1502.5777
 Red. masses --      2.2960                 1.0452                 1.0987
 Frc consts  --      2.8947                 1.3731                 1.4615
 IR Inten    --     57.8610                 3.0671                 7.6068

                     40                     41                     42
                      A                      A                      A
 Frequencies --   1519.0416              1674.1781              2981.7977
 Red. masses --      1.0868                 6.5055                 1.0584
 Frc consts  --      1.4776                10.7432                 5.5442
 IR Inten    --      2.5399                 1.2931                93.5865

                     43                     44                     45
                      A                      A                      A
 Frequencies --   3004.3374              3027.6105              3091.6623
 Red. masses --      1.1040                 1.0350                 1.1006
 Frc consts  --      5.8713                 5.5895                 6.1981
 IR Inten    --     42.7858                32.2775                22.0416

                     46                     47                     48
                      A                      A                      A
 Frequencies --   3093.2857              3125.3719              3144.6548
 Red. masses --      1.1011                 1.0892                 1.0870
 Frc consts  --      6.2074                 6.2686                 6.3332
 IR Inten    --     24.2862                18.9576                12.9184

                     49                     50                     51
                      A                      A                      A
 Frequencies --   3217.1576              3240.8741              3728.3285
 Red. masses --      1.0862                 1.1058                 1.0651
 Frc consts  --      6.6236                 6.8429                 8.7230
 IR Inten    --      1.0439                 5.8202                48.7950

 - Thermochemistry -
 -------------------
 Temperature   298.150 Kelvin.  Pressure   1.00000 Atm.
 Atom     1 has atomic number  6 and mass  12.00000

 Molecular mass:   126.06808 amu.
 Principal axes and moments of inertia in atomic units:
                           1         2         3
     Eigenvalues --   724.569771232.197551644.00031
           X            0.99791   0.06451  -0.00421
           Y           -0.06445   0.99783   0.01383
           Z            0.00509  -0.01353   0.99990
 This molecule is an asymmetric top.
 Rotational symmetry number  1.
 Warning -- assumption of classical behavior for rotation
           may cause significant error
 Rotational temperatures (Kelvin)      0.11954     0.07029     0.05268
 Rotational constants (GHZ):           2.49078     1.46465     1.09777
 Zero-point vibrational energy     415122.7 (Joules/Mol)
                                   99.21670 (Kcal/Mol)
 Warning -- explicit consideration of  11 degrees of freedom as
           vibrations may cause significant error
 Vibrational temperatures:    133.76   212.99   273.86   290.86   333.63
          (Kelvin)            365.22   455.60   588.90   608.25   714.20
                              792.71   905.52  1040.61  1122.73  1202.66
                             1214.44  1260.90  1355.88  1363.04  1391.60
                             1466.78  1476.77  1501.38  1554.83  1605.35
                             1608.70  1624.63  1670.80  1722.69  1732.09
                             1824.05  1881.93  1974.41  1981.50  2012.27
                             2036.10  2104.65  2148.41  2161.87  2185.56
                             2408.77  4290.14  4322.57  4356.05  4448.21
                             4450.54  4496.71  4524.45  4628.77  4662.89
                             5364.23

 Zero-point correction=                           0.158112 (Hartree/Particle)
 Thermal correction to Energy=                    0.166854
 Thermal correction to Enthalpy=                  0.167798
 Thermal correction to Gibbs Free Energy=         0.124898
 Sum of electronic and zero-point Energies=           -423.008393
 Sum of electronic and thermal Energies=              -422.999651
 Sum of electronic and thermal Enthalpies=            -422.998707
 Sum of electronic and thermal Free Energies=         -423.041607

                     E (Thermal)             CV                S
                      KCal/Mol        Cal/Mol-Kelvin    Cal/Mol-Kelvin
 Total                  104.703             33.268             90.291
 Electronic               0.000              0.000              0.000
 Translational            0.889              2.981             40.409
 Rotational               0.889              2.981             28.775
 Vibrational            102.925             27.307             21.107
 Vibration     1          0.602              1.954              3.597
 Vibration     2          0.617              1.905              2.697
 Vibration     3          0.634              1.853              2.224
 Vibration     4          0.639              1.837              2.113
 Vibration     5          0.653              1.792              1.864
 Vibration     6          0.665              1.756              1.704
 Vibration     7          0.704              1.642              1.327
 Vibration     8          0.774              1.450              0.929
 Vibration     9          0.785              1.421              0.883
 Vibration    10          0.852              1.258              0.667
 Vibration    11          0.906              1.138              0.542

 Normal termination of Gaussian 09 at Mon Jan 27 22:40:23 2020.
