 Gaussian 09, Revision D.01,
 Gaussian 09:  ES64L-G09RevD.01 24-Apr-2013

 -----------------------------
 # b3lyp 6-31G(2df,p) opt Freq
 -----------------------------

 -----
 titel
 -----
 Symbolic Z-matrix:
 Charge =  0 Multiplicity = 1

 SCF Done:  E(RB3LYP) =  -423.163757804     A.U. after   14 cycles
 Optimization completed.
    -- Stationary point found.
 Normal termination of Gaussian 09 at Mon Jan 27 22:04:40 2020.

 ----------------------------------------------------------------------
 #N Geom=AllCheck Guess=TCheck SCRF=Check GenChk RB3LYP/6-31G(2df,p) Fr
 eq
 ----------------------------------------------------------------------

 Structure from the checkpoint file:  "/scratch/puck/g09_d510b9c7-1f06-4638-ba0e-e63078f1391e/Gau-189533.chk"
 -----
 titel
 -----
 Charge =  0 Multiplicity = 1

                         Standard orientation:
 ---------------------------------------------------------------------
 Center     Atomic      Atomic             Coordinates (Angstroms)
 Number     Number       Type             X           Y           Z
 ---------------------------------------------------------------------
      1          8           0        1.099957    1.377199   -0.930765
      2          6           0        0.975313    1.002966    0.419132
      3          6           0        1.311828   -0.542787    0.615822
      4          8           0        2.138756   -1.137598   -0.351497
      5          6           0       -0.180011   -0.757586    0.535558
      6          6           0       -1.104515   -1.387538   -0.183874
      7          6           0       -2.316631   -0.475848   -0.356373
      8          6           0       -1.733006    0.953057   -0.095360
      9          6           0       -0.511502    0.689233    0.807296
     10          1           0        1.982704    1.103706   -1.210393
     11          1           0        1.512597    1.693467    1.083062
     12          1           0        1.763277   -0.735783    1.593468
     13          1           0        1.617611   -1.178821   -1.162345
     14          1           0       -1.015964   -2.356940   -0.661617
     15          1           0       -2.754900   -0.566563   -1.356295
     16          1           0       -3.118490   -0.721305    0.354309
     17          1           0       -1.395160    1.385437   -1.041469
     18          1           0       -2.464871    1.634979    0.345874
     19          1           0       -0.685348    0.936033    1.860289
 ---------------------------------------------------------------------

 SCF Done:  E(RB3LYP) =  -423.163757804     A.U. after    1 cycles

 The electronic state is 1-A.
 Alpha  occ. eigenvalues --  -19.14990 -19.14369 -10.23982 -10.23356 -10.18398
 Alpha  occ. eigenvalues --  -10.18203 -10.18075 -10.17842 -10.17828  -1.04288
 Alpha  occ. eigenvalues --   -1.01652  -0.86099  -0.77062  -0.70765  -0.65136
 Alpha  occ. eigenvalues --   -0.61955  -0.56868  -0.54444  -0.51198  -0.49099
 Alpha  occ. eigenvalues --   -0.47103  -0.45201  -0.42913  -0.40495  -0.38986
 Alpha  occ. eigenvalues --   -0.37212  -0.35948  -0.34637  -0.33660  -0.32937
 Alpha  occ. eigenvalues --   -0.29896  -0.28513  -0.26053  -0.23056
 Alpha virt. eigenvalues --    0.00912   0.06671   0.10550   0.11198   0.12230
 Alpha virt. eigenvalues --    0.13558   0.13975   0.15362   0.16068   0.17186
 Alpha virt. eigenvalues --    0.18496   0.19043   0.20113   0.21652   0.23149

 Mulliken charges:
               1
     1  O   -0.431384
     2  C    0.058410
     3  C    0.026462
     4  O   -0.433428
     5  C    0.230741
     6  C   -0.237267
     7  C   -0.236747
     8  C   -0.242086
     9  C   -0.059797
    10  H    0.285019
    11  H    0.061995
    12  H    0.099625
    13  H    0.282793
    14  H    0.096186
    15  H    0.103038
    16  H    0.105841
    17  H    0.124931
    18  H    0.092331
    19  H    0.073339
 Sum of Mulliken charges =   0.00000

 Dipole moment (field-independent basis, Debye):
    X=             -0.3091    Y=             -0.0553    Z=              0.0094  Tot=              0.3142
 Quadrupole moment (field-independent basis, Debye-Ang):
   XX=            -53.2376   YY=            -55.8616   ZZ=            -50.1992
   XY=              2.4015   XZ=             -0.4230   YZ=              3.1071

  Exact polarizability:  91.277   3.725  73.711   5.932   6.992  67.954
 Approx polarizability: 128.305   7.521 109.761  11.902  12.545 110.506

                      1                      2                      3
                      A                      A                      A
 Frequencies --     94.1365               128.4259               163.5041
 Red. masses --      3.5432                 1.6059                 1.8616
 Frc consts  --      0.0185                 0.0156                 0.0293
 IR Inten    --     26.7426                69.2788               106.4358

                      4                      5                      6
                      A                      A                      A
 Frequencies --    236.3275               246.6986               282.3903
 Red. masses --      2.9218                 4.5848                 2.4913
 Frc consts  --      0.0961                 0.1644                 0.1171
 IR Inten    --      4.2239                 6.2069                 8.9078

                      7                      8                      9
                      A                      A                      A
 Frequencies --    474.9206               505.0470               542.1835
 Red. masses --      4.1786                 4.0971                 1.1801
 Frc consts  --      0.5553                 0.6157                 0.2044
 IR Inten    --      2.4072                 5.6204                 3.8975

                     10                     11                     12
                      A                      A                      A
 Frequencies --    576.4946               605.9674               666.1467
 Red. masses --      2.0341                 3.5629                 3.9635
 Frc consts  --      0.3983                 0.7708                 1.0363
 IR Inten    --      4.5866                 8.3502                 1.6529

                     13                     14                     15
                      A                      A                      A
 Frequencies --    793.8386               805.0568               821.8936
 Red. masses --      3.0669                 2.0112                 2.1517
 Frc consts  --      1.1387                 0.7680                 0.8564
 IR Inten    --     26.5123                 7.8775                 6.3415

                     16                     17                     18
                      A                      A                      A
 Frequencies --    837.4247               871.8112               903.5821
 Red. masses --      1.9276                 2.8531                 2.3398
 Frc consts  --      0.7965                 1.2776                 1.1256
 IR Inten    --      1.3501                 2.0435                 3.2687

                     19                     20                     21
                      A                      A                      A
 Frequencies --    940.2441               969.7878              1001.3478
 Red. masses --      2.6970                 2.2941                 2.1162
 Frc consts  --      1.4048                 1.2712                 1.2502
 IR Inten    --      6.5504                 2.1812                21.3160

                     22                     23                     24
                      A                      A                      A
 Frequencies --   1026.1183              1095.1962              1113.6452
 Red. masses --      2.8882                 2.0092                 1.2565
 Frc consts  --      1.7917                 1.4199                 0.9181
 IR Inten    --     12.4334                25.8075                17.3946

                     25                     26                     27
                      A                      A                      A
 Frequencies --   1122.7330              1144.9289              1178.9242
 Red. masses --      2.4992                 2.0843                 1.7241
 Frc consts  --      1.8561                 1.6098                 1.4119
 IR Inten    --     38.0674                96.7208                 9.8766

                     28                     29                     30
                      A                      A                      A
 Frequencies --   1212.5010              1230.4603              1239.2381
 Red. masses --      1.4313                 1.4195                 1.3364
 Frc consts  --      1.2398                 1.2663                 1.2092
 IR Inten    --      5.3130                 8.4242                 7.2451

                     31                     32                     33
                      A                      A                      A
 Frequencies --   1262.6294              1288.1225              1305.8727
 Red. masses --      1.3350                 1.5295                 1.3795
 Frc consts  --      1.2539                 1.4952                 1.3860
 IR Inten    --      0.6088                 2.2976                 0.9944

                     34                     35                     36
                      A                      A                      A
 Frequencies --   1308.5780              1331.8223              1349.7619
 Red. masses --      1.2533                 1.5204                 1.5442
 Frc consts  --      1.2644                 1.5890                 1.6575
 IR Inten    --     29.9080                 2.4748                19.6052

                     37                     38                     39
                      A                      A                      A
 Frequencies --   1398.0883              1424.0351              1481.0917
 Red. masses --      1.4510                 1.2809                 1.0859
 Frc consts  --      1.6710                 1.5304                 1.4035
 IR Inten    --     15.5438                86.3243                 1.5296

                     40                     41                     42
                      A                      A                      A
 Frequencies --   1495.9064              1722.1901              3003.8032
 Red. masses --      1.0958                 8.4086                 1.0856
 Frc consts  --      1.4447                14.6939                 5.7712
 IR Inten    --      1.4328                 3.8555                74.8576

                     43                     44                     45
                      A                      A                      A
 Frequencies --   3007.4388              3043.6663              3056.8558
 Red. masses --      1.0689                 1.0837                 1.0768
 Frc consts  --      5.6963                 5.9149                 5.9286
 IR Inten    --     42.0197                34.4949                22.9962

                     46                     47                     48
                      A                      A                      A
 Frequencies --   3065.6379              3071.4912              3110.0747
 Red. masses --      1.0755                 1.0856                 1.1057
 Frc consts  --      5.9554                 6.0339                 6.3012
 IR Inten    --     47.1014                42.0498                27.8238

                     49                     50                     51
                      A                      A                      A
 Frequencies --   3192.3892              3773.1101              3789.0383
 Red. masses --      1.0942                 1.0655                 1.0654
 Frc consts  --      6.5700                 8.9369                 9.0117
 IR Inten    --     11.2884                30.4321                12.7558

 - Thermochemistry -
 -------------------
 Temperature   298.150 Kelvin.  Pressure   1.00000 Atm.
 Atom     1 has atomic number  8 and mass  15.99491

 Molecular mass:   126.06808 amu.
 Principal axes and moments of inertia in atomic units:
                           1         2         3
     Eigenvalues --   654.994401183.688331486.51593
           X            0.99991   0.00656   0.01210
           Y           -0.00707   0.99907   0.04261
           Z           -0.01181  -0.04269   0.99902
 This molecule is an asymmetric top.
 Rotational symmetry number  1.
 Warning -- assumption of classical behavior for rotation
           may cause significant error
 Rotational temperatures (Kelvin)      0.13224     0.07317     0.05827
 Rotational constants (GHZ):           2.75535     1.52468     1.21407
 Zero-point vibrational energy     420562.6 (Joules/Mol)
                                  100.51688 (Kcal/Mol)
 Warning -- explicit consideration of  11 degrees of freedom as
           vibrations may cause significant error
 Vibrational temperatures:    135.44   184.78   235.25   340.02   354.94
          (Kelvin)            406.30   683.30   726.65   780.08   829.45
                              871.85   958.44  1142.16  1158.30  1182.52
                             1204.87  1254.34  1300.05  1352.80  1395.31
                             1440.71  1476.35  1575.74  1602.29  1615.36
                             1647.30  1696.21  1744.52  1770.36  1782.98
                             1816.64  1853.32  1878.86  1882.75  1916.19
                             1942.00  2011.53  2048.87  2130.96  2152.27
                             2477.84  4321.80  4327.03  4379.15  4398.13
                             4410.76  4419.19  4474.70  4593.13  5428.66
                             5451.57

 Zero-point correction=                           0.160184 (Hartree/Particle)
 Thermal correction to Energy=                    0.168436
 Thermal correction to Enthalpy=                  0.169380
 Thermal correction to Gibbs Free Energy=         0.127379
 Sum of electronic and zero-point Energies=           -423.003574
 Sum of electronic and thermal Energies=              -422.995322
 Sum of electronic and thermal Enthalpies=            -422.994377
 Sum of electronic and thermal Free Energies=         -423.036379

                     E (Thermal)             CV                S
                      KCal/Mol        Cal/Mol-Kelvin    Cal/Mol-Kelvin
 Total                  105.695             31.917             88.399
 Electronic               0.000              0.000              0.000
 Translational            0.889              2.981             40.409
 Rotational               0.889              2.981             28.535
 Vibrational            103.918             25.956             19.455
 Vibration     1          0.603              1.953              3.572
 Vibration     2          0.611              1.925              2.969
 Vibration     3          0.623              1.887              2.509
 Vibration     4          0.655              1.785              1.830
 Vibration     5          0.661              1.768              1.754
 Vibration     6          0.681              1.706              1.519
 Vibration     7          0.832              1.306              0.724
 Vibration     8          0.860              1.239              0.646
 Vibration     9          0.897              1.157              0.561
 Vibration    10          0.933              1.082              0.492
 Vibration    11          0.965              1.019              0.440

 Optimization completed.
    -- Stationary point found.
 Normal termination of Gaussian 09 at Mon Jan 27 22:50:26 2020.
