 Gaussian 09, Revision D.01,
 Gaussian 09:  ES64L-G09RevD.01 24-Apr-2013

 -----------------------------
 # b3lyp 6-31G(2df,p) opt Freq
 -----------------------------

 -----
 titel
 -----
 Symbolic Z-matrix:
 Charge =  0 Multiplicity = 1

 SCF Done:  E(RB3LYP) =  -423.160154434     A.U. after   14 cycles
 Optimization completed.
    -- Stationary point found.
 Normal termination of Gaussian 09 at Mon Jan 27 13:18:33 2020.

 ----------------------------------------------------------------------
 #N Geom=AllCheck Guess=TCheck SCRF=Check GenChk RB3LYP/6-31G(2df,p) Fr
 eq
 ----------------------------------------------------------------------

 Structure from the checkpoint file:  "/scratch/puck/g09_82c43890-de97-4ca0-85b3-aedb5404f73a/Gau-38415.chk"
 -----
 titel
 -----
 Charge =  0 Multiplicity = 1

                         Standard orientation:
 ---------------------------------------------------------------------
 Center     Atomic      Atomic             Coordinates (Angstroms)
 Number     Number       Type             X           Y           Z
 ---------------------------------------------------------------------
      1          8           0       -3.534652   -0.971203   -0.004486
      2          6           0       -2.723231   -0.151522    0.341674
      3          6           0       -1.495472    0.187512   -0.434112
      4          8           0       -0.968296    1.498550   -0.194586
      5          6           0       -0.219900    0.393240    0.295635
      6          6           0        1.106738    0.099718   -0.340047
      7          6           0        1.787176   -1.264379   -0.022683
      8          6           0        3.150191   -0.523995    0.048375
      9          6           0        2.373839    0.808384    0.225736
     10          1           0       -2.820672    0.427163    1.287949
     11          1           0       -1.467592   -0.162944   -1.464324
     12          1           0       -0.246834    0.295110    1.384329
     13          1           0        1.029170    0.257157   -1.419964
     14          1           0        1.482289   -1.641788    0.959112
     15          1           0        1.669622   -2.067982   -0.752823
     16          1           0        3.843625   -0.815854    0.839703
     17          1           0        3.679873   -0.560455   -0.907569
     18          1           0        2.245506    1.064003    1.282680
     19          1           0        2.732547    1.693066   -0.303982
 ---------------------------------------------------------------------

 SCF Done:  E(RB3LYP) =  -423.160154434     A.U. after    1 cycles

 The electronic state is 1-A.
 Alpha  occ. eigenvalues --  -19.17233 -19.14591 -10.27681 -10.25722 -10.25099
 Alpha  occ. eigenvalues --  -10.20341 -10.19379 -10.19167 -10.19085  -1.09343
 Alpha  occ. eigenvalues --   -1.05169  -0.85610  -0.72466  -0.71040  -0.66826
 Alpha  occ. eigenvalues --   -0.61776  -0.59711  -0.56004  -0.51237  -0.50002
 Alpha  occ. eigenvalues --   -0.48437  -0.45418  -0.43959  -0.41948  -0.40430
 Alpha  occ. eigenvalues --   -0.39667  -0.39013  -0.37126  -0.33794  -0.32849
 Alpha  occ. eigenvalues --   -0.32194  -0.30146  -0.28916  -0.25700
 Alpha virt. eigenvalues --   -0.03667   0.07739   0.08486   0.08763   0.11102
 Alpha virt. eigenvalues --    0.11958   0.12529   0.14978   0.15308   0.15939
 Alpha virt. eigenvalues --    0.17174   0.17572   0.18243   0.19935   0.21062

 Mulliken charges:
               1
     1  O   -0.248943
     2  C    0.148494
     3  C   -0.060640
     4  O   -0.245561
     5  C    0.047509
     6  C    0.021806
     7  C   -0.236230
     8  C   -0.210137
     9  C   -0.231539
    10  H    0.087183
    11  H    0.115612
    12  H    0.095777
    13  H    0.082395
    14  H    0.104475
    15  H    0.106499
    16  H    0.102504
    17  H    0.108308
    18  H    0.103751
    19  H    0.108737
 Sum of Mulliken charges =   0.00000

 Dipole moment (field-independent basis, Debye):
    X=              2.9974    Y=             -0.0936    Z=              0.4760  Tot=              3.0364
 Quadrupole moment (field-independent basis, Debye-Ang):
   XX=            -62.1459   YY=            -58.0897   ZZ=            -50.1386
   XY=             -3.8690   XZ=             -1.2502   YZ=              0.4880

  Exact polarizability: 101.337   5.155  68.502   1.100   3.011  66.738
 Approx polarizability: 127.213  13.194 109.063   5.660   5.069 102.976

                      1                      2                      3
                      A                      A                      A
 Frequencies --     51.3105                96.1876               114.1623
 Red. masses --      4.4324                 3.8327                 2.4136
 Frc consts  --      0.0069                 0.0209                 0.0185
 IR Inten    --      0.9657                 1.4720                 1.3799

                      4                      5                      6
                      A                      A                      A
 Frequencies --    144.2356               222.6654               299.2801
 Red. masses --      3.4543                 2.0829                 3.7422
 Frc consts  --      0.0423                 0.0608                 0.1975
 IR Inten    --      6.4467                 3.9809                 9.7436

                      7                      8                      9
                      A                      A                      A
 Frequencies --    330.9126               385.1174               479.5388
 Red. masses --      4.1739                 2.4538                 4.9119
 Frc consts  --      0.2693                 0.2144                 0.6655
 IR Inten    --      5.7362                 1.3327                11.1387

                     10                     11                     12
                      A                      A                      A
 Frequencies --    526.7462               646.4710               776.5462
 Red. masses --      5.7982                 1.7908                 1.3345
 Frc consts  --      0.9479                 0.4409                 0.4741
 IR Inten    --      6.7347                 3.6852                 0.6180

                     13                     14                     15
                      A                      A                      A
 Frequencies --    785.9330               869.8748               882.4335
 Red. masses --      1.4490                 4.0454                 5.6003
 Frc consts  --      0.5274                 1.8035                 2.5694
 IR Inten    --      0.6283                25.2224                32.3404

                     16                     17                     18
                      A                      A                      A
 Frequencies --    903.5132               935.1059               951.7064
 Red. masses --      2.2458                 2.2288                 1.6947
 Frc consts  --      1.0802                 1.1483                 0.9044
 IR Inten    --      0.5294                 0.4987                 1.5854

                     19                     20                     21
                      A                      A                      A
 Frequencies --    977.5806              1011.3321              1027.8303
 Red. masses --      2.7291                 1.4813                 1.7044
 Frc consts  --      1.5366                 0.8926                 1.0609
 IR Inten    --      1.1371                 5.7307                10.9299

                     22                     23                     24
                      A                      A                      A
 Frequencies --   1078.9683              1100.8270              1118.1007
 Red. masses --      2.2708                 1.8377                 2.3721
 Frc consts  --      1.5576                 1.3121                 1.7472
 IR Inten    --     11.1490                 0.2427                 8.9005

                     25                     26                     27
                      A                      A                      A
 Frequencies --   1158.5765              1190.4426              1206.1191
 Red. masses --      1.6430                 2.4985                 1.3349
 Frc consts  --      1.2994                 2.0861                 1.1442
 IR Inten    --     19.7701                 1.7757                 0.7889

                     28                     29                     30
                      A                      A                      A
 Frequencies --   1238.2208              1239.3880              1255.5701
 Red. masses --      1.4432                 1.3429                 1.3049
 Frc consts  --      1.3036                 1.2153                 1.2120
 IR Inten    --     15.4876                 2.3868                 0.0729

                     31                     32                     33
                      A                      A                      A
 Frequencies --   1258.9913              1276.3606              1285.6256
 Red. masses --      1.1610                 1.4191                 1.4234
 Frc consts  --      1.0842                 1.3621                 1.3861
 IR Inten    --      0.1533                 0.7408                 0.0985

                     34                     35                     36
                      A                      A                      A
 Frequencies --   1315.1939              1341.4463              1409.8260
 Red. masses --      1.2986                 1.4697                 1.2525
 Frc consts  --      1.3235                 1.5583                 1.4668
 IR Inten    --      2.0915                 9.6013                 1.2691

                     37                     38                     39
                      A                      A                      A
 Frequencies --   1471.2279              1478.1907              1487.6540
 Red. masses --      2.4000                 1.0916                 1.0878
 Frc consts  --      3.0607                 1.4053                 1.4184
 IR Inten    --     25.8102                 0.7111                 2.8062

                     40                     41                     42
                      A                      A                      A
 Frequencies --   1510.5462              1827.7030              2884.9343
 Red. masses --      1.1518                10.3470                 1.0838
 Frc consts  --      1.5484                20.3646                 5.3148
 IR Inten    --      0.9427               224.4230                79.7931

                     43                     44                     45
                      A                      A                      A
 Frequencies --   3049.7830              3053.1554              3062.2137
 Red. masses --      1.0601                 1.0651                 1.0784
 Frc consts  --      5.8096                 5.8497                 5.9581
 IR Inten    --     40.6448                 9.7402                 9.2629

                     46                     47                     48
                      A                      A                      A
 Frequencies --   3063.8288              3078.4336              3105.2374
 Red. masses --      1.0645                 1.0864                 1.1038
 Frc consts  --      5.8873                 6.0661                 6.2708
 IR Inten    --     29.2937                28.1058                12.5765

                     49                     50                     51
                      A                      A                      A
 Frequencies --   3111.4219              3124.7159              3140.7998
 Red. masses --      1.1049                 1.1069                 1.0890
 Frc consts  --      6.3022                 6.3675                 6.3295
 IR Inten    --     21.8688                57.1883                12.0047

 - Thermochemistry -
 -------------------
 Temperature   298.150 Kelvin.  Pressure   1.00000 Atm.
 Atom     1 has atomic number  8 and mass  15.99491

 Molecular mass:   126.06808 amu.
 Principal axes and moments of inertia in atomic units:
                           1         2         3
     Eigenvalues --   415.217422311.409162584.49664
           X            0.99996  -0.00926  -0.00195
           Y            0.00929   0.99977   0.01927
           Z            0.00177  -0.01928   0.99981
 This molecule is an asymmetric top.
 Rotational symmetry number  1.
 Rotational temperatures (Kelvin)      0.20860     0.03747     0.03351
 Rotational constants (GHZ):           4.34650     0.78080     0.69830
 Zero-point vibrational energy     414757.2 (Joules/Mol)
                                   99.12934 (Kcal/Mol)
 Warning -- explicit consideration of  10 degrees of freedom as
           vibrations may cause significant error
 Vibrational temperatures:     73.82   138.39   164.25   207.52   320.37
          (Kelvin)            430.60   476.11   554.10   689.95   757.87
                              930.13  1117.28  1130.78  1251.55  1269.62
                             1299.95  1345.41  1369.29  1406.52  1455.08
                             1478.82  1552.39  1583.84  1608.70  1666.93
                             1712.78  1735.33  1781.52  1783.20  1806.48
                             1811.41  1836.40  1849.73  1892.27  1930.04
                             2028.42  2116.77  2126.78  2140.40  2173.34
                             2629.65  4150.77  4387.95  4392.80  4405.84
                             4408.16  4429.17  4467.74  4476.64  4495.76
                             4518.90

 Zero-point correction=                           0.157973 (Hartree/Particle)
 Thermal correction to Energy=                    0.166773
 Thermal correction to Enthalpy=                  0.167717
 Thermal correction to Gibbs Free Energy=         0.123389
 Sum of electronic and zero-point Energies=           -423.002182
 Sum of electronic and thermal Energies=              -422.993382
 Sum of electronic and thermal Enthalpies=            -422.992438
 Sum of electronic and thermal Free Energies=         -423.036765

                     E (Thermal)             CV                S
                      KCal/Mol        Cal/Mol-Kelvin    Cal/Mol-Kelvin
 Total                  104.651             31.901             93.295
 Electronic               0.000              0.000              0.000
 Translational            0.889              2.981             40.409
 Rotational               0.889              2.981             29.296
 Vibrational            102.874             25.939             23.590
 Vibration     1          0.596              1.977              4.766
 Vibration     2          0.603              1.952              3.530
 Vibration     3          0.607              1.938              3.197
 Vibration     4          0.616              1.909              2.747
 Vibration     5          0.648              1.807              1.937
 Vibration     6          0.692              1.675              1.421
 Vibration     7          0.713              1.614              1.256
 Vibration     8          0.754              1.502              1.019
 Vibration     9          0.836              1.295              0.711
 Vibration    10          0.882              1.191              0.595

 Optimization completed.
    -- Stationary point found.
 Normal termination of Gaussian 09 at Mon Jan 27 13:56:08 2020.
