 Gaussian 09, Revision D.01,
 Gaussian 09:  ES64L-G09RevD.01 24-Apr-2013

 -----------------------------
 # b3lyp 6-31G(2df,p) opt Freq
 -----------------------------

 -----
 titel
 -----
 Symbolic Z-matrix:
 Charge =  0 Multiplicity = 1

 SCF Done:  E(RB3LYP) =  -423.121745399     A.U. after   14 cycles
 Optimization completed.
    -- Stationary point found.
 Normal termination of Gaussian 09 at Tue Jan 28 09:49:22 2020.

 ----------------------------------------------------------------------
 #N Geom=AllCheck Guess=TCheck SCRF=Check GenChk RB3LYP/6-31G(2df,p) Fr
 eq
 ----------------------------------------------------------------------

 Structure from the checkpoint file:  "/scratch/puck/g09_17e4c609-d8f0-44ba-a812-983dcb8c0a8d/Gau-132472.chk"
 -----
 titel
 -----
 Charge =  0 Multiplicity = 1

                         Standard orientation:
 ---------------------------------------------------------------------
 Center     Atomic      Atomic             Coordinates (Angstroms)
 Number     Number       Type             X           Y           Z
 ---------------------------------------------------------------------
      1          6           0       -2.571682   -0.992819    0.063777
      2          6           0       -1.321422   -0.176204   -0.020215
      3          6           0       -1.179771    1.131990   -0.850864
      4          6           0        0.040789    1.406006    0.023491
      5          6           0       -0.492551    0.510599    1.141832
      6          6           0        0.637032    0.016142    0.308032
      7          6           0        2.069949   -0.304314    0.565796
      8          8           0        2.838237   -0.314772   -0.627520
      9          8           0       -0.137520   -0.939017   -0.428309
     10          1           0       -2.815761   -1.406789   -0.920740
     11          1           0       -2.447280   -1.823875    0.763769
     12          1           0       -3.412115   -0.375885    0.395657
     13          1           0       -1.047344    1.006187   -1.930300
     14          1           0       -1.991678    1.833619   -0.640516
     15          1           0        0.623544    2.313313    0.116684
     16          1           0       -0.642991    0.652401    2.203445
     17          1           0        2.505313    0.460988    1.216944
     18          1           0        2.137804   -1.269652    1.091257
     19          1           0        2.390703   -0.908403   -1.240664
 ---------------------------------------------------------------------

 SCF Done:  E(RB3LYP) =  -423.121745399     A.U. after    1 cycles

 The electronic state is 1-A.
 Alpha  occ. eigenvalues --  -19.13373 -19.13146 -10.25008 -10.23811 -10.23123
 Alpha  occ. eigenvalues --  -10.19485 -10.19263 -10.18572 -10.18448  -1.06045
 Alpha  occ. eigenvalues --   -1.01214  -0.85606  -0.77068  -0.71738  -0.67946
 Alpha  occ. eigenvalues --   -0.61296  -0.55642  -0.54015  -0.50206  -0.48474
 Alpha  occ. eigenvalues --   -0.46909  -0.44995  -0.43195  -0.42040  -0.41499
 Alpha  occ. eigenvalues --   -0.39796  -0.37379  -0.35139  -0.33989  -0.32662
 Alpha  occ. eigenvalues --   -0.28383  -0.27683  -0.25712  -0.23283
 Alpha virt. eigenvalues --    0.07085   0.08832   0.11187   0.11493   0.11845
 Alpha virt. eigenvalues --    0.13678   0.14137   0.15435   0.15997   0.16285
 Alpha virt. eigenvalues --    0.17047   0.17666   0.19439   0.19974   0.21374

 Mulliken charges:
               1
     1  C   -0.505496
     2  C    0.421267
     3  C   -0.264884
     4  C   -0.153554
     5  C   -0.278884
     6  C    0.474346
     7  C   -0.193639
     8  O   -0.413229
     9  O   -0.374137
    10  H    0.133799
    11  H    0.131724
    12  H    0.124152
    13  H    0.097746
    14  H    0.101341
    15  H    0.095127
    16  H    0.098175
    17  H    0.114289
    18  H    0.098120
    19  H    0.293736
 Sum of Mulliken charges =   0.00000

 Dipole moment (field-independent basis, Debye):
    X=             -1.9012    Y=              0.4280    Z=              1.0535  Tot=              2.2153
 Quadrupole moment (field-independent basis, Debye-Ang):
   XX=            -55.9604   YY=            -52.6356   ZZ=            -50.7762
   XY=             -0.6143   XZ=              1.5353   YZ=              0.9484

  Exact polarizability:  85.602   1.134  70.678   2.319  -0.694  69.368
 Approx polarizability: 112.413   0.322 107.708  -0.629   1.543 107.135

                      1                      2                      3
                      A                      A                      A
 Frequencies --     70.4952               126.1830               201.4211
 Red. masses --      3.8607                 4.1617                 1.0765
 Frc consts  --      0.0113                 0.0390                 0.0257
 IR Inten    --      3.0941                 0.6429                 0.2088

                      4                      5                      6
                      A                      A                      A
 Frequencies --    231.5844               270.0658               327.0322
 Red. masses --      1.9136                 2.5974                 1.6596
 Frc consts  --      0.0605                 0.1116                 0.1046
 IR Inten    --      5.5045                 2.9575                63.8214

                      7                      8                      9
                      A                      A                      A
 Frequencies --    356.1531               410.3247               467.2428
 Red. masses --      1.6875                 2.7675                 2.1632
 Frc consts  --      0.1261                 0.2745                 0.2783
 IR Inten    --     38.0385                26.3624                 0.8033

                     10                     11                     12
                      A                      A                      A
 Frequencies --    544.5257               623.6944               684.6605
 Red. masses --      4.6739                 3.4548                 3.6083
 Frc consts  --      0.8165                 0.7918                 0.9965
 IR Inten    --      5.6570                 0.5523                 9.0936

                     13                     14                     15
                      A                      A                      A
 Frequencies --    754.6405               794.7533               825.6659
 Red. masses --      3.0134                 3.3431                 3.7054
 Frc consts  --      1.0111                 1.2441                 1.4883
 IR Inten    --      2.1152                13.8577                38.7938

                     16                     17                     18
                      A                      A                      A
 Frequencies --    836.7213               867.2242               892.6424
 Red. masses --      1.5063                 2.1151                 2.1630
 Frc consts  --      0.6213                 0.9372                 1.0155
 IR Inten    --      5.5253                20.7244                15.8240

                     19                     20                     21
                      A                      A                      A
 Frequencies --    960.5531               964.7987               984.2487
 Red. masses --      1.6097                 1.4393                 2.4631
 Frc consts  --      0.8750                 0.7893                 1.4058
 IR Inten    --      0.8906                12.0075                 4.8542

                     22                     23                     24
                      A                      A                      A
 Frequencies --   1004.9460              1041.6100              1064.4555
 Red. masses --      1.8527                 3.0868                 3.4425
 Frc consts  --      1.1024                 1.9732                 2.2982
 IR Inten    --     10.7708                76.1986                33.1316

                     25                     26                     27
                      A                      A                      A
 Frequencies --   1073.9328              1121.4597              1126.8273
 Red. masses --      1.6819                 1.6608                 2.2514
 Frc consts  --      1.1429                 1.2306                 1.6843
 IR Inten    --     29.0358                 6.0442                 7.4516

                     28                     29                     30
                      A                      A                      A
 Frequencies --   1149.4344              1187.4185              1228.5479
 Red. masses --      1.9801                 1.4170                 1.7089
 Frc consts  --      1.5413                 1.1771                 1.5196
 IR Inten    --      8.3379                 3.4761                 5.2738

                     31                     32                     33
                      A                      A                      A
 Frequencies --   1241.2449              1276.8933              1343.0863
 Red. masses --      1.9941                 2.0505                 2.3876
 Frc consts  --      1.8101                 1.9697                 2.5376
 IR Inten    --     12.1683                19.7516                27.7724

                     34                     35                     36
                      A                      A                      A
 Frequencies --   1374.8944              1400.6822              1418.5201
 Red. masses --      1.2389                 1.4844                 1.5690
 Frc consts  --      1.3798                 1.7158                 1.8601
 IR Inten    --      4.0337                55.0025                 8.0419

                     37                     38                     39
                      A                      A                      A
 Frequencies --   1466.9276              1480.0889              1487.1714
 Red. masses --      2.1761                 1.1583                 1.1763
 Frc consts  --      2.7590                 1.4950                 1.5329
 IR Inten    --     17.3530                 4.9141                 2.6728

                     40                     41                     42
                      A                      A                      A
 Frequencies --   1489.3832              1491.6786              2985.9210
 Red. masses --      1.0488                 1.1508                 1.0694
 Frc consts  --      1.3708                 1.5086                 5.6175
 IR Inten    --      4.3478                 2.1663                56.4297

                     43                     44                     45
                      A                      A                      A
 Frequencies --   3037.3167              3045.1821              3077.2577
 Red. masses --      1.0363                 1.0559                 1.0928
 Frc consts  --      5.6329                 5.7692                 6.0969
 IR Inten    --     14.3311                46.5536                19.4170

                     46                     47                     48
                      A                      A                      A
 Frequencies --   3106.0018              3108.6375              3119.0142
 Red. masses --      1.1051                 1.1028                 1.1018
 Frc consts  --      6.2814                 6.2788                 6.3155
 IR Inten    --      3.6113                29.4730                15.7836

                     49                     50                     51
                      A                      A                      A
 Frequencies --   3198.6299              3209.0345              3807.9791
 Red. masses --      1.0909                 1.0999                 1.0661
 Frc consts  --      6.5758                 6.6732                 9.1085
 IR Inten    --     10.7979                 8.8279                24.1137

 - Thermochemistry -
 -------------------
 Temperature   298.150 Kelvin.  Pressure   1.00000 Atm.
 Atom     1 has atomic number  6 and mass  12.00000

 Molecular mass:   126.06808 amu.
 Principal axes and moments of inertia in atomic units:
                           1         2         3
     Eigenvalues --   510.924221453.669331583.02428
           X            0.99989   0.00904   0.01193
           Y           -0.00860   0.99931  -0.03613
           Z           -0.01225   0.03603   0.99928
 This molecule is an asymmetric top.
 Rotational symmetry number  1.
 Warning -- assumption of classical behavior for rotation
           may cause significant error
 Rotational temperatures (Kelvin)      0.16952     0.05958     0.05471
 Rotational constants (GHZ):           3.53231     1.24151     1.14006
 Zero-point vibrational energy     414857.8 (Joules/Mol)
                                   99.15339 (Kcal/Mol)
 Warning -- explicit consideration of  10 degrees of freedom as
           vibrations may cause significant error
 Vibrational temperatures:    101.43   181.55   289.80   333.20   388.56
          (Kelvin)            470.53   512.42   590.36   672.26   783.45
                              897.36   985.07  1085.76  1143.47  1187.95
                             1203.85  1247.74  1284.31  1382.02  1388.13
                             1416.11  1445.89  1498.64  1531.51  1545.15
                             1613.53  1621.25  1653.78  1708.43  1767.60
                             1785.87  1837.16  1932.40  1978.16  2015.27
                             2040.93  2110.58  2129.52  2139.71  2142.89
                             2146.19  4296.07  4370.02  4381.33  4427.48
                             4468.84  4472.63  4487.56  4602.11  4617.08
                             5478.83

 Zero-point correction=                           0.158011 (Hartree/Particle)
 Thermal correction to Energy=                    0.166463
 Thermal correction to Enthalpy=                  0.167407
 Thermal correction to Gibbs Free Energy=         0.124991
 Sum of electronic and zero-point Energies=           -422.963734
 Sum of electronic and thermal Energies=              -422.955283
 Sum of electronic and thermal Enthalpies=            -422.954338
 Sum of electronic and thermal Free Energies=         -422.996754

                     E (Thermal)             CV                S
                      KCal/Mol        Cal/Mol-Kelvin    Cal/Mol-Kelvin
 Total                  104.457             32.711             89.272
 Electronic               0.000              0.000              0.000
 Translational            0.889              2.981             40.409
 Rotational               0.889              2.981             28.554
 Vibrational            102.680             26.749             20.309
 Vibration     1          0.598              1.968              4.139
 Vibration     2          0.611              1.927              3.003
 Vibration     3          0.638              1.838              2.120
 Vibration     4          0.653              1.793              1.867
 Vibration     5          0.674              1.728              1.596
 Vibration     6          0.711              1.621              1.275
 Vibration     7          0.732              1.563              1.139
 Vibration     8          0.774              1.448              0.925
 Vibration     9          0.825              1.323              0.745
 Vibration    10          0.900              1.152              0.556

 Normal termination of Gaussian 09 at Tue Jan 28 10:31:47 2020.
