 Gaussian 09, Revision D.01,
 Gaussian 09:  ES64L-G09RevD.01 24-Apr-2013

 -----------------------------
 # b3lyp 6-31G(2df,p) opt Freq
 -----------------------------

 -----
 titel
 -----
 Symbolic Z-matrix:
 Charge =  0 Multiplicity = 1

 SCF Done:  E(RB3LYP) =  -423.230620306     A.U. after   14 cycles
 Optimization completed.
    -- Stationary point found.
 Normal termination of Gaussian 09 at Mon Jan 27 18:29:58 2020.

 ----------------------------------------------------------------------
 #N Geom=AllCheck Guess=TCheck SCRF=Check GenChk RB3LYP/6-31G(2df,p) Fr
 eq
 ----------------------------------------------------------------------

 Structure from the checkpoint file:  "/scratch/puck/g09_74c597e0-758f-4f81-8968-ddb81181954d/Gau-168929.chk"
 -----
 titel
 -----
 Charge =  0 Multiplicity = 1

                         Standard orientation:
 ---------------------------------------------------------------------
 Center     Atomic      Atomic             Coordinates (Angstroms)
 Number     Number       Type             X           Y           Z
 ---------------------------------------------------------------------
      1          6           0        1.799456   -1.296165   -0.395601
      2          6           0        0.523594   -0.552286   -0.095913
      3          6           0       -0.360764   -1.073182    1.075694
      4          6           0       -1.761517   -0.515554    0.690547
      5          6           0       -1.431370    0.251429   -0.610995
      6          6           0       -0.672157    1.551681   -0.286885
      7          6           0        0.677701    0.962165    0.151306
      8          8           0        1.633726    1.536643    0.598769
      9          8           0       -0.397825   -0.555249   -1.202194
     10          1           0        2.249315   -0.925679   -1.320479
     11          1           0        2.513684   -1.134406    0.416317
     12          1           0        1.614394   -2.368601   -0.500368
     13          1           0       -0.348545   -2.165992    1.078066
     14          1           0       -0.005626   -0.729427    2.050642
     15          1           0       -2.467979   -1.323360    0.488861
     16          1           0       -2.196987    0.129516    1.457873
     17          1           0       -2.255202    0.356606   -1.316076
     18          1           0       -0.532239    2.158216   -1.187335
     19          1           0       -1.107686    2.183457    0.490985
 ---------------------------------------------------------------------

 SCF Done:  E(RB3LYP) =  -423.230620306     A.U. after    1 cycles

 The electronic state is 1-A.
 Alpha  occ. eigenvalues --  -19.14584 -19.13545 -10.26713 -10.24176 -10.24071
 Alpha  occ. eigenvalues --  -10.19400 -10.19337 -10.19281 -10.18037  -1.06029
 Alpha  occ. eigenvalues --   -1.03893  -0.80028  -0.78152  -0.74431  -0.67943
 Alpha  occ. eigenvalues --   -0.60464  -0.58649  -0.52485  -0.50433  -0.48207
 Alpha  occ. eigenvalues --   -0.46627  -0.44540  -0.42354  -0.41639  -0.40451
 Alpha  occ. eigenvalues --   -0.39091  -0.37578  -0.36643  -0.35741  -0.34910
 Alpha  occ. eigenvalues --   -0.34114  -0.32234  -0.28329  -0.23054
 Alpha virt. eigenvalues --   -0.01648   0.07678   0.10750   0.10807   0.13418
 Alpha virt. eigenvalues --    0.13601   0.15183   0.15359   0.15955   0.16898
 Alpha virt. eigenvalues --    0.17219   0.18028   0.19462   0.20719   0.22814

 Mulliken charges:
               1
     1  C   -0.483672
     2  C    0.276447
     3  C   -0.265162
     4  C   -0.222054
     5  C    0.063374
     6  C   -0.339624
     7  C    0.399109
     8  O   -0.326997
     9  O   -0.291860
    10  H    0.133302
    11  H    0.139507
    12  H    0.121493
    13  H    0.112625
    14  H    0.118086
    15  H    0.111914
    16  H    0.104885
    17  H    0.085010
    18  H    0.137303
    19  H    0.126315
 Sum of Mulliken charges =   0.00000

 Dipole moment (field-independent basis, Debye):
    X=             -2.2050    Y=             -0.8455    Z=              0.3729  Tot=              2.3908
 Quadrupole moment (field-independent basis, Debye-Ang):
   XX=            -53.8303   YY=            -53.9014   ZZ=            -54.1936
   XY=             -5.1761   XZ=             -1.9238   YZ=             -3.2409

  Exact polarizability:  81.228  -1.731  75.595   1.230  -1.533  64.748
 Approx polarizability: 115.654   2.920 108.240   6.265   2.587 102.428

                      1                      2                      3
                      A                      A                      A
 Frequencies --    105.8459               168.6962               199.3569
 Red. masses --      3.5658                 1.0645                 2.0835
 Frc consts  --      0.0235                 0.0178                 0.0488
 IR Inten    --      4.6348                 0.8086                 0.8134

                      4                      5                      6
                      A                      A                      A
 Frequencies --    265.5802               309.3543               358.7989
 Red. masses --      2.8014                 2.6579                 1.9971
 Frc consts  --      0.1164                 0.1499                 0.1515
 IR Inten    --      3.8744                 0.8574                 0.3249

                      7                      8                      9
                      A                      A                      A
 Frequencies --    466.2429               512.8362               560.0524
 Red. masses --      4.6339                 3.6471                 3.5597
 Frc consts  --      0.5935                 0.5651                 0.6578
 IR Inten    --      4.9108                 8.9570                 5.7202

                     10                     11                     12
                      A                      A                      A
 Frequencies --    608.3497               632.9557               695.5420
 Red. masses --      3.7088                 3.5003                 3.2647
 Frc consts  --      0.8087                 0.8262                 0.9305
 IR Inten    --      2.2467                 1.8636                 2.2990

                     13                     14                     15
                      A                      A                      A
 Frequencies --    797.0269               829.0065               846.1695
 Red. masses --      2.8698                 2.0303                 3.0622
 Frc consts  --      1.0741                 0.8221                 1.2918
 IR Inten    --     12.0052                 4.9114                 5.6599

                     16                     17                     18
                      A                      A                      A
 Frequencies --    860.7916               885.1741               924.0451
 Red. masses --      2.2030                 2.3118                 1.8643
 Frc consts  --      0.9617                 1.0672                 0.9379
 IR Inten    --      1.0714                13.0129                 0.9546

                     19                     20                     21
                      A                      A                      A
 Frequencies --    959.4542               979.2468               996.9655
 Red. masses --      2.7039                 5.1545                 1.7573
 Frc consts  --      1.4665                 2.9122                 1.0291
 IR Inten    --      4.2647                10.5290                 6.7662

                     22                     23                     24
                      A                      A                      A
 Frequencies --   1044.0526              1073.1354              1094.4802
 Red. masses --      1.7888                 2.5013                 1.4855
 Frc consts  --      1.1488                 1.6972                 1.0485
 IR Inten    --      4.9650                67.2722                10.1133

                     25                     26                     27
                      A                      A                      A
 Frequencies --   1134.5558              1167.2846              1211.4171
 Red. masses --      2.0418                 1.3837                 1.7391
 Frc consts  --      1.5485                 1.1109                 1.5037
 IR Inten    --     28.1703                 4.1470                 4.7128

                     28                     29                     30
                      A                      A                      A
 Frequencies --   1216.0086              1238.2888              1264.4151
 Red. masses --      1.4810                 1.6217                 1.4891
 Frc consts  --      1.2902                 1.4651                 1.4027
 IR Inten    --      1.8225                13.7055                 1.9136

                     31                     32                     33
                      A                      A                      A
 Frequencies --   1308.0772              1329.1626              1335.6169
 Red. masses --      1.6382                 1.5235                 1.4795
 Frc consts  --      1.6515                 1.5858                 1.5550
 IR Inten    --      6.0039                 3.7363                10.1196

                     34                     35                     36
                      A                      A                      A
 Frequencies --   1349.4588              1412.5769              1444.7091
 Red. masses --      2.2979                 1.3861                 1.0999
 Frc consts  --      2.4655                 1.6296                 1.3525
 IR Inten    --      1.1629                 7.4584                 8.9398

                     37                     38                     39
                      A                      A                      A
 Frequencies --   1477.7507              1485.7298              1494.1426
 Red. masses --      1.0579                 1.0728                 1.0521
 Frc consts  --      1.3611                 1.3953                 1.3839
 IR Inten    --      2.0541                 3.1250                 3.2063

                     40                     41                     42
                      A                      A                      A
 Frequencies --   1504.2076              1860.0089              3048.9148
 Red. masses --      1.1031                12.7513                 1.0350
 Frc consts  --      1.4705                25.9917                 5.6686
 IR Inten    --      3.8689               201.2378                13.4596

                     43                     44                     45
                      A                      A                      A
 Frequencies --   3061.1935              3061.6992              3071.7066
 Red. masses --      1.0584                 1.0609                 1.0610
 Frc consts  --      5.8438                 5.8594                 5.8981
 IR Inten    --     22.6782                 9.3651                22.6456

                     46                     47                     48
                      A                      A                      A
 Frequencies --   3102.7971              3114.5759              3121.0965
 Red. masses --      1.1066                 1.1030                 1.1027
 Frc consts  --      6.2767                 6.3042                 6.3287
 IR Inten    --      1.1507                 4.4064                18.8130

                     49                     50                     51
                      A                      A                      A
 Frequencies --   3124.5625              3127.4255              3128.1524
 Red. masses --      1.1021                 1.0946                 1.1007
 Frc consts  --      6.3393                 6.3080                 6.3460
 IR Inten    --     18.1740                29.3842                21.1462

 - Thermochemistry -
 -------------------
 Temperature   298.150 Kelvin.  Pressure   1.00000 Atm.
 Atom     1 has atomic number  6 and mass  12.00000

 Molecular mass:   126.06808 amu.
 Principal axes and moments of inertia in atomic units:
                           1         2         3
     Eigenvalues --   771.99059 945.384271223.19631
           X            0.97960  -0.19836  -0.03208
           Y            0.19661   0.97918  -0.05055
           Z            0.04144   0.04321   0.99821
 This molecule is an asymmetric top.
 Rotational symmetry number  1.
 Warning -- assumption of classical behavior for rotation
           may cause significant error
 Rotational temperatures (Kelvin)      0.11220     0.09162     0.07081
 Rotational constants (GHZ):           2.33778     1.90900     1.47543
 Zero-point vibrational energy     420898.3 (Joules/Mol)
                                  100.59710 (Kcal/Mol)
 Warning -- explicit consideration of  10 degrees of freedom as
           vibrations may cause significant error
 Vibrational temperatures:    152.29   242.72   286.83   382.11   445.09
          (Kelvin)            516.23   670.82   737.86   805.79   875.28
                              910.68  1000.73  1146.74  1192.75  1217.45
                             1238.49  1273.57  1329.49  1380.44  1408.92
                             1434.41  1502.16  1544.00  1574.71  1632.37
                             1679.46  1742.96  1749.56  1781.62  1819.21
                             1882.03  1912.37  1921.65  1941.57  2032.38
                             2078.61  2126.15  2137.63  2149.74  2164.22
                             2676.13  4386.70  4404.37  4405.10  4419.50
                             4464.23  4481.17  4490.56  4495.54  4499.66
                             4500.71

 Zero-point correction=                           0.160312 (Hartree/Particle)
 Thermal correction to Energy=                    0.168091
 Thermal correction to Enthalpy=                  0.169035
 Thermal correction to Gibbs Free Energy=         0.128301
 Sum of electronic and zero-point Energies=           -423.070309
 Sum of electronic and thermal Energies=              -423.062530
 Sum of electronic and thermal Enthalpies=            -423.061585
 Sum of electronic and thermal Free Energies=         -423.102320

                     E (Thermal)             CV                S
                      KCal/Mol        Cal/Mol-Kelvin    Cal/Mol-Kelvin
 Total                  105.478             30.841             85.732
 Electronic               0.000              0.000              0.000
 Translational            0.889              2.981             40.409
 Rotational               0.889              2.981             28.281
 Vibrational            103.701             24.879             17.043
 Vibration     1          0.605              1.945              3.344
 Vibration     2          0.625              1.881              2.450
 Vibration     3          0.637              1.841              2.139
 Vibration     4          0.671              1.736              1.625
 Vibration     5          0.699              1.656              1.366
 Vibration     6          0.734              1.557              1.127
 Vibration     7          0.824              1.325              0.748
 Vibration     8          0.868              1.222              0.627
 Vibration     9          0.916              1.118              0.524
 Vibration    10          0.967              1.014              0.436

 Normal termination of Gaussian 09 at Mon Jan 27 19:18:12 2020.
