 Gaussian 09, Revision D.01,
 Gaussian 09:  ES64L-G09RevD.01 24-Apr-2013

 -----------------------------
 # b3lyp 6-31G(2df,p) opt Freq
 -----------------------------

 -----
 titel
 -----
 Symbolic Z-matrix:
 Charge =  0 Multiplicity = 1

 SCF Done:  E(RB3LYP) =  -423.183582632     A.U. after   14 cycles
 Optimization completed.
    -- Stationary point found.
 Normal termination of Gaussian 09 at Mon Jan 27 13:15:56 2020.

 ----------------------------------------------------------------------
 #N Geom=AllCheck Guess=TCheck SCRF=Check GenChk RB3LYP/6-31G(2df,p) Fr
 eq
 ----------------------------------------------------------------------

 Structure from the checkpoint file:  "/scratch/puck/g09_384e10a0-1b95-4fe2-84c1-c9e1992fe0e7/Gau-38260.chk"
 -----
 titel
 -----
 Charge =  0 Multiplicity = 1

                         Standard orientation:
 ---------------------------------------------------------------------
 Center     Atomic      Atomic             Coordinates (Angstroms)
 Number     Number       Type             X           Y           Z
 ---------------------------------------------------------------------
      1          8           0        2.858768    0.512457   -0.017429
      2          6           0        2.047084   -0.377086    0.046608
      3          6           0        0.559915   -0.199452   -0.002718
      4          6           0       -0.239125   -1.095501   -1.001720
      5          6           0       -1.394808   -1.010677    0.026878
      6          6           0       -0.304240   -0.862801    1.123593
      7          6           0       -2.107487    0.340196   -0.132591
      8          8           0       -1.251624    1.423076    0.203642
      9          6           0        0.107766    1.257942   -0.177013
     10          1           0        2.368867   -1.441074    0.148744
     11          1           0       -0.404046   -0.691763   -2.005499
     12          1           0        0.181325   -2.103135   -1.074795
     13          1           0       -2.110576   -1.833824    0.083009
     14          1           0       -0.525610   -0.254117    2.002034
     15          1           0        0.106779   -1.829851    1.425231
     16          1           0       -2.489157    0.441187   -1.162703
     17          1           0       -2.960949    0.416957    0.549770
     18          1           0        0.270439    1.573470   -1.219628
     19          1           0        0.691145    1.922168    0.465906
 ---------------------------------------------------------------------

 SCF Done:  E(RB3LYP) =  -423.183582632     A.U. after    1 cycles

 The electronic state is 1-A.
 Alpha  occ. eigenvalues --  -19.14387 -19.14179 -10.27247 -10.23344 -10.22982
 Alpha  occ. eigenvalues --  -10.20898 -10.20402 -10.19964 -10.19963  -1.05042
 Alpha  occ. eigenvalues --   -1.03625  -0.87190  -0.76653  -0.67809  -0.66983
 Alpha  occ. eigenvalues --   -0.65199  -0.58048  -0.54002  -0.50677  -0.48580
 Alpha  occ. eigenvalues --   -0.47049  -0.46469  -0.44262  -0.42415  -0.40396
 Alpha  occ. eigenvalues --   -0.40121  -0.39002  -0.38329  -0.33608  -0.32669
 Alpha  occ. eigenvalues --   -0.32389  -0.29458  -0.25899  -0.25021
 Alpha virt. eigenvalues --   -0.02992   0.07629   0.10069   0.10869   0.11891
 Alpha virt. eigenvalues --    0.13341   0.14664   0.15151   0.15357   0.15801
 Alpha virt. eigenvalues --    0.16537   0.17742   0.19264   0.20586   0.21557

 Mulliken charges:
               1
     1  O   -0.254024
     2  C    0.080822
     3  C    0.196438
     4  C   -0.266073
     5  C   -0.041308
     6  C   -0.264406
     7  C   -0.068918
     8  O   -0.260538
     9  C   -0.116898
    10  H    0.070174
    11  H    0.103668
    12  H    0.102021
    13  H    0.071861
    14  H    0.120182
    15  H    0.103004
    16  H    0.090535
    17  H    0.109810
    18  H    0.098126
    19  H    0.125524
 Sum of Mulliken charges =   0.00000

 Dipole moment (field-independent basis, Debye):
    X=             -1.8885    Y=             -2.6000    Z=             -0.2795  Tot=              3.2256
 Quadrupole moment (field-independent basis, Debye-Ang):
   XX=            -60.2397   YY=            -54.4201   ZZ=            -51.8382
   XY=             -1.0735   XZ=              0.7330   YZ=             -0.7181

  Exact polarizability:  87.100   3.351  74.320   0.201  -0.973  65.206
 Approx polarizability: 120.885  10.419 113.654  -0.866  -0.291 100.273

                      1                      2                      3
                      A                      A                      A
 Frequencies --     78.8833               181.8434               212.1094
 Red. masses --      4.3109                 4.1451                 3.3281
 Frc consts  --      0.0158                 0.0808                 0.0882
 IR Inten    --      4.2726                 1.5570                 9.7624

                      4                      5                      6
                      A                      A                      A
 Frequencies --    236.7269               363.9086               403.9925
 Red. masses --      2.0458                 2.0479                 2.2552
 Frc consts  --      0.0675                 0.1598                 0.2169
 IR Inten    --      1.1723                 0.3559                 0.3811

                      7                      8                      9
                      A                      A                      A
 Frequencies --    416.6715               423.0472               545.1602
 Red. masses --      3.9867                 2.0817                 5.0560
 Frc consts  --      0.4078                 0.2195                 0.8853
 IR Inten    --      0.2748                 0.4385                 5.5234

                     10                     11                     12
                      A                      A                      A
 Frequencies --    615.9030               728.1883               824.2286
 Red. masses --      3.2067                 4.2963                 2.9752
 Frc consts  --      0.7167                 1.3423                 1.1909
 IR Inten    --      2.0346                26.3510                 2.5468

                     13                     14                     15
                      A                      A                      A
 Frequencies --    841.2704               864.5709               884.6989
 Red. masses --      2.3832                 1.9868                 3.0148
 Frc consts  --      0.9938                 0.8750                 1.3903
 IR Inten    --      0.0947                 0.2748                15.4252

                     16                     17                     18
                      A                      A                      A
 Frequencies --    922.9299               939.8000               987.2182
 Red. masses --      2.1397                 2.4948                 1.4822
 Frc consts  --      1.0738                 1.2982                 0.8511
 IR Inten    --     16.5082                 7.0601                 3.8366

                     19                     20                     21
                      A                      A                      A
 Frequencies --    992.2307              1007.2713              1056.7910
 Red. masses --      1.9155                 1.9580                 1.6017
 Frc consts  --      1.1111                 1.1705                 1.0539
 IR Inten    --     21.9429                 4.3993                 1.6033

                     22                     23                     24
                      A                      A                      A
 Frequencies --   1076.2776              1103.9816              1127.2379
 Red. masses --      1.9256                 1.4096                 1.8586
 Frc consts  --      1.3142                 1.0122                 1.3915
 IR Inten    --     38.2521                 1.7145                 9.1726

                     25                     26                     27
                      A                      A                      A
 Frequencies --   1165.0126              1182.7802              1208.2065
 Red. masses --      2.6054                 2.5463                 1.8641
 Frc consts  --      2.0835                 2.0988                 1.6033
 IR Inten    --     38.1708                15.4051                 1.4606

                     28                     29                     30
                      A                      A                      A
 Frequencies --   1241.6932              1261.2026              1263.4612
 Red. masses --      1.3111                 1.6415                 1.1876
 Frc consts  --      1.1910                 1.5384                 1.1170
 IR Inten    --      2.6958                 0.0212                11.2752

                     31                     32                     33
                      A                      A                      A
 Frequencies --   1295.0470              1303.7956              1339.8489
 Red. masses --      1.6751                 1.6774                 1.6829
 Frc consts  --      1.6553                 1.6800                 1.7800
 IR Inten    --      6.6759                12.8530                 0.8202

                     34                     35                     36
                      A                      A                      A
 Frequencies --   1382.8464              1415.6688              1427.0963
 Red. masses --      1.3468                 1.3671                 1.2226
 Frc consts  --      1.5174                 1.6143                 1.4671
 IR Inten    --      2.4014                 5.9884                 3.5422

                     37                     38                     39
                      A                      A                      A
 Frequencies --   1471.7808              1500.4852              1505.2900
 Red. masses --      1.0896                 1.1229                 1.0825
 Frc consts  --      1.3906                 1.4896                 1.4451
 IR Inten    --      2.7496                 5.0418                 0.2927

                     40                     41                     42
                      A                      A                      A
 Frequencies --   1516.2257              1817.4721              2848.1596
 Red. masses --      1.0976                10.9479                 1.0820
 Frc consts  --      1.4867                21.3067                 5.1713
 IR Inten    --      1.3153               193.0153               110.5318

                     43                     44                     45
                      A                      A                      A
 Frequencies --   2962.8458              2983.2095              3041.3675
 Red. masses --      1.0708                 1.0714                 1.0562
 Frc consts  --      5.5381                 5.6180                 5.7563
 IR Inten    --     66.5133                57.2260                34.9754

                     46                     47                     48
                      A                      A                      A
 Frequencies --   3062.8140              3064.7581              3086.3348
 Red. masses --      1.0848                 1.0651                 1.0881
 Frc consts  --      5.9956                 5.8941                 6.1068
 IR Inten    --     27.4249                20.5164                58.4580

                     49                     50                     51
                      A                      A                      A
 Frequencies --   3095.2009              3099.2862              3129.3253
 Red. masses --      1.0925                 1.1080                 1.1085
 Frc consts  --      6.1664                 6.2704                 6.3958
 IR Inten    --     15.1542                30.4096                17.6915

 - Thermochemistry -
 -------------------
 Temperature   298.150 Kelvin.  Pressure   1.00000 Atm.
 Atom     1 has atomic number  8 and mass  15.99491

 Molecular mass:   126.06808 amu.
 Principal axes and moments of inertia in atomic units:
                           1         2         3
     Eigenvalues --   565.212191277.247711534.11681
           X            0.99999  -0.00062   0.00432
           Y            0.00068   0.99988  -0.01543
           Z           -0.00431   0.01543   0.99987
 This molecule is an asymmetric top.
 Rotational symmetry number  1.
 Warning -- assumption of classical behavior for rotation
           may cause significant error
 Rotational temperatures (Kelvin)      0.15324     0.06781     0.05646
 Rotational constants (GHZ):           3.19303     1.41299     1.17640
 Zero-point vibrational energy     421720.5 (Joules/Mol)
                                  100.79361 (Kcal/Mol)
 Warning -- explicit consideration of  10 degrees of freedom as
           vibrations may cause significant error
 Vibrational temperatures:    113.50   261.63   305.18   340.60   523.58
          (Kelvin)            581.25   599.50   608.67   784.36   886.15
                             1047.70  1185.88  1210.40  1243.92  1272.88
                             1327.89  1352.16  1420.38  1427.60  1449.24
                             1520.48  1548.52  1588.38  1621.84  1676.19
                             1701.75  1738.34  1786.52  1814.59  1817.84
                             1863.28  1875.87  1927.74  1989.61  2036.83
                             2053.27  2117.56  2158.86  2165.77  2181.51
                             2614.93  4097.86  4262.87  4292.17  4375.84
                             4406.70  4409.50  4440.54  4453.30  4459.18
                             4502.40

 Zero-point correction=                           0.160625 (Hartree/Particle)
 Thermal correction to Energy=                    0.168288
 Thermal correction to Enthalpy=                  0.169232
 Thermal correction to Gibbs Free Energy=         0.128393
 Sum of electronic and zero-point Energies=           -423.022958
 Sum of electronic and thermal Energies=              -423.015295
 Sum of electronic and thermal Enthalpies=            -423.014351
 Sum of electronic and thermal Free Energies=         -423.055189

                     E (Thermal)             CV                S
                      KCal/Mol        Cal/Mol-Kelvin    Cal/Mol-Kelvin
 Total                  105.602             29.891             85.952
 Electronic               0.000              0.000              0.000
 Translational            0.889              2.981             40.409
 Rotational               0.889              2.981             28.495
 Vibrational            103.825             23.930             17.049
 Vibration     1          0.600              1.963              3.918
 Vibration     2          0.630              1.864              2.309
 Vibration     3          0.643              1.822              2.025
 Vibration     4          0.656              1.785              1.827
 Vibration     5          0.737              1.547              1.105
 Vibration     6          0.769              1.462              0.948
 Vibration     7          0.780              1.434              0.903
 Vibration     8          0.785              1.420              0.882
 Vibration     9          0.900              1.150              0.554
 Vibration    10          0.975              0.998              0.423

 Normal termination of Gaussian 09 at Mon Jan 27 14:02:08 2020.
