 Gaussian 09, Revision D.01,
 Gaussian 09:  ES64L-G09RevD.01 24-Apr-2013

 -----------------------------
 # b3lyp 6-31G(2df,p) opt Freq
 -----------------------------

 -----
 titel
 -----
 Symbolic Z-matrix:
 Charge =  0 Multiplicity = 1

 SCF Done:  E(RB3LYP) =  -423.152389539     A.U. after   15 cycles
 SCF Done:  E(RB3LYP) =  -423.152389440     A.U. after    7 cycles
 SCF Done:  E(RB3LYP) =  -423.152389510     A.U. after    7 cycles
 SCF Done:  E(RB3LYP) =  -423.152388868     A.U. after    8 cycles
 SCF Done:  E(RB3LYP) =  -423.152389529     A.U. after    8 cycles
 Optimization completed.
    -- Stationary point found.
 Normal termination of Gaussian 09 at Mon Jan 27 14:34:19 2020.

 ----------------------------------------------------------------------
 #N Geom=AllCheck Guess=TCheck SCRF=Check GenChk RB3LYP/6-31G(2df,p) Fr
 eq
 ----------------------------------------------------------------------

 Structure from the checkpoint file:  "/scratch/puck/g09_8abf38b5-e5d8-46ef-996b-2531c68e1136/Gau-70757.chk"
 -----
 titel
 -----
 Charge =  0 Multiplicity = 1

                         Standard orientation:
 ---------------------------------------------------------------------
 Center     Atomic      Atomic             Coordinates (Angstroms)
 Number     Number       Type             X           Y           Z
 ---------------------------------------------------------------------
      1          6           0        0.284801   -0.251564    1.697975
      2          6           0        0.493916   -0.251807    0.169735
      3          6           0        0.600078   -1.675594   -0.382537
      4          6           0        1.784475    0.522555   -0.106000
      5          8           0        2.783370    0.037240   -0.572804
      6          6           0       -0.668560    0.528225   -0.536828
      7          8           0       -0.737481    1.888953   -0.114276
      8          6           0       -1.960993   -0.139719   -0.373425
      9          6           0       -3.033970   -0.652787   -0.195685
     10          1           0        1.078862   -0.817588    2.193215
     11          1           0        0.293603    0.764392    2.105403
     12          1           0       -0.673709   -0.716260    1.948556
     13          1           0        1.483015   -2.172158    0.025898
     14          1           0       -0.287270   -2.258801   -0.125270
     15          1           0        0.707860   -1.670271   -1.471519
     16          1           0        1.742641    1.594172    0.178234
     17          1           0       -0.431411    0.572645   -1.607551
     18          1           0       -1.294783    1.926358    0.669926
     19          1           0       -3.984400   -1.107880   -0.059664
 ---------------------------------------------------------------------

 SCF Done:  E(RB3LYP) =  -423.152389529     A.U. after    1 cycles

 The electronic state is 1-A.
 Alpha  occ. eigenvalues --  -19.15812 -19.13985 -10.27187 -10.26530 -10.21152
 Alpha  occ. eigenvalues --  -10.19867 -10.19453 -10.19081 -10.17715  -1.04720
 Alpha  occ. eigenvalues --   -1.04059  -0.83059  -0.76864  -0.70552  -0.69281
 Alpha  occ. eigenvalues --   -0.64515  -0.56275  -0.54569  -0.51643  -0.49316
 Alpha  occ. eigenvalues --   -0.47853  -0.45447  -0.44205  -0.40492  -0.39236
 Alpha  occ. eigenvalues --   -0.38347  -0.37565  -0.37080  -0.36819  -0.34799
 Alpha  occ. eigenvalues --   -0.30410  -0.28829  -0.27847  -0.24557
 Alpha virt. eigenvalues --   -0.02447   0.02139   0.03653   0.08035   0.10471
 Alpha virt. eigenvalues --    0.11335   0.13091   0.13990   0.15066   0.15598
 Alpha virt. eigenvalues --    0.16015   0.18503   0.19601   0.20186   0.21401

 Mulliken charges:
               1
     1  C   -0.445418
     2  C    0.140074
     3  C   -0.424376
     4  C    0.129856
     5  O   -0.252165
     6  C   -0.064870
     7  O   -0.428871
     8  C    0.291712
     9  C   -0.435497
    10  H    0.132663
    11  H    0.118895
    12  H    0.134450
    13  H    0.132124
    14  H    0.123170
    15  H    0.123531
    16  H    0.099217
    17  H    0.127070
    18  H    0.292187
    19  H    0.206247
 Sum of Mulliken charges =   0.00000

 Dipole moment (field-independent basis, Debye):
    X=             -2.8818    Y=             -0.4671    Z=              1.7155  Tot=              3.3862
 Quadrupole moment (field-independent basis, Debye-Ang):
   XX=            -56.7798   YY=            -54.3561   ZZ=            -51.9943
   XY=              2.0842   XZ=              0.8551   YZ=              1.6324

  Exact polarizability:  96.448   6.785  71.877  -3.922   2.053  63.715
 Approx polarizability: 144.713  13.404 108.348 -12.633   1.755  95.332

                      1                      2                      3
                      A                      A                      A
 Frequencies --     53.9460                71.1564               143.1247
 Red. masses --      4.6149                 3.7716                 3.7748
 Frc consts  --      0.0079                 0.0113                 0.0456
 IR Inten    --      4.0472                 0.5521                 1.5929

                      4                      5                      6
                      A                      A                      A
 Frequencies --    193.2721               211.8851               222.0785
 Red. masses --      1.1488                 2.7412                 1.0490
 Frc consts  --      0.0253                 0.0725                 0.0305
 IR Inten    --      2.8769                 3.4222                22.3897

                      7                      8                      9
                      A                      A                      A
 Frequencies --    248.2449               277.0731               284.8963
 Red. masses --      3.9700                 1.8477                 1.7381
 Frc consts  --      0.1441                 0.0836                 0.0831
 IR Inten    --      6.5741                34.2473                47.5839

                     10                     11                     12
                      A                      A                      A
 Frequencies --    310.0439               345.0567               365.2789
 Red. masses --      2.2880                 3.1932                 2.5167
 Frc consts  --      0.1296                 0.2240                 0.1979
 IR Inten    --      3.5149                 4.0980                 1.8227

                     13                     14                     15
                      A                      A                      A
 Frequencies --    447.9390               468.8731               591.7068
 Red. masses --      4.2578                 5.2410                 5.6308
 Frc consts  --      0.5034                 0.6788                 1.1615
 IR Inten    --      5.3742                 1.6494                 9.3520

                     16                     17                     18
                      A                      A                      A
 Frequencies --    636.0538               676.1752               692.0317
 Red. masses --      1.2631                 1.2573                 3.0365
 Frc consts  --      0.3011                 0.3387                 0.8568
 IR Inten    --     39.0265                32.7955                10.4888

                     19                     20                     21
                      A                      A                      A
 Frequencies --    770.8443               845.1880               919.4514
 Red. masses --      3.5464                 3.1130                 2.0710
 Frc consts  --      1.2416                 1.3102                 1.0316
 IR Inten    --      4.5496                30.5458                24.3553

                     22                     23                     24
                      A                      A                      A
 Frequencies --    958.8972               974.8628              1019.1998
 Red. masses --      1.3806                 2.6832                 1.8910
 Frc consts  --      0.7479                 1.5024                 1.1573
 IR Inten    --      2.6819                42.8626                20.7904

                     25                     26                     27
                      A                      A                      A
 Frequencies --   1032.9472              1077.6628              1169.4897
 Red. masses --      1.7971                 2.7441                 2.3589
 Frc consts  --      1.1297                 1.8776                 1.9009
 IR Inten    --     31.7095                46.7326                14.3391

                     28                     29                     30
                      A                      A                      A
 Frequencies --   1219.8120              1248.6707              1276.5019
 Red. masses --      2.5508                 1.6945                 1.9335
 Frc consts  --      2.2362                 1.5566                 1.8562
 IR Inten    --      1.4864                16.2509                 8.8557

                     31                     32                     33
                      A                      A                      A
 Frequencies --   1334.8443              1393.6680              1406.8415
 Red. masses --      1.3463                 1.2273                 1.1853
 Frc consts  --      1.4134                 1.4045                 1.3821
 IR Inten    --      7.0661                 5.9355                 0.4362

                     34                     35                     36
                      A                      A                      A
 Frequencies --   1415.2007              1428.9544              1484.6805
 Red. masses --      1.2319                 1.2226                 1.0505
 Frc consts  --      1.4537                 1.4708                 1.3643
 IR Inten    --     60.8419                14.5112                 1.8862

                     37                     38                     39
                      A                      A                      A
 Frequencies --   1486.4819              1500.7437              1511.0265
 Red. masses --      1.0439                 1.0537                 1.0576
 Frc consts  --      1.3590                 1.3983                 1.4227
 IR Inten    --      0.7058                 6.5652                 9.7174

                     40                     41                     42
                      A                      A                      A
 Frequencies --   1824.3498              2229.2217              2926.6488
 Red. masses --     10.4866                 5.9070                 1.0839
 Frc consts  --     20.5637                17.2952                 5.4701
 IR Inten    --    161.2471                 2.0574                71.3839

                     43                     44                     45
                      A                      A                      A
 Frequencies --   3029.3110              3037.3188              3050.0359
 Red. masses --      1.0831                 1.0342                 1.0363
 Frc consts  --      5.8560                 5.6214                 5.6800
 IR Inten    --     13.4301                17.0404                11.4041

                     46                     47                     48
                      A                      A                      A
 Frequencies --   3109.0144              3115.4002              3118.5646
 Red. masses --      1.1011                 1.1021                 1.0998
 Frc consts  --      6.2710                 6.3021                 6.3021
 IR Inten    --     17.3088                 9.5969                17.4905

                     49                     50                     51
                      A                      A                      A
 Frequencies --   3134.9875              3499.1333              3821.9715
 Red. masses --      1.1023                 1.1625                 1.0664
 Frc consts  --      6.3830                 8.3863                 9.1781
 IR Inten    --     14.8566                67.8867                30.9954

 - Thermochemistry -
 -------------------
 Temperature   298.150 Kelvin.  Pressure   1.00000 Atm.
 Atom     1 has atomic number  6 and mass  12.00000

 Molecular mass:   126.06808 amu.
 Principal axes and moments of inertia in atomic units:
                           1         2         3
     Eigenvalues --   688.190641544.897481760.65137
           X            0.99999   0.00218   0.00345
           Y           -0.00227   0.99960   0.02807
           Z           -0.00339  -0.02807   0.99960
 This molecule is an asymmetric top.
 Rotational symmetry number  1.
 Warning -- assumption of classical behavior for rotation
           may cause significant error
 Rotational temperatures (Kelvin)      0.12586     0.05606     0.04919
 Rotational constants (GHZ):           2.62244     1.16819     1.02504
 Zero-point vibrational energy     404402.2 (Joules/Mol)
                                   96.65444 (Kcal/Mol)
 Warning -- explicit consideration of  15 degrees of freedom as
           vibrations may cause significant error
 Vibrational temperatures:     77.62   102.38   205.92   278.08   304.86
          (Kelvin)            319.52   357.17   398.65   409.90   446.08
                              496.46   525.55   644.48   674.60   851.33
                              915.14   972.86   995.68  1109.07  1216.04
                             1322.88  1379.64  1402.61  1466.40  1486.18
                             1550.51  1682.63  1755.04  1796.56  1836.60
                             1920.54  2005.17  2024.13  2036.16  2055.94
                             2136.12  2138.71  2159.23  2174.03  2624.83
                             3207.35  4210.79  4358.50  4370.02  4388.32
                             4473.17  4482.36  4486.91  4510.54  5034.47
                             5498.96

 Zero-point correction=                           0.154029 (Hartree/Particle)
 Thermal correction to Energy=                    0.164832
 Thermal correction to Enthalpy=                  0.165776
 Thermal correction to Gibbs Free Energy=         0.118302
 Sum of electronic and zero-point Energies=           -422.998361
 Sum of electronic and thermal Energies=              -422.987558
 Sum of electronic and thermal Enthalpies=            -422.986614
 Sum of electronic and thermal Free Energies=         -423.034088

                     E (Thermal)             CV                S
                      KCal/Mol        Cal/Mol-Kelvin    Cal/Mol-Kelvin
 Total                  103.434             38.881             99.918
 Electronic               0.000              0.000              0.000
 Translational            0.889              2.981             40.409
 Rotational               0.889              2.981             29.017
 Vibrational            101.656             32.919             30.493
 Vibration     1          0.596              1.976              4.667
 Vibration     2          0.598              1.968              4.121
 Vibration     3          0.616              1.910              2.762
 Vibration     4          0.635              1.849              2.196
 Vibration     5          0.643              1.823              2.027
 Vibration     6          0.648              1.807              1.942
 Vibration     7          0.662              1.766              1.743
 Vibration     8          0.678              1.716              1.552
 Vibration     9          0.683              1.702              1.504
 Vibration    10          0.699              1.655              1.362
 Vibration    11          0.723              1.585              1.189
 Vibration    12          0.738              1.544              1.100
 Vibration    13          0.807              1.365              0.802
 Vibration    14          0.826              1.319              0.741
 Vibration    15          0.949              1.049              0.464

 Normal termination of Gaussian 09 at Mon Jan 27 15:22:54 2020.
