 Gaussian 09, Revision D.01,
 Gaussian 09:  ES64L-G09RevD.01 24-Apr-2013

 -----------------------------
 # b3lyp 6-31G(2df,p) opt Freq
 -----------------------------

 -----
 titel
 -----
 Symbolic Z-matrix:
 Charge =  0 Multiplicity = 1

 SCF Done:  E(RB3LYP) =  -423.148922321     A.U. after   13 cycles
 Optimization completed.
    -- Stationary point found.
 Normal termination of Gaussian 09 at Mon Jan 27 17:55:21 2020.

 ----------------------------------------------------------------------
 #N Geom=AllCheck Guess=TCheck SCRF=Check GenChk RB3LYP/6-31G(2df,p) Fr
 eq
 ----------------------------------------------------------------------

 Structure from the checkpoint file:  "/scratch/puck/g09_18a437ae-1a94-474b-b42d-34d55184f597/Gau-87944.chk"
 -----
 titel
 -----
 Charge =  0 Multiplicity = 1

                         Standard orientation:
 ---------------------------------------------------------------------
 Center     Atomic      Atomic             Coordinates (Angstroms)
 Number     Number       Type             X           Y           Z
 ---------------------------------------------------------------------
      1          8           0       -0.200944    2.035652   -0.403154
      2          6           0       -0.421712    0.729854    0.026874
      3          6           0       -1.530839    0.507657    1.025573
      4          6           0       -1.603669   -0.114507   -0.358989
      5          8           0       -1.224615   -1.453588   -0.532320
      6          6           0        0.075804   -1.625033    0.043289
      7          6           0        0.732947   -0.245897    0.079024
      8          6           0        2.007005    0.054671   -0.668622
      9          6           0        1.998695    0.008003    0.843009
     10          1           0       -0.002334    2.006895   -1.346181
     11          1           0       -1.356346   -0.113928    1.897280
     12          1           0       -2.183933    1.357932    1.189108
     13          1           0       -2.369938    0.200070   -1.057649
     14          1           0       -0.019397   -2.037377    1.058571
     15          1           0        0.622217   -2.351192   -0.566248
     16          1           0        2.484055   -0.756190   -1.209436
     17          1           0        2.114996    1.030419   -1.130815
     18          1           0        2.480457   -0.831885    1.334476
     19          1           0        2.085311    0.950262    1.373749
 ---------------------------------------------------------------------

 SCF Done:  E(RB3LYP) =  -423.148922321     A.U. after    1 cycles

 The electronic state is 1-A.
 Alpha  occ. eigenvalues --  -19.15158 -19.14147 -10.23839 -10.23081 -10.23068
 Alpha  occ. eigenvalues --  -10.20087 -10.18929 -10.18743 -10.18175  -1.04887
 Alpha  occ. eigenvalues --   -1.02936  -0.86546  -0.83177  -0.71162  -0.62919
 Alpha  occ. eigenvalues --   -0.60549  -0.59033  -0.56020  -0.53021  -0.48863
 Alpha  occ. eigenvalues --   -0.48473  -0.46604  -0.42182  -0.42037  -0.39848
 Alpha  occ. eigenvalues --   -0.39236  -0.36784  -0.36422  -0.34664  -0.31235
 Alpha  occ. eigenvalues --   -0.29528  -0.28651  -0.26386  -0.21989
 Alpha virt. eigenvalues --    0.06930   0.08938   0.09781   0.10751   0.11709
 Alpha virt. eigenvalues --    0.13336   0.14203   0.16129   0.16373   0.17540
 Alpha virt. eigenvalues --    0.18535   0.20131   0.21121   0.22145   0.22980

 Mulliken charges:
               1
     1  O   -0.462128
     2  C    0.284883
     3  C   -0.365032
     4  C    0.034130
     5  O   -0.260397
     6  C   -0.172951
     7  C    0.283344
     8  C   -0.328003
     9  C   -0.314885
    10  H    0.284421
    11  H    0.118831
    12  H    0.123004
    13  H    0.105346
    14  H    0.100974
    15  H    0.112068
    16  H    0.112893
    17  H    0.107661
    18  H    0.110951
    19  H    0.124889
 Sum of Mulliken charges =   0.00000

 Dipole moment (field-independent basis, Debye):
    X=              0.9677    Y=              0.0388    Z=             -0.4569  Tot=              1.0708
 Quadrupole moment (field-independent basis, Debye-Ang):
   XX=            -53.4502   YY=            -56.0612   ZZ=            -50.0555
   XY=             -3.6389   XZ=             -0.7740   YZ=             -3.6889

  Exact polarizability:  81.762  -2.795  72.427  -2.347  -1.005  69.239
 Approx polarizability: 110.750  -0.821 106.178  -2.046  -0.066 107.102

                      1                      2                      3
                      A                      A                      A
 Frequencies --    103.8463               214.4296               225.1133
 Red. masses --      3.1183                 2.4143                 3.4880
 Frc consts  --      0.0198                 0.0654                 0.1041
 IR Inten    --      0.2760                 1.0767                 3.2469

                      4                      5                      6
                      A                      A                      A
 Frequencies --    272.0911               334.7374               347.3395
 Red. masses --      3.2696                 1.9752                 1.3643
 Frc consts  --      0.1426                 0.1304                 0.0970
 IR Inten    --     12.5349                 6.2697                54.9593

                      7                      8                      9
                      A                      A                      A
 Frequencies --    391.6328               453.6694               470.3277
 Red. masses --      2.6386                 2.5883                 3.0449
 Frc consts  --      0.2384                 0.3139                 0.3968
 IR Inten    --     51.4965                 0.9365                 2.6135

                     10                     11                     12
                      A                      A                      A
 Frequencies --    540.7020               625.0292               697.8457
 Red. masses --      3.8078                 3.8610                 3.9583
 Frc consts  --      0.6559                 0.8887                 1.1357
 IR Inten    --      0.4050                 9.9207                 3.2063

                     13                     14                     15
                      A                      A                      A
 Frequencies --    782.9293               809.6385               854.1606
 Red. masses --      1.0935                 2.2194                 2.2264
 Frc consts  --      0.3949                 0.8572                 0.9570
 IR Inten    --      0.1708                 9.0985                 1.5143

                     16                     17                     18
                      A                      A                      A
 Frequencies --    886.8021               919.9530               929.4253
 Red. masses --      1.7778                 1.8881                 2.0059
 Frc consts  --      0.8238                 0.9415                 1.0209
 IR Inten    --     20.6610                 9.0834                 9.9370

                     19                     20                     21
                      A                      A                      A
 Frequencies --    957.6027               986.7185               993.4729
 Red. masses --      2.1115                 2.1613                 2.3209
 Frc consts  --      1.1408                 1.2398                 1.3497
 IR Inten    --      1.7223                12.6710                14.7429

                     22                     23                     24
                      A                      A                      A
 Frequencies --   1001.4425              1026.6902              1057.8431
 Red. masses --      2.8120                 1.5025                 1.3564
 Frc consts  --      1.6616                 0.9331                 0.8943
 IR Inten    --     12.0833                18.0572                 4.9737

                     25                     26                     27
                      A                      A                      A
 Frequencies --   1075.3288              1080.4948              1089.4092
 Red. masses --      1.7250                 1.7446                 1.6706
 Frc consts  --      1.1752                 1.2001                 1.1682
 IR Inten    --     11.5970                 6.9303                 5.1296

                     28                     29                     30
                      A                      A                      A
 Frequencies --   1155.2931              1187.2211              1192.4511
 Red. masses --      3.1935                 2.0902                 1.3700
 Frc consts  --      2.5113                 1.7358                 1.1478
 IR Inten    --     91.4660                 9.4042                 1.2043

                     31                     32                     33
                      A                      A                      A
 Frequencies --   1227.1634              1253.4130              1304.2690
 Red. masses --      1.1635                 1.9972                 1.8113
 Frc consts  --      1.0323                 1.8487                 1.8154
 IR Inten    --      5.8993                43.1330                 6.8456

                     34                     35                     36
                      A                      A                      A
 Frequencies --   1324.1385              1347.9328              1399.4869
 Red. masses --      1.7089                 1.9072                 1.8577
 Frc consts  --      1.7653                 2.0417                 2.1437
 IR Inten    --     56.4302                16.5438                13.3128

                     37                     38                     39
                      A                      A                      A
 Frequencies --   1413.3256              1457.3735              1475.5217
 Red. masses --      1.6655                 1.0894                 1.5435
 Frc consts  --      1.9601                 1.3632                 1.9799
 IR Inten    --      3.9198                 2.6293                13.2525

                     40                     41                     42
                      A                      A                      A
 Frequencies --   1500.6117              1523.7592              2990.9808
 Red. masses --      1.5145                 1.1032                 1.0697
 Frc consts  --      2.0093                 1.5092                 5.6383
 IR Inten    --      0.7166                 1.0946                52.3683

                     43                     44                     45
                      A                      A                      A
 Frequencies --   3073.1310              3122.8687              3126.1397
 Red. masses --      1.0948                 1.0508                 1.0572
 Frc consts  --      6.0918                 6.0376                 6.0873
 IR Inten    --     29.1411                17.6051                14.3134

                     46                     47                     48
                      A                      A                      A
 Frequencies --   3134.0951              3186.1174              3203.3090
 Red. masses --      1.0539                 1.0928                 1.1176
 Frc consts  --      6.0994                 6.5360                 6.7567
 IR Inten    --      6.7054                13.3190                 0.0782

                     49                     50                     51
                      A                      A                      A
 Frequencies --   3217.7155              3226.6687              3790.3584
 Red. masses --      1.1156                 1.1166                 1.0658
 Frc consts  --      6.8055                 6.8497                 9.0220
 IR Inten    --     14.5955                 5.1828                17.0080

 - Thermochemistry -
 -------------------
 Temperature   298.150 Kelvin.  Pressure   1.00000 Atm.
 Atom     1 has atomic number  8 and mass  15.99491

 Molecular mass:   126.06808 amu.
 Principal axes and moments of inertia in atomic units:
                           1         2         3
     Eigenvalues --   757.03100 978.203481370.11417
           X            0.99725  -0.07307  -0.01221
           Y            0.07281   0.99712  -0.02116
           Z            0.01372   0.02021   0.99970
 This molecule is an asymmetric top.
 Rotational symmetry number  1.
 Warning -- assumption of classical behavior for rotation
           may cause significant error
 Rotational temperatures (Kelvin)      0.11441     0.08854     0.06322
 Rotational constants (GHZ):           2.38397     1.84495     1.31722
 Zero-point vibrational energy     418465.8 (Joules/Mol)
                                  100.01573 (Kcal/Mol)
 Warning -- explicit consideration of  10 degrees of freedom as
           vibrations may cause significant error
 Vibrational temperatures:    149.41   308.52   323.89   391.48   481.61
          (Kelvin)            499.74   563.47   652.73   676.70   777.95
                              899.28  1004.04  1126.46  1164.89  1228.95
                             1275.91  1323.61  1337.23  1377.77  1419.67
                             1429.38  1440.85  1477.18  1522.00  1547.16
                             1554.59  1567.41  1662.21  1708.14  1715.67
                             1765.61  1803.38  1876.55  1905.14  1939.37
                             2013.55  2033.46  2096.83  2122.94  2159.04
                             2192.35  4303.35  4421.54  4493.11  4497.81
                             4509.26  4584.11  4608.84  4629.57  4642.45
                             5453.47

 Zero-point correction=                           0.159385 (Hartree/Particle)
 Thermal correction to Energy=                    0.167313
 Thermal correction to Enthalpy=                  0.168257
 Thermal correction to Gibbs Free Energy=         0.127383
 Sum of electronic and zero-point Energies=           -422.989537
 Sum of electronic and thermal Energies=              -422.981609
 Sum of electronic and thermal Enthalpies=            -422.980665
 Sum of electronic and thermal Free Energies=         -423.021539

                     E (Thermal)             CV                S
                      KCal/Mol        Cal/Mol-Kelvin    Cal/Mol-Kelvin
 Total                  104.991             31.985             86.027
 Electronic               0.000              0.000              0.000
 Translational            0.889              2.981             40.409
 Rotational               0.889              2.981             28.408
 Vibrational            103.213             26.023             17.210
 Vibration     1          0.605              1.946              3.381
 Vibration     2          0.644              1.819              2.006
 Vibration     3          0.650              1.803              1.918
 Vibration     4          0.675              1.725              1.583
 Vibration     5          0.716              1.606              1.237
 Vibration     6          0.725              1.581              1.178
 Vibration     7          0.759              1.488              0.994
 Vibration     8          0.812              1.353              0.785
 Vibration     9          0.827              1.316              0.737
 Vibration    10          0.896              1.160              0.564

 Optimization completed.
    -- Stationary point found.
 Normal termination of Gaussian 09 at Mon Jan 27 18:40:38 2020.
