 Gaussian 09, Revision D.01,
 Gaussian 09:  ES64L-G09RevD.01 24-Apr-2013

 -----------------------------
 # b3lyp 6-31G(2df,p) opt Freq
 -----------------------------

 -----
 titel
 -----
 Symbolic Z-matrix:
 Charge =  0 Multiplicity = 1

 SCF Done:  E(RB3LYP) =  -423.180820864     A.U. after   13 cycles
 Optimization completed.
    -- Stationary point found.
 Normal termination of Gaussian 09 at Tue Jan 28 03:45:04 2020.

 ----------------------------------------------------------------------
 #N Geom=AllCheck Guess=TCheck SCRF=Check GenChk RB3LYP/6-31G(2df,p) Fr
 eq
 ----------------------------------------------------------------------

 Structure from the checkpoint file:  "/scratch/puck/g09_a069fe01-ad5a-4d2e-b162-356bfe8967db/Gau-2721.chk"
 -----
 titel
 -----
 Charge =  0 Multiplicity = 1

                         Standard orientation:
 ---------------------------------------------------------------------
 Center     Atomic      Atomic             Coordinates (Angstroms)
 Number     Number       Type             X           Y           Z
 ---------------------------------------------------------------------
      1          6           0       -2.620513   -0.581797    0.064428
      2          6           0       -1.309036   -0.026192   -0.468477
      3          8           0       -0.963382    1.177213    0.262318
      4          6           0        0.409847    1.071437    0.524148
      5          8           0        1.126981    1.029308   -0.723108
      6          6           0        1.244536   -0.398820   -0.889590
      7          6           0        1.981008   -0.814971    0.401957
      8          6           0        0.638204   -0.374197    1.031437
      9          6           0       -0.085058   -0.921116   -0.244989
     10          1           0       -2.953143   -1.431394   -0.540962
     11          1           0       -2.513223   -0.912338    1.102173
     12          1           0       -3.395674    0.188898    0.030489
     13          1           0       -1.415158    0.234388   -1.529988
     14          1           0        0.725402    1.923728    1.124300
     15          1           0        1.574804   -0.634887   -1.900098
     16          1           0        2.144108   -1.891882    0.487908
     17          1           0        2.888064   -0.258788    0.648651
     18          1           0        0.327261   -0.599002    2.049774
     19          1           0       -0.245165   -1.996950   -0.299410
 ---------------------------------------------------------------------

 SCF Done:  E(RB3LYP) =  -423.180820864     A.U. after    1 cycles

 The electronic state is 1-A.
 Alpha  occ. eigenvalues --  -19.13588 -19.13551 -10.27085 -10.23930 -10.23164
 Alpha  occ. eigenvalues --  -10.19681 -10.19609 -10.18827 -10.17664  -1.07821
 Alpha  occ. eigenvalues --   -1.00013  -0.84271  -0.76609  -0.69936  -0.67864
 Alpha  occ. eigenvalues --   -0.60566  -0.57868  -0.54595  -0.53249  -0.49622
 Alpha  occ. eigenvalues --   -0.47502  -0.45045  -0.41552  -0.40297  -0.39401
 Alpha  occ. eigenvalues --   -0.37741  -0.37071  -0.35728  -0.34283  -0.32906
 Alpha  occ. eigenvalues --   -0.31645  -0.31503  -0.26048  -0.24266
 Alpha virt. eigenvalues --    0.09117   0.10594   0.11260   0.12459   0.13293
 Alpha virt. eigenvalues --    0.14006   0.14639   0.15545   0.15679   0.17160
 Alpha virt. eigenvalues --    0.17755   0.18163   0.19775   0.20288   0.21130

 Mulliken charges:
               1
     1  C   -0.406376
     2  C    0.120747
     3  O   -0.271109
     4  C    0.210951
     5  O   -0.285089
     6  C    0.074432
     7  C   -0.248215
     8  C   -0.102985
     9  C   -0.074089
    10  H    0.112851
    11  H    0.117427
    12  H    0.129674
    13  H    0.085320
    14  H    0.089698
    15  H    0.080788
    16  H    0.102127
    17  H    0.104052
    18  H    0.078920
    19  H    0.080876
 Sum of Mulliken charges =   0.00000

 Dipole moment (field-independent basis, Debye):
    X=              0.1487    Y=             -2.3976    Z=              0.4912  Tot=              2.4520
 Quadrupole moment (field-independent basis, Debye-Ang):
   XX=            -52.8784   YY=            -54.3719   ZZ=            -51.8259
   XY=              0.3454   XZ=              1.8837   YZ=              2.3164

  Exact polarizability:  84.261  -0.098  69.135   1.737   2.301  67.447
 Approx polarizability: 110.150   0.034 107.668   0.609   3.460 105.451

                      1                      2                      3
                      A                      A                      A
 Frequencies --    142.6747               224.7914               272.3570
 Red. masses --      3.3320                 1.0330                 2.5405
 Frc consts  --      0.0400                 0.0308                 0.1110
 IR Inten    --      0.9467                 0.1500                 0.4608

                      4                      5                      6
                      A                      A                      A
 Frequencies --    358.8844               439.2492               458.2165
 Red. masses --      3.6812                 3.9547                 2.2405
 Frc consts  --      0.2794                 0.4496                 0.2772
 IR Inten    --      1.8834                 1.4958                 2.1030

                      7                      8                      9
                      A                      A                      A
 Frequencies --    567.1907               603.6177               713.4654
 Red. masses --      4.2553                 5.6830                 3.5385
 Frc consts  --      0.8066                 1.2200                 1.0612
 IR Inten    --      4.4367                 2.7259                 3.1331

                     10                     11                     12
                      A                      A                      A
 Frequencies --    758.2608               824.4823               843.0956
 Red. masses --      4.8090                 2.2479                 2.6633
 Frc consts  --      1.6291                 0.9003                 1.1154
 IR Inten    --      1.1995                 2.4554                14.7307

                     13                     14                     15
                      A                      A                      A
 Frequencies --    851.4989               884.3921               890.1092
 Red. masses --      3.3444                 2.5140                 2.3585
 Frc consts  --      1.4287                 1.1585                 1.1010
 IR Inten    --     17.4680                26.5742                 7.4022

                     16                     17                     18
                      A                      A                      A
 Frequencies --    930.4061               943.6435               945.6191
 Red. masses --      2.8437                 1.9020                 1.9077
 Frc consts  --      1.4504                 0.9979                 1.0050
 IR Inten    --     22.6396                15.6247                 2.2666

                     19                     20                     21
                      A                      A                      A
 Frequencies --    978.4373              1013.2616              1039.9380
 Red. masses --      3.7036                 1.8310                 1.7153
 Frc consts  --      2.0890                 1.1076                 1.0930
 IR Inten    --     80.0356                 0.8026                 5.5908

                     22                     23                     24
                      A                      A                      A
 Frequencies --   1056.3721              1079.5815              1094.0245
 Red. masses --      2.4203                 2.5462                 1.5119
 Frc consts  --      1.5913                 1.7485                 1.0662
 IR Inten    --      3.3369                79.7354                24.3746

                     25                     26                     27
                      A                      A                      A
 Frequencies --   1111.9380              1132.8845              1143.4390
 Red. masses --      1.9292                 1.8784                 2.0596
 Frc consts  --      1.4054                 1.4204                 1.5866
 IR Inten    --      6.0129                33.9340                 2.4294

                     28                     29                     30
                      A                      A                      A
 Frequencies --   1189.1874              1229.5707              1244.5051
 Red. masses --      1.6180                 1.7728                 1.4138
 Frc consts  --      1.3481                 1.5791                 1.2901
 IR Inten    --      9.0427                13.8878                 0.3050

                     31                     32                     33
                      A                      A                      A
 Frequencies --   1253.1746              1272.4501              1297.0503
 Red. masses --      1.4362                 1.5836                 1.3395
 Frc consts  --      1.3289                 1.5107                 1.3277
 IR Inten    --      5.8391                 5.5477                 1.9637

                     34                     35                     36
                      A                      A                      A
 Frequencies --   1316.4243              1344.0722              1362.7805
 Red. masses --      1.5861                 1.4585                 1.4486
 Frc consts  --      1.6195                 1.5524                 1.5851
 IR Inten    --      4.5158                 9.4873                25.1817

                     37                     38                     39
                      A                      A                      A
 Frequencies --   1387.7324              1408.2274              1486.5767
 Red. masses --      1.4662                 1.3299                 1.0581
 Frc consts  --      1.6637                 1.5538                 1.3777
 IR Inten    --      7.8854                10.3501                 2.6603

                     40                     41                     42
                      A                      A                      A
 Frequencies --   1490.8533              1496.6488              3014.6447
 Red. masses --      1.1249                 1.0487                 1.0841
 Frc consts  --      1.4731                 1.3841                 5.8051
 IR Inten    --      1.3831                 2.8170                35.2019

                     43                     44                     45
                      A                      A                      A
 Frequencies --   3037.7017              3065.0815              3110.2402
 Red. masses --      1.0350                 1.0560                 1.1015
 Frc consts  --      5.6271                 5.8453                 6.2779
 IR Inten    --     17.7765                33.9175                22.5054

                     46                     47                     48
                      A                      A                      A
 Frequencies --   3118.0463              3126.9677              3129.4129
 Red. masses --      1.1017                 1.0983                 1.1002
 Frc consts  --      6.3107                 6.3270                 6.3481
 IR Inten    --     18.1423                 1.4681                22.6681

                     49                     50                     51
                      A                      A                      A
 Frequencies --   3133.9601              3135.7194              3144.7512
 Red. masses --      1.0900                 1.0893                 1.0947
 Frc consts  --      6.3075                 6.3105                 6.3786
 IR Inten    --     29.3556                78.4675                10.9184

 - Thermochemistry -
 -------------------
 Temperature   298.150 Kelvin.  Pressure   1.00000 Atm.
 Atom     1 has atomic number  6 and mass  12.00000

 Molecular mass:   126.06808 amu.
 Principal axes and moments of inertia in atomic units:
                           1         2         3
     Eigenvalues --   527.643451106.634271248.01057
           X            0.99989   0.00913   0.01173
           Y           -0.00943   0.99962   0.02583
           Z           -0.01149  -0.02594   0.99960
 This molecule is an asymmetric top.
 Rotational symmetry number  1.
 Warning -- assumption of classical behavior for rotation
           may cause significant error
 Rotational temperatures (Kelvin)      0.16415     0.07827     0.06940
 Rotational constants (GHZ):           3.42038     1.63084     1.44609
 Zero-point vibrational energy     425258.1 (Joules/Mol)
                                  101.63914 (Kcal/Mol)
 Warning -- explicit consideration of   8 degrees of freedom as
           vibrations may cause significant error
 Vibrational temperatures:    205.28   323.42   391.86   516.35   631.98
          (Kelvin)            659.27   816.06   868.47  1026.52  1090.97
                             1186.24  1213.02  1225.12  1272.44  1280.67
                             1338.65  1357.69  1360.53  1407.75  1457.86
                             1496.24  1519.88  1553.28  1574.06  1599.83
                             1629.97  1645.15  1710.97  1769.08  1790.56
                             1803.04  1830.77  1866.16  1894.04  1933.82
                             1960.73  1996.63  2026.12  2138.85  2145.00
                             2153.34  4337.40  4370.57  4409.96  4474.94
                             4486.17  4499.00  4502.52  4509.06  4511.60
                             4524.59

 Zero-point correction=                           0.161972 (Hartree/Particle)
 Thermal correction to Energy=                    0.168711
 Thermal correction to Enthalpy=                  0.169655
 Thermal correction to Gibbs Free Energy=         0.131100
 Sum of electronic and zero-point Energies=           -423.018849
 Sum of electronic and thermal Energies=              -423.012110
 Sum of electronic and thermal Enthalpies=            -423.011166
 Sum of electronic and thermal Free Energies=         -423.049721

                     E (Thermal)             CV                S
                      KCal/Mol        Cal/Mol-Kelvin    Cal/Mol-Kelvin
 Total                  105.868             28.143             81.146
 Electronic               0.000              0.000              0.000
 Translational            0.889              2.981             40.409
 Rotational               0.889              2.981             28.079
 Vibrational            104.090             22.181             12.658
 Vibration     1          0.616              1.911              2.768
 Vibration     2          0.649              1.803              1.920
 Vibration     3          0.675              1.724              1.581
 Vibration     4          0.734              1.557              1.127
 Vibration     5          0.799              1.385              0.829
 Vibration     6          0.816              1.343              0.771
 Vibration     7          0.923              1.102              0.510
 Vibration     8          0.962              1.024              0.443

 Normal termination of Gaussian 09 at Tue Jan 28 04:29:54 2020.
