 Gaussian 09, Revision D.01,
 Gaussian 09:  ES64L-G09RevD.01 24-Apr-2013

 -----------------------------
 # b3lyp 6-31G(2df,p) opt Freq
 -----------------------------

 -----
 titel
 -----
 Symbolic Z-matrix:
 Charge =  0 Multiplicity = 1

 SCF Done:  E(RB3LYP) =  -423.190769701     A.U. after   14 cycles
 Optimization completed.
    -- Stationary point found.
 Normal termination of Gaussian 09 at Mon Jan 27 22:04:01 2020.

 ----------------------------------------------------------------------
 #N Geom=AllCheck Guess=TCheck SCRF=Check GenChk RB3LYP/6-31G(2df,p) Fr
 eq
 ----------------------------------------------------------------------

 Structure from the checkpoint file:  "/scratch/puck/g09_ab947f1f-eb13-4d2e-bec4-f61d7765bafe/Gau-53201.chk"
 -----
 titel
 -----
 Charge =  0 Multiplicity = 1

                         Standard orientation:
 ---------------------------------------------------------------------
 Center     Atomic      Atomic             Coordinates (Angstroms)
 Number     Number       Type             X           Y           Z
 ---------------------------------------------------------------------
      1          6           0        0.646582    1.920066   -0.320024
      2          6           0       -0.147243    0.691707    0.052989
      3          6           0       -1.580942    0.876319    0.553698
      4          6           0       -2.264916   -0.472508    0.241348
      5          8           0       -1.482425   -1.101998   -0.782189
      6          6           0       -0.203705   -0.562351   -0.729592
      7          6           0        0.538777   -0.574289    0.631302
      8          6           0        1.998281   -0.760489    0.576966
      9          8           0        2.727954   -0.345887   -0.299670
     10          1           0        1.619583    1.652051   -0.732781
     11          1           0        0.097026    2.507659   -1.064141
     12          1           0        0.811111    2.559454    0.554449
     13          1           0       -1.646187    1.134078    1.614745
     14          1           0       -2.038771    1.691979   -0.016278
     15          1           0       -2.296318   -1.118344    1.128466
     16          1           0       -3.285786   -0.368856   -0.134596
     17          1           0        0.393277   -0.755698   -1.612782
     18          1           0        0.045922   -1.066712    1.463439
     19          1           0        2.414908   -1.363263    1.414226
 ---------------------------------------------------------------------

 SCF Done:  E(RB3LYP) =  -423.190769701     A.U. after    1 cycles

 The electronic state is 1-A.
 Alpha  occ. eigenvalues --  -19.15582 -19.12967 -10.26641 -10.24821 -10.24015
 Alpha  occ. eigenvalues --  -10.21526 -10.20009 -10.19917 -10.17941  -1.05891
 Alpha  occ. eigenvalues --   -1.03599  -0.86749  -0.77133  -0.71961  -0.68086
 Alpha  occ. eigenvalues --   -0.62760  -0.57639  -0.53925  -0.51524  -0.47925
 Alpha  occ. eigenvalues --   -0.46425  -0.44675  -0.43949  -0.42939  -0.41165
 Alpha  occ. eigenvalues --   -0.40139  -0.38715  -0.37704  -0.35638  -0.34438
 Alpha  occ. eigenvalues --   -0.33313  -0.28431  -0.25457  -0.23682
 Alpha virt. eigenvalues --   -0.02264   0.07857   0.09367   0.11350   0.11807
 Alpha virt. eigenvalues --    0.12574   0.14424   0.15202   0.15613   0.17148
 Alpha virt. eigenvalues --    0.18016   0.18921   0.19929   0.20915   0.22626

 Mulliken charges:
               1
     1  C   -0.494019
     2  C    0.271553
     3  C   -0.292542
     4  C   -0.098080
     5  O   -0.253921
     6  C    0.101219
     7  C   -0.228724
     8  C    0.129356
     9  O   -0.284496
    10  H    0.163633
    11  H    0.116539
    12  H    0.117190
    13  H    0.111619
    14  H    0.115554
    15  H    0.107768
    16  H    0.118050
    17  H    0.130505
    18  H    0.090813
    19  H    0.077982
 Sum of Mulliken charges =   0.00000

 Dipole moment (field-independent basis, Debye):
    X=             -2.3670    Y=              0.8149    Z=              1.9245  Tot=              3.1576
 Quadrupole moment (field-independent basis, Debye-Ang):
   XX=            -58.8941   YY=            -53.2191   ZZ=            -51.8922
   XY=             -2.2041   XZ=              0.5998   YZ=             -2.3025

  Exact polarizability:  93.255  -3.063  71.999   0.245  -5.000  66.838
 Approx polarizability: 130.787  -1.844 103.892  -1.205  -5.811 109.211

                      1                      2                      3
                      A                      A                      A
 Frequencies --    123.2060               181.0078               188.6169
 Red. masses --      4.7270                 3.3087                 2.0301
 Frc consts  --      0.0423                 0.0639                 0.0426
 IR Inten    --      8.3247                 1.0714                 2.0637

                      4                      5                      6
                      A                      A                      A
 Frequencies --    200.2163               229.0547               249.9030
 Red. masses --      1.6129                 1.3266                 4.6510
 Frc consts  --      0.0381                 0.0410                 0.1711
 IR Inten    --      4.3010                 3.1557                 9.7032

                      7                      8                      9
                      A                      A                      A
 Frequencies --    326.7470               344.5032               405.2010
 Red. masses --      3.1456                 2.5198                 3.1161
 Frc consts  --      0.1979                 0.1762                 0.3014
 IR Inten    --      1.0090                 3.4352                 2.6546

                     10                     11                     12
                      A                      A                      A
 Frequencies --    589.3432               654.9087               684.3604
 Red. masses --      3.9041                 3.3209                 4.9216
 Frc consts  --      0.7989                 0.8392                 1.3581
 IR Inten    --     10.1520                 8.3973                 1.8138

                     13                     14                     15
                      A                      A                      A
 Frequencies --    733.7926               845.1969               865.8710
 Red. masses --      3.7656                 1.7183                 4.2302
 Frc consts  --      1.1946                 0.7232                 1.8686
 IR Inten    --      7.3759                 7.2782                60.1065

                     16                     17                     18
                      A                      A                      A
 Frequencies --    898.9830               934.0188               956.5236
 Red. masses --      2.6804                 1.9185                 2.5968
 Frc consts  --      1.2763                 0.9861                 1.3999
 IR Inten    --     31.5575                31.6630                14.3489

                     19                     20                     21
                      A                      A                      A
 Frequencies --    991.4098              1001.3657              1031.4112
 Red. masses --      2.5931                 1.4599                 1.6685
 Frc consts  --      1.5016                 0.8625                 1.0458
 IR Inten    --     46.6800                12.5503                55.7000

                     22                     23                     24
                      A                      A                      A
 Frequencies --   1053.2967              1071.8143              1082.7050
 Red. masses --      1.5317                 1.7893                 1.5072
 Frc consts  --      1.0012                 1.2111                 1.0410
 IR Inten    --      4.3808                45.9810                 4.0217

                     25                     26                     27
                      A                      A                      A
 Frequencies --   1140.5660              1149.9233              1219.3519
 Red. masses --      1.9168                 4.7480                 1.2468
 Frc consts  --      1.4691                 3.6992                 1.0922
 IR Inten    --     21.2397                55.1883                 4.7686

                     28                     29                     30
                      A                      A                      A
 Frequencies --   1227.7852              1243.2664              1269.2147
 Red. masses --      1.5945                 1.8851                 1.4385
 Frc consts  --      1.4162                 1.7168                 1.3653
 IR Inten    --     17.6511                 3.0779                 2.1888

                     31                     32                     33
                      A                      A                      A
 Frequencies --   1294.3708              1352.5845              1384.3100
 Red. masses --      1.3103                 1.6436                 1.4435
 Frc consts  --      1.2934                 1.7717                 1.6298
 IR Inten    --      4.5640                40.5657                13.5834

                     34                     35                     36
                      A                      A                      A
 Frequencies --   1415.7478              1430.1200              1442.7700
 Red. masses --      1.2430                 1.4039                 2.0367
 Frc consts  --      1.4679                 1.6918                 2.4979
 IR Inten    --      8.2286                37.7903                37.3956

                     37                     38                     39
                      A                      A                      A
 Frequencies --   1488.9552              1499.4182              1508.6410
 Red. masses --      1.0838                 1.1403                 1.0469
 Frc consts  --      1.4157                 1.5104                 1.4038
 IR Inten    --      2.5307                 8.6304                 3.7650

                     40                     41                     42
                      A                      A                      A
 Frequencies --   1527.9393              1783.9133              2880.8123
 Red. masses --      1.0894                 8.9872                 1.0827
 Frc consts  --      1.4985                16.8508                 5.2939
 IR Inten    --      0.7398               171.4290               153.9219

                     43                     44                     45
                      A                      A                      A
 Frequencies --   3017.5886              3031.4677              3046.6541
 Red. masses --      1.0701                 1.0396                 1.0609
 Frc consts  --      5.7408                 5.6290                 5.8021
 IR Inten    --     45.3111                25.9234                31.9479

                     46                     47                     48
                      A                      A                      A
 Frequencies --   3086.7287              3088.2811              3100.2716
 Red. masses --      1.0997                 1.0973                 1.1027
 Frc consts  --      6.1733                 6.1661                 6.2444
 IR Inten    --     18.7014                21.8046                37.5672

                     49                     50                     51
                      A                      A                      A
 Frequencies --   3147.2021              3163.6313              3197.8455
 Red. masses --      1.0971                 1.0888                 1.0920
 Frc consts  --      6.4022                 6.4206                 6.5797
 IR Inten    --      1.0905                 9.8683                 2.9957

 - Thermochemistry -
 -------------------
 Temperature   298.150 Kelvin.  Pressure   1.00000 Atm.
 Atom     1 has atomic number  6 and mass  12.00000

 Molecular mass:   126.06808 amu.
 Principal axes and moments of inertia in atomic units:
                           1         2         3
     Eigenvalues --   597.261231356.090911635.81254
           X            0.99995  -0.00219  -0.00963
           Y            0.00170   0.99869  -0.05112
           Z            0.00973   0.05110   0.99865
 This molecule is an asymmetric top.
 Rotational symmetry number  1.
 Warning -- assumption of classical behavior for rotation
           may cause significant error
 Rotational temperatures (Kelvin)      0.14502     0.06387     0.05295
 Rotational constants (GHZ):           3.02169     1.33084     1.10327
 Zero-point vibrational energy     417393.9 (Joules/Mol)
                                   99.75955 (Kcal/Mol)
 Warning -- explicit consideration of  10 degrees of freedom as
           vibrations may cause significant error
 Vibrational temperatures:    177.27   260.43   271.38   288.07   329.56
          (Kelvin)            359.55   470.12   495.66   582.99   847.93
                              942.27   984.64  1055.76  1216.05  1245.79
                             1293.43  1343.84  1376.22  1426.42  1440.74
                             1483.97  1515.46  1542.10  1557.77  1641.02
                             1654.48  1754.37  1766.51  1788.78  1826.11
                             1862.31  1946.06  1991.71  2036.94  2057.62
                             2075.82  2142.27  2157.33  2170.60  2198.36
                             2566.65  4144.84  4341.63  4361.60  4383.45
                             4441.11  4443.34  4460.59  4528.12  4551.75
                             4600.98

 Zero-point correction=                           0.158977 (Hartree/Particle)
 Thermal correction to Energy=                    0.167443
 Thermal correction to Enthalpy=                  0.168387
 Thermal correction to Gibbs Free Energy=         0.126158
 Sum of electronic and zero-point Energies=           -423.031793
 Sum of electronic and thermal Energies=              -423.023326
 Sum of electronic and thermal Enthalpies=            -423.022382
 Sum of electronic and thermal Free Energies=         -423.064611

                     E (Thermal)             CV                S
                      KCal/Mol        Cal/Mol-Kelvin    Cal/Mol-Kelvin
 Total                  105.072             32.022             88.879
 Electronic               0.000              0.000              0.000
 Translational            0.889              2.981             40.409
 Rotational               0.889              2.981             28.673
 Vibrational            103.295             26.060             19.797
 Vibration     1          0.610              1.930              3.049
 Vibration     2          0.630              1.866              2.318
 Vibration     3          0.633              1.856              2.241
 Vibration     4          0.638              1.840              2.131
 Vibration     5          0.652              1.797              1.886
 Vibration     6          0.663              1.763              1.731
 Vibration     7          0.710              1.622              1.276
 Vibration     8          0.723              1.586              1.191
 Vibration     9          0.770              1.459              0.944
 Vibration    10          0.947              1.055              0.468

 Optimization completed.
    -- Stationary point found.
 Normal termination of Gaussian 09 at Mon Jan 27 22:53:26 2020.
