 Gaussian 09, Revision D.01,
 Gaussian 09:  ES64L-G09RevD.01 24-Apr-2013

 -----------------------------
 # b3lyp 6-31G(2df,p) opt Freq
 -----------------------------

 -----
 titel
 -----
 Symbolic Z-matrix:
 Charge =  0 Multiplicity = 1

 SCF Done:  E(RB3LYP) =  -423.116314935     A.U. after   14 cycles
 Optimization completed.
    -- Stationary point found.
 Normal termination of Gaussian 09 at Tue Jan 28 02:55:30 2020.

 ----------------------------------------------------------------------
 #N Geom=AllCheck Guess=TCheck SCRF=Check GenChk RB3LYP/6-31G(2df,p) Fr
 eq
 ----------------------------------------------------------------------

 Structure from the checkpoint file:  "/scratch/puck/g09_68333661-17c5-41c4-8584-baf181ce2ed8/Gau-11261.chk"
 -----
 titel
 -----
 Charge =  0 Multiplicity = 1

                         Standard orientation:
 ---------------------------------------------------------------------
 Center     Atomic      Atomic             Coordinates (Angstroms)
 Number     Number       Type             X           Y           Z
 ---------------------------------------------------------------------
      1          8           0        2.809747    0.423686   -0.095477
      2          6           0        1.538974    0.066050    0.379875
      3          6           0        1.048591   -1.332599   -0.163969
      4          6           0       -0.338657   -0.689788   -0.166181
      5          6           0       -1.244531   -0.598519    1.080046
      6          6           0       -1.968351    0.313861    0.082299
      7          6           0       -0.977185    1.539232    0.020033
      8          6           0        0.274782    0.690431   -0.317371
      9          8           0       -1.545970   -0.619688   -0.989278
     10          1           0        3.020955    1.301352    0.239355
     11          1           0        1.489464    0.102855    1.476105
     12          1           0        1.459248   -1.480071   -1.165900
     13          1           0        1.213791   -2.221551    0.447307
     14          1           0       -1.774204   -1.536701    1.249747
     15          1           0       -0.858161   -0.177165    2.012378
     16          1           0       -3.042106    0.497880    0.088172
     17          1           0       -1.219416    2.252820   -0.770058
     18          1           0       -0.967156    2.071172    0.975917
     19          1           0        0.565626    0.825423   -1.363377
 ---------------------------------------------------------------------

 SCF Done:  E(RB3LYP) =  -423.116314935     A.U. after    1 cycles

 The electronic state is 1-A.
 Alpha  occ. eigenvalues --  -19.14229 -19.13166 -10.24623 -10.23904 -10.23365
 Alpha  occ. eigenvalues --  -10.19068 -10.18821 -10.18508 -10.17487  -1.04140
 Alpha  occ. eigenvalues --   -1.02582  -0.84479  -0.76644  -0.71172  -0.64728
 Alpha  occ. eigenvalues --   -0.62372  -0.56885  -0.53445  -0.52520  -0.48717
 Alpha  occ. eigenvalues --   -0.46553  -0.44286  -0.43705  -0.40890  -0.39247
 Alpha  occ. eigenvalues --   -0.37487  -0.36168  -0.34507  -0.33575  -0.32025
 Alpha  occ. eigenvalues --   -0.30198  -0.29211  -0.26639  -0.23475
 Alpha virt. eigenvalues --    0.07098   0.08721   0.10099   0.10732   0.12070
 Alpha virt. eigenvalues --    0.13388   0.13562   0.14726   0.16328   0.16473
 Alpha virt. eigenvalues --    0.16856   0.17929   0.19978   0.21177   0.21782

 Mulliken charges:
               1
     1  O   -0.423228
     2  C    0.074023
     3  C   -0.377502
     4  C    0.433716
     5  C   -0.272115
     6  C    0.067425
     7  C   -0.309194
     8  C   -0.018722
     9  O   -0.354755
    10  H    0.283909
    11  H    0.074151
    12  H    0.130980
    13  H    0.105975
    14  H    0.108969
    15  H    0.092501
    16  H    0.082104
    17  H    0.106904
    18  H    0.102489
    19  H    0.092370
 Sum of Mulliken charges =   0.00000

 Dipole moment (field-independent basis, Debye):
    X=              0.1672    Y=              1.5290    Z=              2.1534  Tot=              2.6463
 Quadrupole moment (field-independent basis, Debye-Ang):
   XX=            -55.4573   YY=            -50.2946   ZZ=            -53.8803
   XY=              0.9307   XZ=             -0.7553   YZ=             -0.5561

  Exact polarizability:  85.522  -2.817  74.293  -1.725  -1.457  65.443
 Approx polarizability: 117.479  -2.492 109.287  -0.069   1.156 105.251

                      1                      2                      3
                      A                      A                      A
 Frequencies --    155.6191               246.7565               277.2709
 Red. masses --      3.5547                 1.5132                 2.4025
 Frc consts  --      0.0507                 0.0543                 0.1088
 IR Inten    --      0.1415                51.1111                26.7344

                      4                      5                      6
                      A                      A                      A
 Frequencies --    307.7872               352.2667               402.5052
 Red. masses --      2.0786                 2.8069                 2.3697
 Frc consts  --      0.1160                 0.2052                 0.2262
 IR Inten    --     28.2380                11.4451                 0.9313

                      7                      8                      9
                      A                      A                      A
 Frequencies --    475.3537               523.6329               565.8618
 Red. masses --      2.7485                 3.9576                 3.0772
 Frc consts  --      0.3659                 0.6393                 0.5805
 IR Inten    --      9.5846                10.6082                 3.0255

                     10                     11                     12
                      A                      A                      A
 Frequencies --    669.2320               693.2083               778.7853
 Red. masses --      3.1348                 3.5635                 2.1473
 Frc consts  --      0.8272                 1.0089                 0.7673
 IR Inten    --      0.7823                 7.7311                 4.6849

                     13                     14                     15
                      A                      A                      A
 Frequencies --    788.7702               835.4306               858.5749
 Red. masses --      3.8996                 3.0395                 2.8255
 Frc consts  --      1.4295                 1.2499                 1.2272
 IR Inten    --     23.9441                 9.1403                 2.2093

                     16                     17                     18
                      A                      A                      A
 Frequencies --    880.5076               905.4952               949.4217
 Red. masses --      2.0221                 3.6430                 1.6588
 Frc consts  --      0.9237                 1.7599                 0.8810
 IR Inten    --      3.5301                 5.9113                25.7394

                     19                     20                     21
                      A                      A                      A
 Frequencies --    983.6262              1000.2688              1019.3963
 Red. masses --      2.3869                 2.2565                 1.7074
 Frc consts  --      1.3607                 1.3302                 1.0454
 IR Inten    --     10.0258                37.5745                26.3952

                     22                     23                     24
                      A                      A                      A
 Frequencies --   1054.8264              1067.9162              1093.5816
 Red. masses --      1.2886                 3.0472                 1.5479
 Frc consts  --      0.8447                 2.0475                 1.0907
 IR Inten    --      1.7724                13.2403                11.5404

                     25                     26                     27
                      A                      A                      A
 Frequencies --   1134.8565              1158.5903              1179.1273
 Red. masses --      2.0793                 1.6829                 1.7824
 Frc consts  --      1.5778                 1.3310                 1.4601
 IR Inten    --     61.9159                13.5109                 5.8239

                     28                     29                     30
                      A                      A                      A
 Frequencies --   1194.2114              1208.4595              1221.0158
 Red. masses --      2.3376                 1.3989                 1.5602
 Frc consts  --      1.9642                 1.2036                 1.3705
 IR Inten    --      1.5927                 2.1289                28.2742

                     31                     32                     33
                      A                      A                      A
 Frequencies --   1226.1958              1253.5265              1265.8667
 Red. masses --      1.2631                 1.4722                 1.8981
 Frc consts  --      1.1190                 1.3630                 1.7920
 IR Inten    --     22.4242                 2.5008                 8.3786

                     34                     35                     36
                      A                      A                      A
 Frequencies --   1287.7052              1294.4856              1321.0759
 Red. masses --      1.4803                 1.3069                 2.1743
 Frc consts  --      1.4463                 1.2903                 2.2357
 IR Inten    --     12.2671                54.8545                 4.6795

                     37                     38                     39
                      A                      A                      A
 Frequencies --   1375.0885              1428.3962              1478.7468
 Red. masses --      1.4425                 1.3481                 1.1175
 Frc consts  --      1.6071                 1.6206                 1.4398
 IR Inten    --     10.8485                 6.9221                 2.3962

                     40                     41                     42
                      A                      A                      A
 Frequencies --   1483.2458              1495.4406              3011.4863
 Red. masses --      1.1545                 1.1421                 1.0844
 Frc consts  --      1.4964                 1.5048                 5.7944
 IR Inten    --      3.4469                 2.5869                32.4536

                     43                     44                     45
                      A                      A                      A
 Frequencies --   3057.7344              3063.9152              3065.4404
 Red. masses --      1.0607                 1.0673                 1.0737
 Frc consts  --      5.8432                 5.9031                 5.9447
 IR Inten    --     24.0669                38.1427                16.4451

                     46                     47                     48
                      A                      A                      A
 Frequencies --   3074.0678              3116.3402              3131.2433
 Red. masses --      1.0609                 1.1045                 1.0943
 Frc consts  --      5.9069                 6.3200                 6.3216
 IR Inten    --     23.8131                24.1142                39.7541

                     49                     50                     51
                      A                      A                      A
 Frequencies --   3135.6272              3139.3190              3813.2782
 Red. masses --      1.1092                 1.1037                 1.0660
 Frc consts  --      6.4257                 6.4085                 9.1326
 IR Inten    --     19.5886                33.6007                24.5644

 - Thermochemistry -
 -------------------
 Temperature   298.150 Kelvin.  Pressure   1.00000 Atm.
 Atom     1 has atomic number  8 and mass  15.99491

 Molecular mass:   126.06808 amu.
 Principal axes and moments of inertia in atomic units:
                           1         2         3
     Eigenvalues --   512.806701293.892161476.59877
           X            0.99979  -0.01720  -0.01137
           Y            0.01680   0.99926  -0.03471
           Z            0.01196   0.03451   0.99933
 This molecule is an asymmetric top.
 Rotational symmetry number  1.
 Warning -- assumption of classical behavior for rotation
           may cause significant error
 Rotational temperatures (Kelvin)      0.16890     0.06694     0.05866
 Rotational constants (GHZ):           3.51934     1.39482     1.22223
 Zero-point vibrational energy     421687.1 (Joules/Mol)
                                  100.78564 (Kcal/Mol)
 Warning -- explicit consideration of   9 degrees of freedom as
           vibrations may cause significant error
 Vibrational temperatures:    223.90   355.03   398.93   442.84   506.83
          (Kelvin)            579.11   683.93   753.39   814.15   962.87
                              997.37  1120.50  1134.86  1202.00  1235.30
                             1266.85  1302.80  1366.00  1415.22  1439.16
                             1466.68  1517.66  1536.49  1573.42  1632.80
                             1666.95  1696.50  1718.20  1738.70  1756.77
                             1764.22  1803.54  1821.30  1852.72  1862.47
                             1900.73  1978.44  2055.14  2127.58  2134.06
                             2151.60  4332.85  4399.39  4408.29  4410.48
                             4422.89  4483.71  4505.16  4511.46  4516.77
                             5486.45

 Zero-point correction=                           0.160612 (Hartree/Particle)
 Thermal correction to Energy=                    0.167828
 Thermal correction to Enthalpy=                  0.168772
 Thermal correction to Gibbs Free Energy=         0.129397
 Sum of electronic and zero-point Energies=           -422.955703
 Sum of electronic and thermal Energies=              -422.948487
 Sum of electronic and thermal Enthalpies=            -422.947543
 Sum of electronic and thermal Free Energies=         -422.986918

                     E (Thermal)             CV                S
                      KCal/Mol        Cal/Mol-Kelvin    Cal/Mol-Kelvin
 Total                  105.314             30.105             82.872
 Electronic               0.000              0.000              0.000
 Translational            0.889              2.981             40.409
 Rotational               0.889              2.981             28.373
 Vibrational            103.536             24.144             14.090
 Vibration     1          0.620              1.896              2.602
 Vibration     2          0.661              1.768              1.754
 Vibration     3          0.678              1.715              1.550
 Vibration     4          0.698              1.659              1.374
 Vibration     5          0.729              1.571              1.156
 Vibration     6          0.768              1.465              0.953
 Vibration     7          0.832              1.305              0.723
 Vibration     8          0.879              1.198              0.602
 Vibration     9          0.922              1.105              0.512

 Optimization completed.
    -- Stationary point found.
 Normal termination of Gaussian 09 at Tue Jan 28 03:46:30 2020.
