 Gaussian 09, Revision D.01,
 Gaussian 09:  ES64L-G09RevD.01 24-Apr-2013

 -----------------------------
 # b3lyp 6-31G(2df,p) opt Freq
 -----------------------------

 -----
 titel
 -----
 Symbolic Z-matrix:
 Charge =  0 Multiplicity = 1

 SCF Done:  E(RB3LYP) =  -423.140877829     A.U. after   12 cycles
 Optimization completed.
    -- Stationary point found.
 Normal termination of Gaussian 09 at Mon Jan 27 17:14:09 2020.

 ----------------------------------------------------------------------
 #N Geom=AllCheck Guess=TCheck SCRF=Check GenChk RB3LYP/6-31G(2df,p) Fr
 eq
 ----------------------------------------------------------------------

 Structure from the checkpoint file:  "/scratch/puck/g09_5c741469-3a69-4855-9a23-5a41ad974102/Gau-39521.chk"
 -----
 titel
 -----
 Charge =  0 Multiplicity = 1

                         Standard orientation:
 ---------------------------------------------------------------------
 Center     Atomic      Atomic             Coordinates (Angstroms)
 Number     Number       Type             X           Y           Z
 ---------------------------------------------------------------------
      1          8           0       -0.410876    2.086217   -0.272312
      2          6           0       -0.483588    0.729275   -0.003057
      3          6           0       -0.907967    0.090527    1.364299
      4          6           0       -0.313666   -1.159084    0.664796
      5          8           0       -1.227819   -1.390843   -0.426137
      6          6           0       -1.385739   -0.060026   -0.963747
      7          6           0        0.733246   -0.229121    0.048364
      8          6           0        2.121531    0.084411    0.491906
      9          6           0        1.849103   -0.459269   -0.904854
     10          1           0        0.127363    2.501872    0.409362
     11          1           0       -0.300163    0.443739    2.199702
     12          1           0       -1.970141    0.063320    1.617669
     13          1           0       -0.083160   -2.093015    1.172321
     14          1           0       -1.033543   -0.017386   -2.000330
     15          1           0       -2.435261    0.251693   -0.920671
     16          1           0        2.417031    1.127566    0.573252
     17          1           0        2.605792   -0.568196    1.211837
     18          1           0        1.958279    0.227287   -1.739435
     19          1           0        2.145841   -1.480164   -1.122353
 ---------------------------------------------------------------------

 SCF Done:  E(RB3LYP) =  -423.140877829     A.U. after    1 cycles

 The electronic state is 1-A.
 Alpha  occ. eigenvalues --  -19.15420 -19.13178 -10.24623 -10.23697 -10.22059
 Alpha  occ. eigenvalues --  -10.19349 -10.19272 -10.18593 -10.18348  -1.04876
 Alpha  occ. eigenvalues --   -1.02779  -0.86807  -0.79822  -0.71883  -0.63177
 Alpha  occ. eigenvalues --   -0.60428  -0.57547  -0.57058  -0.52191  -0.48684
 Alpha  occ. eigenvalues --   -0.48254  -0.45461  -0.43073  -0.39713  -0.39002
 Alpha  occ. eigenvalues --   -0.38237  -0.37028  -0.36786  -0.35755  -0.30957
 Alpha  occ. eigenvalues --   -0.29480  -0.28363  -0.26348  -0.23661
 Alpha virt. eigenvalues --    0.06112   0.09259   0.10443   0.11181   0.12024
 Alpha virt. eigenvalues --    0.13027   0.14989   0.15585   0.16974   0.17991
 Alpha virt. eigenvalues --    0.18500   0.19150   0.21224   0.22036   0.22657

 Mulliken charges:
               1
     1  O   -0.477048
     2  C    0.268306
     3  C   -0.302745
     4  C   -0.002932
     5  O   -0.277008
     6  C   -0.096655
     7  C    0.385342
     8  C   -0.371621
     9  C   -0.360626
    10  H    0.285813
    11  H    0.098558
    12  H    0.100977
    13  H    0.084540
    14  H    0.105412
    15  H    0.102164
    16  H    0.102757
    17  H    0.116635
    18  H    0.118573
    19  H    0.119559
 Sum of Mulliken charges =   0.00000

 Dipole moment (field-independent basis, Debye):
    X=              1.4318    Y=              0.9285    Z=              1.5418  Tot=              2.2998
 Quadrupole moment (field-independent basis, Debye-Ang):
   XX=            -53.9553   YY=            -54.1179   ZZ=            -51.5677
   XY=             -0.7233   XZ=              0.1132   YZ=              0.9354

  Exact polarizability:  82.096  -0.707  69.897   0.487   0.138  73.223
 Approx polarizability: 112.380   0.734 106.941   2.660   0.319 109.325

                      1                      2                      3
                      A                      A                      A
 Frequencies --    169.7009               186.6311               218.9757
 Red. masses --      3.4541                 3.3102                 2.1360
 Frc consts  --      0.0586                 0.0679                 0.0603
 IR Inten    --      0.9503                 1.1404                 0.3062

                      4                      5                      6
                      A                      A                      A
 Frequencies --    291.3040               319.2284               365.5856
 Red. masses --      1.3014                 2.1827                 3.4667
 Frc consts  --      0.0651                 0.1311                 0.2730
 IR Inten    --     47.8713                63.3601                 4.5890

                      7                      8                      9
                      A                      A                      A
 Frequencies --    421.4338               456.6079               580.4309
 Red. masses --      2.6744                 2.6108                 2.8694
 Frc consts  --      0.2799                 0.3207                 0.5696
 IR Inten    --      3.4542                 0.4064                 1.2337

                     10                     11                     12
                      A                      A                      A
 Frequencies --    622.1807               636.8029               685.6137
 Red. masses --      5.2485                 3.4570                 3.1975
 Frc consts  --      1.1971                 0.8260                 0.8856
 IR Inten    --      0.4192                 5.4015                 3.8396

                     13                     14                     15
                      A                      A                      A
 Frequencies --    782.4429               808.8161               887.8975
 Red. masses --      1.0966                 2.5158                 2.6406
 Frc consts  --      0.3956                 0.9697                 1.2265
 IR Inten    --      0.4950                 0.5802                 2.4551

                     16                     17                     18
                      A                      A                      A
 Frequencies --    904.1002               921.7169               938.6481
 Red. masses --      2.8269                 1.5193                 1.7392
 Frc consts  --      1.3614                 0.7605                 0.9028
 IR Inten    --     25.9589                 1.8648                15.3182

                     19                     20                     21
                      A                      A                      A
 Frequencies --    963.9089               978.3907              1000.3646
 Red. masses --      1.7893                 2.6264                 6.4941
 Frc consts  --      0.9795                 1.4813                 3.8290
 IR Inten    --     12.1305                 7.6450                64.2523

                     22                     23                     24
                      A                      A                      A
 Frequencies --   1021.1676              1049.6338              1079.9851
 Red. masses --      3.4173                 1.4076                 1.4620
 Frc consts  --      2.0996                 0.9137                 1.0047
 IR Inten    --     25.0128                 4.4784                 0.0774

                     25                     26                     27
                      A                      A                      A
 Frequencies --   1081.6131              1090.0578              1123.2208
 Red. masses --      1.6163                 1.9787                 1.4760
 Frc consts  --      1.1141                 1.3853                 1.0971
 IR Inten    --     15.4475                13.0483                23.8056

                     28                     29                     30
                      A                      A                      A
 Frequencies --   1154.5550              1179.9249              1183.4388
 Red. masses --      1.7719                 1.2499                 1.2414
 Frc consts  --      1.3916                 1.0252                 1.0244
 IR Inten    --     13.9393                 1.9520                 2.3145

                     31                     32                     33
                      A                      A                      A
 Frequencies --   1207.4433              1234.5329              1266.0712
 Red. masses --      1.6564                 2.1961                 1.4803
 Frc consts  --      1.4228                 1.9720                 1.3981
 IR Inten    --      8.0749                 8.0264                12.2777

                     34                     35                     36
                      A                      A                      A
 Frequencies --   1291.7918              1348.0984              1400.0388
 Red. masses --      2.3466                 1.5017                 2.0759
 Frc consts  --      2.3071                 1.6080                 2.3973
 IR Inten    --    143.3463                29.2487                 2.3059

                     37                     38                     39
                      A                      A                      A
 Frequencies --   1414.6744              1460.9678              1483.7846
 Red. masses --      2.0130                 1.0887                 1.1600
 Frc consts  --      2.3736                 1.3691                 1.5047
 IR Inten    --     15.2663                 1.3457                 3.4093

                     40                     41                     42
                      A                      A                      A
 Frequencies --   1512.0084              1527.3541              3030.3156
 Red. masses --      1.7173                 1.1697                 1.0552
 Frc consts  --      2.3132                 1.6077                 5.7088
 IR Inten    --      2.0705                 2.0940                59.4806

                     43                     44                     45
                      A                      A                      A
 Frequencies --   3067.7448              3075.8949              3110.0318
 Red. masses --      1.0566                 1.1099                 1.0538
 Frc consts  --      5.8588                 6.1871                 6.0052
 IR Inten    --     17.8711                40.0617                21.5518

                     46                     47                     48
                      A                      A                      A
 Frequencies --   3122.6461              3137.2628              3151.5551
 Red. masses --      1.0550                 1.1109                 1.0926
 Frc consts  --      6.0612                 6.4421                 6.3938
 IR Inten    --     13.9447                25.2434                29.1162

                     49                     50                     51
                      A                      A                      A
 Frequencies --   3190.1680              3209.2090              3813.9607
 Red. masses --      1.1160                 1.1153                 1.0659
 Frc consts  --      6.6918                 6.7674                 9.1351
 IR Inten    --      3.9646                12.7959                20.7114

 - Thermochemistry -
 -------------------
 Temperature   298.150 Kelvin.  Pressure   1.00000 Atm.
 Atom     1 has atomic number  8 and mass  15.99491

 Molecular mass:   126.06808 amu.
 Principal axes and moments of inertia in atomic units:
                           1         2         3
     Eigenvalues --   774.71195 975.638641209.76632
           X            0.99946  -0.03213  -0.00679
           Y            0.03220   0.99943   0.01048
           Z            0.00644  -0.01070   0.99992
 This molecule is an asymmetric top.
 Rotational symmetry number  1.
 Warning -- assumption of classical behavior for rotation
           may cause significant error
 Rotational temperatures (Kelvin)      0.11180     0.08878     0.07160
 Rotational constants (GHZ):           2.32956     1.84980     1.49181
 Zero-point vibrational energy     419649.6 (Joules/Mol)
                                  100.29866 (Kcal/Mol)
 Warning -- explicit consideration of   9 degrees of freedom as
           vibrations may cause significant error
 Vibrational temperatures:    244.16   268.52   315.06   419.12   459.30
          (Kelvin)            526.00   606.35   656.96   835.11   895.18
                              916.22   986.44  1125.76  1163.70  1277.48
                             1300.80  1326.14  1350.50  1386.85  1407.68
                             1439.30  1469.23  1510.19  1553.86  1556.20
                             1568.35  1616.06  1661.15  1697.65  1702.70
                             1737.24  1776.22  1821.59  1858.60  1939.61
                             2014.34  2035.40  2102.00  2134.83  2175.44
                             2197.52  4359.94  4413.80  4425.52  4474.64
                             4492.79  4513.82  4534.38  4589.93  4617.33
                             5487.43

 Zero-point correction=                           0.159836 (Hartree/Particle)
 Thermal correction to Energy=                    0.167497
 Thermal correction to Enthalpy=                  0.168441
 Thermal correction to Gibbs Free Energy=         0.128249
 Sum of electronic and zero-point Energies=           -422.981042
 Sum of electronic and thermal Energies=              -422.973381
 Sum of electronic and thermal Enthalpies=            -422.972437
 Sum of electronic and thermal Free Energies=         -423.012629

                     E (Thermal)             CV                S
                      KCal/Mol        Cal/Mol-Kelvin    Cal/Mol-Kelvin
 Total                  105.106             31.301             84.591
 Electronic               0.000              0.000              0.000
 Translational            0.889              2.981             40.409
 Rotational               0.889              2.981             28.305
 Vibrational            103.328             25.339             15.878
 Vibration     1          0.625              1.880              2.439
 Vibration     2          0.632              1.858              2.261
 Vibration     3          0.647              1.812              1.968
 Vibration     4          0.687              1.690              1.466
 Vibration     5          0.705              1.637              1.314
 Vibration     6          0.739              1.543              1.098
 Vibration     7          0.784              1.424              0.887
 Vibration     8          0.815              1.346              0.776
 Vibration     9          0.937              1.074              0.485

 Normal termination of Gaussian 09 at Mon Jan 27 18:03:41 2020.
