 Gaussian 09, Revision D.01,
 Gaussian 09:  ES64L-G09RevD.01 24-Apr-2013

 -----------------------------
 # b3lyp 6-31G(2df,p) opt Freq
 -----------------------------

 -----
 titel
 -----
 Symbolic Z-matrix:
 Charge =  0 Multiplicity = 1

 SCF Done:  E(RB3LYP) =  -423.154589043     A.U. after   14 cycles
 Optimization completed.
    -- Stationary point found.
 Normal termination of Gaussian 09 at Mon Jan 27 17:52:24 2020.

 ----------------------------------------------------------------------
 #N Geom=AllCheck Guess=TCheck SCRF=Check GenChk RB3LYP/6-31G(2df,p) Fr
 eq
 ----------------------------------------------------------------------

 Structure from the checkpoint file:  "/scratch/puck/g09_f553dd75-6e74-4f31-b908-175c224ed130/Gau-180683.chk"
 -----
 titel
 -----
 Charge =  0 Multiplicity = 1

                         Standard orientation:
 ---------------------------------------------------------------------
 Center     Atomic      Atomic             Coordinates (Angstroms)
 Number     Number       Type             X           Y           Z
 ---------------------------------------------------------------------
      1          6           0        1.220432    1.849554   -0.298084
      2          6           0        0.858307    0.395984   -0.218148
      3          6           0        1.552575   -0.688472   -1.034734
      4          6           0        1.490103   -0.803188    0.453523
      5          8           0        0.229836   -1.344858    0.863114
      6          6           0       -0.468064   -0.170896    0.356333
      7          6           0       -1.076714    0.633910    1.490821
      8          6           0       -1.500408   -0.531337   -0.700212
      9          8           0       -2.380371    0.212069   -1.053686
     10          1           0        0.703595    2.339217   -1.131289
     11          1           0        0.961668    2.386318    0.619691
     12          1           0        2.295924    1.969221   -0.463089
     13          1           0        1.015677   -1.397404   -1.656122
     14          1           0        2.509031   -0.369210   -1.438967
     15          1           0        2.332612   -0.916001    1.126254
     16          1           0       -1.611233    1.499581    1.091993
     17          1           0       -1.790754    0.012183    2.038579
     18          1           0       -0.302724    0.965434    2.186973
     19          1           0       -1.366907   -1.540355   -1.146425
 ---------------------------------------------------------------------

 SCF Done:  E(RB3LYP) =  -423.154589043     A.U. after    1 cycles

 The electronic state is 1-A.
 Alpha  occ. eigenvalues --  -19.14796 -19.14494 -10.27032 -10.25268 -10.24674
 Alpha  occ. eigenvalues --  -10.21623 -10.19753 -10.19262 -10.18344  -1.06500
 Alpha  occ. eigenvalues --   -1.04840  -0.84870  -0.77718  -0.72101  -0.67301
 Alpha  occ. eigenvalues --   -0.61839  -0.58746  -0.52557  -0.50932  -0.48834
 Alpha  occ. eigenvalues --   -0.48026  -0.44719  -0.42211  -0.41281  -0.41028
 Alpha  occ. eigenvalues --   -0.40467  -0.39118  -0.38049  -0.37820  -0.34766
 Alpha  occ. eigenvalues --   -0.32656  -0.28964  -0.24678  -0.24495
 Alpha virt. eigenvalues --   -0.03327   0.08019   0.09454   0.10752   0.11485
 Alpha virt. eigenvalues --    0.12342   0.13075   0.14301   0.15205   0.16273
 Alpha virt. eigenvalues --    0.17915   0.18294   0.19378   0.19882   0.22101

 Mulliken charges:
               1
     1  C   -0.496864
     2  C    0.226011
     3  C   -0.361375
     4  C    0.058761
     5  O   -0.335543
     6  C    0.265382
     7  C   -0.442812
     8  C    0.124190
     9  O   -0.256765
    10  H    0.136338
    11  H    0.127172
    12  H    0.123974
    13  H    0.119528
    14  H    0.117787
    15  H    0.107696
    16  H    0.141899
    17  H    0.132343
    18  H    0.121853
    19  H    0.090424
 Sum of Mulliken charges =   0.00000

 Dipole moment (field-independent basis, Debye):
    X=              2.5853    Y=              0.6551    Z=              0.3478  Tot=              2.6896
 Quadrupole moment (field-independent basis, Debye-Ang):
   XX=            -55.3734   YY=            -54.2346   ZZ=            -53.8374
   XY=              2.3202   XZ=             -3.3943   YZ=              2.8026

  Exact polarizability:  83.264  -3.428  72.886  -1.233   2.638  70.109
 Approx polarizability: 119.654 -10.106 110.658   2.608  -2.131 104.078

                      1                      2                      3
                      A                      A                      A
 Frequencies --     58.9148               135.4192               182.8985
 Red. masses --      4.4007                 3.1988                 1.0947
 Frc consts  --      0.0090                 0.0346                 0.0216
 IR Inten    --      7.1621                 0.9670                 0.9497

                      4                      5                      6
                      A                      A                      A
 Frequencies --    213.3825               242.3733               263.6794
 Red. masses --      2.2554                 1.5020                 1.4405
 Frc consts  --      0.0605                 0.0520                 0.0590
 IR Inten    --      1.9062                 1.0283                 0.5559

                      7                      8                      9
                      A                      A                      A
 Frequencies --    269.2596               340.9542               394.6295
 Red. masses --      3.2115                 2.5295                 2.5267
 Frc consts  --      0.1372                 0.1733                 0.2318
 IR Inten    --      7.5157                 0.2683                 1.1873

                     10                     11                     12
                      A                      A                      A
 Frequencies --    459.3849               480.1441               484.9802
 Red. masses --      2.9119                 3.3840                 5.2084
 Frc consts  --      0.3621                 0.4597                 0.7218
 IR Inten    --      5.0049                10.5777                 1.5201

                     13                     14                     15
                      A                      A                      A
 Frequencies --    630.8345               716.5091               802.9714
 Red. masses --      3.4083                 3.4240                 2.4404
 Frc consts  --      0.7991                 1.0357                 0.9271
 IR Inten    --      0.3524                16.9235                14.2228

                     16                     17                     18
                      A                      A                      A
 Frequencies --    856.7099               891.2629               894.7981
 Red. masses --      3.3513                 2.5294                 1.7391
 Frc consts  --      1.4492                 1.1838                 0.8204
 IR Inten    --      6.4287                10.5799                14.9226

                     19                     20                     21
                      A                      A                      A
 Frequencies --    963.4482               974.8785               992.5872
 Red. masses --      1.8369                 1.3842                 1.7818
 Frc consts  --      1.0046                 0.7751                 1.0343
 IR Inten    --      9.6755                 8.8606                 6.3068

                     22                     23                     24
                      A                      A                      A
 Frequencies --   1005.6365              1035.4981              1072.0501
 Red. masses --      1.4684                 1.7256                 1.9614
 Frc consts  --      0.8749                 1.0901                 1.3281
 IR Inten    --      0.3725                36.2580                33.2164

                     25                     26                     27
                      A                      A                      A
 Frequencies --   1100.9426              1109.7000              1131.8834
 Red. masses --      1.9565                 1.8118                 2.0170
 Frc consts  --      1.3972                 1.3146                 1.5225
 IR Inten    --     12.4644                 4.3959                 8.9537

                     28                     29                     30
                      A                      A                      A
 Frequencies --   1187.3997              1227.9677              1252.8965
 Red. masses --      2.7703                 3.4688                 2.4576
 Frc consts  --      2.3013                 3.0818                 2.2729
 IR Inten    --     16.2843                 6.3343                 2.0139

                     31                     32                     33
                      A                      A                      A
 Frequencies --   1288.8989              1384.1034              1393.7224
 Red. masses --      2.2951                 1.5683                 1.3672
 Frc consts  --      2.2464                 1.7702                 1.5647
 IR Inten    --     16.9835                 1.4519                 0.3170

                     34                     35                     36
                      A                      A                      A
 Frequencies --   1407.7248              1423.7800              1477.5712
 Red. masses --      1.2677                 1.4861                 1.0679
 Frc consts  --      1.4801                 1.7749                 1.3737
 IR Inten    --     14.1199                 3.0929                 6.2790

                     37                     38                     39
                      A                      A                      A
 Frequencies --   1484.9048              1489.1990              1492.3420
 Red. masses --      1.1089                 1.3148                 1.0488
 Frc consts  --      1.4405                 1.7180                 1.3762
 IR Inten    --      3.7771                 5.4689                 6.6267

                     40                     41                     42
                      A                      A                      A
 Frequencies --   1501.0668              1821.4101              2902.2458
 Red. masses --      1.0575                10.8298                 1.0844
 Frc consts  --      1.4038                21.1682                 5.3816
 IR Inten    --      2.2515               135.9957                78.4058

                     43                     44                     45
                      A                      A                      A
 Frequencies --   3030.8256              3049.8163              3092.9868
 Red. masses --      1.0359                 1.0342                 1.0999
 Frc consts  --      5.6067                 5.6676                 6.1998
 IR Inten    --     23.7866                 9.4624                13.8213

                     46                     47                     48
                      A                      A                      A
 Frequencies --   3105.0670              3123.4949              3123.9115
 Red. masses --      1.1009                 1.0545                 1.1008
 Frc consts  --      6.2536                 6.0617                 6.3294
 IR Inten    --     17.9837                11.6146                13.2619

                     49                     50                     51
                      A                      A                      A
 Frequencies --   3137.7932              3179.3161              3209.8277
 Red. masses --      1.1026                 1.0946                 1.1159
 Frc consts  --      6.3961                 6.5192                 6.7739
 IR Inten    --      8.2248                19.4304                 8.1969

 - Thermochemistry -
 -------------------
 Temperature   298.150 Kelvin.  Pressure   1.00000 Atm.
 Atom     1 has atomic number  6 and mass  12.00000

 Molecular mass:   126.06808 amu.
 Principal axes and moments of inertia in atomic units:
                           1         2         3
     Eigenvalues --   777.597831227.113371301.48668
           X            0.99785   0.04360  -0.04895
           Y           -0.02996   0.96753   0.25098
           Z            0.05830  -0.24897   0.96675
 This molecule is an asymmetric top.
 Rotational symmetry number  1.
 Warning -- assumption of classical behavior for rotation
           may cause significant error
 Rotational temperatures (Kelvin)      0.11139     0.07058     0.06655
 Rotational constants (GHZ):           2.32092     1.47072     1.38668
 Zero-point vibrational energy     409685.1 (Joules/Mol)
                                   97.91709 (Kcal/Mol)
 Warning -- explicit consideration of  12 degrees of freedom as
           vibrations may cause significant error
 Vibrational temperatures:     84.77   194.84   263.15   307.01   348.72
          (Kelvin)            379.38   387.40   490.56   567.78   660.95
                              690.82   697.78   907.63  1030.90  1155.30
                             1232.61  1282.33  1287.41  1386.19  1402.63
                             1428.11  1446.88  1489.85  1542.44  1584.01
                             1596.61  1628.53  1708.40  1766.77  1802.64
                             1854.44  1991.41  2005.25  2025.40  2048.50
                             2125.89  2136.44  2142.62  2147.14  2159.70
                             2620.60  4175.68  4360.68  4388.00  4450.11
                             4467.49  4494.01  4494.61  4514.58  4574.32
                             4618.22

 Zero-point correction=                           0.156041 (Hartree/Particle)
 Thermal correction to Energy=                    0.165232
 Thermal correction to Enthalpy=                  0.166177
 Thermal correction to Gibbs Free Energy=         0.122260
 Sum of electronic and zero-point Energies=           -422.998548
 Sum of electronic and thermal Energies=              -422.989357
 Sum of electronic and thermal Enthalpies=            -422.988413
 Sum of electronic and thermal Free Energies=         -423.032329

                     E (Thermal)             CV                S
                      KCal/Mol        Cal/Mol-Kelvin    Cal/Mol-Kelvin
 Total                  103.685             34.359             92.430
 Electronic               0.000              0.000              0.000
 Translational            0.889              2.981             40.409
 Rotational               0.889              2.981             28.609
 Vibrational            101.907             28.397             23.412
 Vibration     1          0.596              1.974              4.493
 Vibration     2          0.613              1.918              2.868
 Vibration     3          0.630              1.863              2.299
 Vibration     4          0.644              1.821              2.015
 Vibration     5          0.659              1.775              1.785
 Vibration     6          0.670              1.739              1.637
 Vibration     7          0.674              1.730              1.601
 Vibration     8          0.720              1.594              1.208
 Vibration     9          0.762              1.482              0.983
 Vibration    10          0.817              1.340              0.768
 Vibration    11          0.837              1.294              0.710
 Vibration    12          0.841              1.283              0.697

 Optimization completed.
    -- Stationary point found.
 Normal termination of Gaussian 09 at Mon Jan 27 18:39:22 2020.
