 Gaussian 09, Revision D.01,
 Gaussian 09:  ES64L-G09RevD.01 24-Apr-2013

 -----------------------------
 # b3lyp 6-31G(2df,p) opt Freq
 -----------------------------

 -----
 titel
 -----
 Symbolic Z-matrix:
 Charge =  0 Multiplicity = 1

 SCF Done:  E(RB3LYP) =  -423.168196421     A.U. after   14 cycles
 Optimization completed.
    -- Stationary point found.
 Normal termination of Gaussian 09 at Tue Jan 28 14:14:40 2020.

 ----------------------------------------------------------------------
 #N Geom=AllCheck Guess=TCheck SCRF=Check GenChk RB3LYP/6-31G(2df,p) Fr
 eq
 ----------------------------------------------------------------------

 Structure from the checkpoint file:  "/scratch/puck/g09_5d4dce1a-8f5f-4c0a-a7cb-fbdefe492756/Gau-11134.chk"
 -----
 titel
 -----
 Charge =  0 Multiplicity = 1

                         Standard orientation:
 ---------------------------------------------------------------------
 Center     Atomic      Atomic             Coordinates (Angstroms)
 Number     Number       Type             X           Y           Z
 ---------------------------------------------------------------------
      1          8           0        3.656893   -0.195487    0.310156
      2          6           0        2.257918   -0.227988    0.530130
      3          6           0        1.463520    0.363915   -0.650821
      4          6           0       -0.020714    0.259312   -0.476503
      5          6           0       -0.866999    1.249679   -0.161830
      6          6           0       -2.247654    0.726401    0.040526
      7          8           0       -2.341315   -0.239451    1.118171
      8          6           0       -2.190092   -0.723221   -0.216252
      9          6           0       -0.757283   -1.070689   -0.597985
     10          1           0        3.930280    0.726966    0.282221
     11          1           0        2.005110   -1.284614    0.663221
     12          1           0        1.977042    0.292601    1.458007
     13          1           0        1.744291    1.418492   -0.767690
     14          1           0        1.783663   -0.159171   -1.561235
     15          1           0       -0.594990    2.290770   -0.033334
     16          1           0       -3.133766    1.336368   -0.104788
     17          1           0       -3.025733   -1.299853   -0.603870
     18          1           0       -0.341716   -1.843497    0.059566
     19          1           0       -0.700985   -1.463005   -1.622299
 ---------------------------------------------------------------------

 SCF Done:  E(RB3LYP) =  -423.168196421     A.U. after    1 cycles

 The electronic state is 1-A.
 Alpha  occ. eigenvalues --  -19.14250 -19.13678 -10.23328 -10.23295 -10.23053
 Alpha  occ. eigenvalues --  -10.19678 -10.19278 -10.19020 -10.18080  -1.06327
 Alpha  occ. eigenvalues --   -1.01806  -0.83215  -0.75248  -0.71790  -0.65883
 Alpha  occ. eigenvalues --   -0.61883  -0.58057  -0.53658  -0.51521  -0.50703
 Alpha  occ. eigenvalues --   -0.45872  -0.44715  -0.43097  -0.41416  -0.40382
 Alpha  occ. eigenvalues --   -0.38869  -0.37980  -0.36812  -0.34703  -0.32560
 Alpha  occ. eigenvalues --   -0.30474  -0.27512  -0.25887  -0.23673
 Alpha virt. eigenvalues --    0.00098   0.07374   0.09620   0.10748   0.12203
 Alpha virt. eigenvalues --    0.13051   0.13782   0.15191   0.15972   0.16417
 Alpha virt. eigenvalues --    0.16938   0.17945   0.19047   0.21635   0.23010

 Mulliken charges:
               1
     1  O   -0.412849
     2  C   -0.055112
     3  C   -0.320681
     4  C    0.308902
     5  C   -0.198892
     6  C    0.011732
     7  O   -0.259741
     8  C    0.040963
     9  C   -0.338051
    10  H    0.282357
    11  H    0.115890
    12  H    0.099098
    13  H    0.093189
    14  H    0.110705
    15  H    0.092754
    16  H    0.095496
    17  H    0.095061
    18  H    0.127110
    19  H    0.112072
 Sum of Mulliken charges =   0.00000

 Dipole moment (field-independent basis, Debye):
    X=             -0.0280    Y=              1.2935    Z=             -1.6888  Tot=              2.1274
 Quadrupole moment (field-independent basis, Debye-Ang):
   XX=            -57.0570   YY=            -48.6777   ZZ=            -56.1096
   XY=              4.9795   XZ=              4.0627   YZ=              1.7706

  Exact polarizability:  95.405  -2.425  77.832  -3.220   3.640  58.378
 Approx polarizability: 123.415 -10.325 125.156  -9.591   7.033  94.700

                      1                      2                      3
                      A                      A                      A
 Frequencies --     58.0279                88.4271               101.8727
 Red. masses --      2.6514                 2.5063                 4.7691
 Frc consts  --      0.0053                 0.0115                 0.0292
 IR Inten    --      2.5811                 4.3647                 0.1307

                      4                      5                      6
                      A                      A                      A
 Frequencies --    238.3924               297.8171               333.7878
 Red. masses --      3.1663                 1.2732                 2.1897
 Frc consts  --      0.1060                 0.0665                 0.1437
 IR Inten    --      3.4411                70.5152                18.2348

                      7                      8                      9
                      A                      A                      A
 Frequencies --    346.1416               379.0336               466.9679
 Red. masses --      3.1316                 3.1029                 4.8028
 Frc consts  --      0.2211                 0.2626                 0.6170
 IR Inten    --     27.3049                 4.8003                11.9197

                     10                     11                     12
                      A                      A                      A
 Frequencies --    529.7653               692.2743               726.2312
 Red. masses --      2.1960                 4.3421                 5.3580
 Frc consts  --      0.3631                 1.2261                 1.6650
 IR Inten    --      8.5253                 0.5789                 3.9101

                     13                     14                     15
                      A                      A                      A
 Frequencies --    786.5036               812.6542               847.4988
 Red. masses --      1.1860                 3.5622                 2.9585
 Frc consts  --      0.4322                 1.3861                 1.2520
 IR Inten    --      2.3702                 4.8275                12.3065

                     16                     17                     18
                      A                      A                      A
 Frequencies --    860.0750               881.6259               923.6774
 Red. masses --      1.8403                 2.4448                 2.4054
 Frc consts  --      0.8021                 1.1196                 1.2091
 IR Inten    --     16.6526                19.6985                 6.5754

                     19                     20                     21
                      A                      A                      A
 Frequencies --    963.5799              1003.7567              1010.2616
 Red. masses --      1.9154                 2.8263                 1.6972
 Frc consts  --      1.0478                 1.6777                 1.0206
 IR Inten    --      6.4080                 2.8583                 2.4513

                     22                     23                     24
                      A                      A                      A
 Frequencies --   1034.0484              1053.7106              1078.4207
 Red. masses --      1.8822                 2.0457                 3.7528
 Frc consts  --      1.1858                 1.3382                 2.5715
 IR Inten    --      8.1134                74.9505                89.5939

                     25                     26                     27
                      A                      A                      A
 Frequencies --   1109.3803              1144.4924              1186.7239
 Red. masses --      1.3130                 1.2836                 1.4155
 Frc consts  --      0.9521                 0.9906                 1.1746
 IR Inten    --      1.7830                 7.0860                 6.4668

                     28                     29                     30
                      A                      A                      A
 Frequencies --   1193.4319              1255.0422              1281.7524
 Red. masses --      1.5234                 1.4979                 1.3388
 Frc consts  --      1.2784                 1.3901                 1.2959
 IR Inten    --      7.8317                 7.1442                 2.6555

                     31                     32                     33
                      A                      A                      A
 Frequencies --   1291.0104              1310.1241              1316.8589
 Red. masses --      1.3724                 1.7749                 1.2655
 Frc consts  --      1.3477                 1.7949                 1.2930
 IR Inten    --      0.2674                 5.2209                 2.0121

                     34                     35                     36
                      A                      A                      A
 Frequencies --   1359.1599              1391.5707              1410.7509
 Red. masses --      1.9459                 1.3026                 2.6083
 Frc consts  --      2.1179                 1.4862                 3.0584
 IR Inten    --     15.6362                 5.5128                20.7477

                     37                     38                     39
                      A                      A                      A
 Frequencies --   1418.3083              1457.6606              1482.4155
 Red. masses --      1.2668                 1.0992                 1.1035
 Frc consts  --      1.5014                 1.3760                 1.4288
 IR Inten    --     43.9400                 3.2034                 2.6345

                     40                     41                     42
                      A                      A                      A
 Frequencies --   1511.7114              1687.7594              2993.8591
 Red. masses --      1.0901                 7.1837                 1.0688
 Frc consts  --      1.4677                12.0564                 5.6445
 IR Inten    --      0.5698                13.1610                32.0994

                     43                     44                     45
                      A                      A                      A
 Frequencies --   3015.4249              3023.5517              3055.1575
 Red. masses --      1.0586                 1.0629                 1.0988
 Frc consts  --      5.6714                 5.7251                 6.0428
 IR Inten    --     34.7383                25.6341                 8.8116

                     46                     47                     48
                      A                      A                      A
 Frequencies --   3063.4203              3086.8910              3146.8082
 Red. masses --      1.0980                 1.0977                 1.0892
 Frc consts  --      6.0710                 6.1631                 6.3547
 IR Inten    --     13.9280                42.5241                22.8209

                     49                     50                     51
                      A                      A                      A
 Frequencies --   3166.5875              3201.4768              3815.2054
 Red. masses --      1.0927                 1.0953                 1.0662
 Frc consts  --      6.4557                 6.6142                 9.1434
 IR Inten    --     39.8792                11.5503                19.0150

 - Thermochemistry -
 -------------------
 Temperature   298.150 Kelvin.  Pressure   1.00000 Atm.
 Atom     1 has atomic number  8 and mass  15.99491

 Molecular mass:   126.06808 amu.
 Principal axes and moments of inertia in atomic units:
                           1         2         3
     Eigenvalues --   410.403042209.988752288.74294
           X            0.99995   0.00535   0.00878
           Y           -0.00605   0.99669   0.08103
           Z           -0.00832  -0.08108   0.99667
 This molecule is an asymmetric top.
 Rotational symmetry number  1.
 Rotational temperatures (Kelvin)      0.21105     0.03919     0.03784
 Rotational constants (GHZ):           4.39748     0.81663     0.78853
 Zero-point vibrational energy     418041.5 (Joules/Mol)
                                   99.91432 (Kcal/Mol)
 Warning -- explicit consideration of  10 degrees of freedom as
           vibrations may cause significant error
 Vibrational temperatures:     83.49   127.23   146.57   342.99   428.49
          (Kelvin)            480.25   498.02   545.34   671.86   762.21
                              996.03  1044.88  1131.60  1169.23  1219.36
                             1237.45  1268.46  1328.96  1386.37  1444.18
                             1453.54  1487.76  1516.05  1551.60  1596.15
                             1646.67  1707.43  1717.08  1805.72  1844.15
                             1857.47  1884.97  1894.66  1955.53  2002.16
                             2029.75  2040.63  2097.25  2132.86  2175.01
                             2428.31  4307.49  4338.52  4350.21  4395.68
                             4407.57  4441.34  4527.55  4556.01  4606.21
                             5489.22

 Zero-point correction=                           0.159224 (Hartree/Particle)
 Thermal correction to Energy=                    0.167818
 Thermal correction to Enthalpy=                  0.168762
 Thermal correction to Gibbs Free Energy=         0.125143
 Sum of electronic and zero-point Energies=           -423.008973
 Sum of electronic and thermal Energies=              -423.000379
 Sum of electronic and thermal Enthalpies=            -422.999434
 Sum of electronic and thermal Free Energies=         -423.043053

                     E (Thermal)             CV                S
                      KCal/Mol        Cal/Mol-Kelvin    Cal/Mol-Kelvin
 Total                  105.307             32.102             91.803
 Electronic               0.000              0.000              0.000
 Translational            0.889              2.981             40.409
 Rotational               0.889              2.981             29.119
 Vibrational            103.530             26.140             22.275
 Vibration     1          0.596              1.974              4.523
 Vibration     2          0.601              1.957              3.695
 Vibration     3          0.604              1.948              3.418
 Vibration     4          0.656              1.782              1.815
 Vibration     5          0.691              1.678              1.429
 Vibration     6          0.715              1.608              1.242
 Vibration     7          0.724              1.583              1.184
 Vibration     8          0.749              1.515              1.043
 Vibration     9          0.824              1.323              0.746
 Vibration    10          0.885              1.184              0.588

 Optimization completed.
    -- Stationary point found.
 Normal termination of Gaussian 09 at Tue Jan 28 14:57:05 2020.
