 Gaussian 09, Revision D.01,
 Gaussian 09:  ES64L-G09RevD.01 24-Apr-2013

 -----------------------------
 # b3lyp 6-31G(2df,p) opt Freq
 -----------------------------

 -----
 titel
 -----
 Symbolic Z-matrix:
 Charge =  0 Multiplicity = 1

 SCF Done:  E(RB3LYP) =  -423.113988478     A.U. after   13 cycles
 Optimization completed.
    -- Stationary point found.
 Normal termination of Gaussian 09 at Mon Jan 27 16:24:12 2020.

 ----------------------------------------------------------------------
 #N Geom=AllCheck Guess=TCheck SCRF=Check GenChk RB3LYP/6-31G(2df,p) Fr
 eq
 ----------------------------------------------------------------------

 Structure from the checkpoint file:  "/scratch/puck/g09_98ca38a6-f360-4544-8236-903312957196/Gau-37115.chk"
 -----
 titel
 -----
 Charge =  0 Multiplicity = 1

                         Standard orientation:
 ---------------------------------------------------------------------
 Center     Atomic      Atomic             Coordinates (Angstroms)
 Number     Number       Type             X           Y           Z
 ---------------------------------------------------------------------
      1          6           0       -2.036230    1.468319   -0.197859
      2          6           0       -1.298815    0.147354   -0.172816
      3          6           0       -2.037361   -1.106571   -0.394705
      4          8           0       -1.637111   -0.718669    0.924334
      5          6           0        0.167264    0.208566   -0.498516
      6          6           0        1.108192    0.615190    0.628139
      7          6           0        2.534475    0.646364    0.092837
      8          8           0        2.399212   -0.696294   -0.455005
      9          6           0        1.090816   -0.801696    0.112305
     10          1           0       -3.085953    1.330275    0.072448
     11          1           0       -1.586221    2.173282    0.508453
     12          1           0       -1.987265    1.917695   -1.195559
     13          1           0       -3.110019   -1.074214   -0.581080
     14          1           0       -1.518368   -1.972049   -0.803024
     15          1           0        0.395554    0.550817   -1.507340
     16          1           0        0.758515    1.015725    1.569692
     17          1           0        2.778538    1.388312   -0.677261
     18          1           0        3.298834    0.662375    0.877976
     19          1           0        0.789538   -1.737666    0.564749
 ---------------------------------------------------------------------

 SCF Done:  E(RB3LYP) =  -423.113988478     A.U. after    1 cycles

 The electronic state is 1-A.
 Alpha  occ. eigenvalues --  -19.15231 -19.13563 -10.24944 -10.23705 -10.23536
 Alpha  occ. eigenvalues --  -10.23261 -10.19735 -10.19595 -10.18502  -1.07212
 Alpha  occ. eigenvalues --   -1.04872  -0.83850  -0.75017  -0.70089  -0.66460
 Alpha  occ. eigenvalues --   -0.63215  -0.56291  -0.54910  -0.52313  -0.48707
 Alpha  occ. eigenvalues --   -0.47655  -0.46380  -0.44249  -0.42104  -0.40652
 Alpha  occ. eigenvalues --   -0.39980  -0.37551  -0.36328  -0.34470  -0.32584
 Alpha  occ. eigenvalues --   -0.30458  -0.27241  -0.26677  -0.23303
 Alpha virt. eigenvalues --    0.08069   0.08731   0.10029   0.10928   0.11602
 Alpha virt. eigenvalues --    0.12595   0.13084   0.13512   0.14509   0.16047
 Alpha virt. eigenvalues --    0.17203   0.18409   0.19024   0.20088   0.20754

 Mulliken charges:
               1
     1  C   -0.456615
     2  C    0.381730
     3  C   -0.220924
     4  O   -0.272133
     5  C   -0.142415
     6  C   -0.133426
     7  C   -0.102110
     8  O   -0.297997
     9  C    0.100568
    10  H    0.126763
    11  H    0.128013
    12  H    0.123158
    13  H    0.112972
    14  H    0.115333
    15  H    0.093017
    16  H    0.108734
    17  H    0.103566
    18  H    0.111779
    19  H    0.119988
 Sum of Mulliken charges =   0.00000

 Dipole moment (field-independent basis, Debye):
    X=             -1.0264    Y=              1.4545    Z=             -0.6110  Tot=              1.8821
 Quadrupole moment (field-independent basis, Debye-Ang):
   XX=            -53.9412   YY=            -51.5332   ZZ=            -54.3125
   XY=              3.2477   XZ=              5.3216   YZ=              0.7066

  Exact polarizability:  89.576   5.239  73.964   3.482   1.278  61.256
 Approx polarizability: 112.918   6.623 111.850   3.110   2.472 100.851

                      1                      2                      3
                      A                      A                      A
 Frequencies --     78.2946               147.2413               166.4502
 Red. masses --      3.2718                 3.4367                 2.8834
 Frc consts  --      0.0118                 0.0439                 0.0471
 IR Inten    --      1.9591                 0.1891                 3.2805

                      4                      5                      6
                      A                      A                      A
 Frequencies --    200.1792               297.9546               323.7457
 Red. masses --      1.1874                 3.1441                 2.5959
 Frc consts  --      0.0280                 0.1645                 0.1603
 IR Inten    --      0.4329                 1.0528                 2.2603

                      7                      8                      9
                      A                      A                      A
 Frequencies --    364.2738               402.6398               457.9261
 Red. masses --      2.7624                 3.3408                 3.0811
 Frc consts  --      0.2160                 0.3191                 0.3807
 IR Inten    --      2.1236                 4.9240                 6.2150

                     10                     11                     12
                      A                      A                      A
 Frequencies --    521.1825               726.7579               771.6639
 Red. masses --      3.2861                 3.2876                 3.7366
 Frc consts  --      0.5259                 1.0231                 1.3109
 IR Inten    --      6.1171                 7.0078                 8.9856

                     13                     14                     15
                      A                      A                      A
 Frequencies --    811.4536               868.7971               890.9594
 Red. masses --      1.6865                 2.7414                 1.8955
 Frc consts  --      0.6543                 1.2192                 0.8865
 IR Inten    --      5.3012                22.9104                 6.3543

                     16                     17                     18
                      A                      A                      A
 Frequencies --    913.8770               925.0169               956.6738
 Red. masses --      2.3718                 2.1107                 3.7539
 Frc consts  --      1.1671                 1.0641                 2.0242
 IR Inten    --      6.3939                 6.5419                11.5858

                     19                     20                     21
                      A                      A                      A
 Frequencies --    987.4392               996.8067              1017.9278
 Red. masses --      2.4614                 2.0222                 2.1339
 Frc consts  --      1.4140                 1.1839                 1.3028
 IR Inten    --     59.3992                17.6372                 0.4286

                     22                     23                     24
                      A                      A                      A
 Frequencies --   1021.1346              1045.8706              1080.4451
 Red. masses --      1.6954                 1.6879                 1.7245
 Frc consts  --      1.0416                 1.0878                 1.1861
 IR Inten    --     12.7893                10.9654                31.2884

                     25                     26                     27
                      A                      A                      A
 Frequencies --   1099.6239              1112.1370              1136.7241
 Red. masses --      1.6220                 1.8478                 1.3556
 Frc consts  --      1.1555                 1.3465                 1.0320
 IR Inten    --      8.7036                 3.0841                 3.4451

                     28                     29                     30
                      A                      A                      A
 Frequencies --   1158.3163              1168.4262              1200.8104
 Red. masses --      1.1892                 1.3685                 2.0103
 Frc consts  --      0.9401                 1.1008                 1.7079
 IR Inten    --      3.0527                 1.1835                 4.6768

                     31                     32                     33
                      A                      A                      A
 Frequencies --   1231.8759              1241.1726              1285.1334
 Red. masses --      1.5708                 1.4505                 2.0079
 Frc consts  --      1.4045                 1.3165                 1.9538
 IR Inten    --     23.8142                 0.0723                 2.5407

                     34                     35                     36
                      A                      A                      A
 Frequencies --   1345.8846              1385.6942              1413.6881
 Red. masses --      1.6161                 2.3675                 1.4374
 Frc consts  --      1.7247                 2.6784                 1.6925
 IR Inten    --      1.6622                13.7210                 6.9648

                     37                     38                     39
                      A                      A                      A
 Frequencies --   1427.3248              1481.3671              1495.3796
 Red. masses --      2.9465                 1.0563                 1.0720
 Frc consts  --      3.5367                 1.3658                 1.4124
 IR Inten    --     32.2389                 4.5089                 0.9991

                     40                     41                     42
                      A                      A                      A
 Frequencies --   1516.0522              1526.5187              3020.5301
 Red. masses --      1.1061                 1.3396                 1.0550
 Frc consts  --      1.4979                 1.8392                 5.6710
 IR Inten    --      1.4286                 4.1825                82.3447

                     43                     44                     45
                      A                      A                      A
 Frequencies --   3037.9739              3069.9155              3084.1350
 Red. masses --      1.0357                 1.1111                 1.0505
 Frc consts  --      5.6316                 6.1696                 5.8875
 IR Inten    --     15.5906                37.3356                24.5488

                     46                     47                     48
                      A                      A                      A
 Frequencies --   3102.6135              3112.5531              3124.6411
 Red. masses --      1.0999                 1.0881                 1.1018
 Frc consts  --      6.2384                 6.2107                 6.3381
 IR Inten    --     11.7076                16.9966                19.0940

                     49                     50                     51
                      A                      A                      A
 Frequencies --   3172.6127              3198.3731              3211.2491
 Red. masses --      1.1196                 1.0893                 1.0980
 Frc consts  --      6.6394                 6.5653                 6.6709
 IR Inten    --     22.9531                 9.8594                 5.5324

 - Thermochemistry -
 -------------------
 Temperature   298.150 Kelvin.  Pressure   1.00000 Atm.
 Atom     1 has atomic number  6 and mass  12.00000

 Molecular mass:   126.06808 amu.
 Principal axes and moments of inertia in atomic units:
                           1         2         3
     Eigenvalues --   475.494741592.906911807.33951
           X            0.99985   0.00147   0.01716
           Y           -0.00162   0.99996   0.00840
           Z           -0.01714  -0.00843   0.99982
 This molecule is an asymmetric top.
 Rotational symmetry number  1.
 Warning -- assumption of classical behavior for rotation
           may cause significant error
 Rotational temperatures (Kelvin)      0.18216     0.05437     0.04792
 Rotational constants (GHZ):           3.79550     1.13299     0.99856
 Zero-point vibrational energy     414718.0 (Joules/Mol)
                                   99.11998 (Kcal/Mol)
 Warning -- explicit consideration of  10 degrees of freedom as
           vibrations may cause significant error
 Vibrational temperatures:    112.65   211.85   239.48   288.01   428.69
          (Kelvin)            465.80   524.11   579.31   658.85   749.86
                             1045.64  1110.25  1167.50  1250.00  1281.89
                             1314.86  1330.89  1376.44  1420.70  1434.18
                             1464.57  1469.18  1504.77  1554.52  1582.11
                             1600.12  1635.49  1666.56  1681.10  1727.70
                             1772.39  1785.77  1849.02  1936.43  1993.70
                             2033.98  2053.60  2131.35  2151.52  2181.26
                             2196.32  4345.86  4370.96  4416.92  4437.38
                             4463.96  4478.26  4495.66  4564.68  4601.74
                             4620.27

 Zero-point correction=                           0.157958 (Hartree/Particle)
 Thermal correction to Energy=                    0.166268
 Thermal correction to Enthalpy=                  0.167212
 Thermal correction to Gibbs Free Energy=         0.124953
 Sum of electronic and zero-point Energies=           -422.956031
 Sum of electronic and thermal Energies=              -422.947721
 Sum of electronic and thermal Enthalpies=            -422.946777
 Sum of electronic and thermal Free Energies=         -422.989035

                     E (Thermal)             CV                S
                      KCal/Mol        Cal/Mol-Kelvin    Cal/Mol-Kelvin
 Total                  104.335             31.786             88.941
 Electronic               0.000              0.000              0.000
 Translational            0.889              2.981             40.409
 Rotational               0.889              2.981             28.706
 Vibrational            102.557             25.824             19.827
 Vibration     1          0.600              1.964              3.933
 Vibration     2          0.617              1.906              2.708
 Vibration     3          0.624              1.884              2.475
 Vibration     4          0.638              1.840              2.131
 Vibration     5          0.691              1.678              1.428
 Vibration     6          0.708              1.628              1.291
 Vibration     7          0.738              1.546              1.104
 Vibration     8          0.768              1.464              0.953
 Vibration     9          0.816              1.343              0.772
 Vibration    10          0.876              1.203              0.607

 Optimization completed.
    -- Stationary point found.
 Normal termination of Gaussian 09 at Mon Jan 27 17:13:50 2020.
