 Gaussian 09, Revision D.01,
 Gaussian 09:  ES64L-G09RevD.01 24-Apr-2013

 -----------------------------
 # b3lyp 6-31G(2df,p) opt Freq
 -----------------------------

 -----
 titel
 -----
 Symbolic Z-matrix:
 Charge =  0 Multiplicity = 1

 SCF Done:  E(RB3LYP) =  -423.161123143     A.U. after   14 cycles
 SCF Done:  E(RB3LYP) =  -423.161123169     A.U. after    7 cycles
 SCF Done:  E(RB3LYP) =  -423.161123118     A.U. after    7 cycles
 Optimization completed.
    -- Stationary point found.
 Normal termination of Gaussian 09 at Mon Jan 27 16:36:23 2020.

 ----------------------------------------------------------------------
 #N Geom=AllCheck Guess=TCheck SCRF=Check GenChk RB3LYP/6-31G(2df,p) Fr
 eq
 ----------------------------------------------------------------------

 Structure from the checkpoint file:  "/scratch/puck/g09_942180b7-7bf0-46d5-a3ad-0d24cc3baeaf/Gau-177149.chk"
 -----
 titel
 -----
 Charge =  0 Multiplicity = 1

                         Standard orientation:
 ---------------------------------------------------------------------
 Center     Atomic      Atomic             Coordinates (Angstroms)
 Number     Number       Type             X           Y           Z
 ---------------------------------------------------------------------
      1          6           0       -1.598792    1.779991   -0.155893
      2          6           0       -1.326363    0.289801   -0.085893
      3          6           0       -1.912471   -0.520099    1.041241
      4          6           0       -2.458950   -0.675207   -0.357859
      5          6           0        0.028648   -0.094282   -0.605355
      6          8           0        0.531374   -1.383788   -0.303536
      7          6           0        1.194565   -0.260896    0.299644
      8          6           0        2.563461    0.017464   -0.219475
      9          8           0        3.413416    0.601128    0.402872
     10          1           0       -1.509246    2.154289   -1.182534
     11          1           0       -2.611451    2.004143    0.191142
     12          1           0       -0.896978    2.344609    0.468278
     13          1           0       -1.322702   -1.341662    1.431071
     14          1           0       -2.512808    0.003556    1.777067
     15          1           0       -2.227184   -1.596383   -0.881126
     16          1           0       -3.433509   -0.256998   -0.586090
     17          1           0        0.236734    0.229803   -1.628520
     18          1           0        1.047402   -0.138906    1.370508
     19          1           0        2.730835   -0.361805   -1.252951
 ---------------------------------------------------------------------

 SCF Done:  E(RB3LYP) =  -423.161123118     A.U. after    1 cycles

 The electronic state is 1-A.
 Alpha  occ. eigenvalues --  -19.17668 -19.14656 -10.27759 -10.26012 -10.25136
 Alpha  occ. eigenvalues --  -10.21266 -10.19270 -10.19159 -10.19080  -1.09749
 Alpha  occ. eigenvalues --   -1.05244  -0.87454  -0.73645  -0.71673  -0.67592
 Alpha  occ. eigenvalues --   -0.61394  -0.59072  -0.55982  -0.51418  -0.50554
 Alpha  occ. eigenvalues --   -0.47518  -0.45901  -0.43310  -0.42522  -0.41547
 Alpha  occ. eigenvalues --   -0.40461  -0.39748  -0.37238  -0.36803  -0.33487
 Alpha  occ. eigenvalues --   -0.30865  -0.29211  -0.28071  -0.25718
 Alpha virt. eigenvalues --   -0.03810   0.08722   0.09533   0.10172   0.10805
 Alpha virt. eigenvalues --    0.11509   0.12685   0.13753   0.14944   0.15758
 Alpha virt. eigenvalues --    0.16717   0.17957   0.18710   0.19896   0.22421

 Mulliken charges:
               1
     1  C   -0.467715
     2  C    0.324508
     3  C   -0.305825
     4  C   -0.298925
     5  C   -0.011187
     6  O   -0.243225
     7  C   -0.058925
     8  C    0.151852
     9  O   -0.250500
    10  H    0.120720
    11  H    0.122629
    12  H    0.125844
    13  H    0.131497
    14  H    0.112638
    15  H    0.126268
    16  H    0.113857
    17  H    0.099705
    18  H    0.119235
    19  H    0.087549
 Sum of Mulliken charges =   0.00000

 Dipole moment (field-independent basis, Debye):
    X=             -2.6845    Y=              0.5837    Z=             -0.7474  Tot=              2.8471
 Quadrupole moment (field-independent basis, Debye-Ang):
   XX=            -61.4188   YY=            -55.7983   ZZ=            -51.3393
   XY=             -3.9881   XZ=             -2.8221   YZ=             -1.0915

  Exact polarizability:  97.896   4.161  67.236   2.308   1.186  69.476
 Approx polarizability: 130.169  10.896 103.615  10.859   4.893 108.856

                      1                      2                      3
                      A                      A                      A
 Frequencies --     64.1790                96.2889               151.3779
 Red. masses --      4.2072                 5.7420                 3.3433
 Frc consts  --      0.0102                 0.0314                 0.0451
 IR Inten    --      1.0771                 1.8562                 6.2531

                      4                      5                      6
                      A                      A                      A
 Frequencies --    194.4928               216.8246               266.8213
 Red. masses --      2.0188                 1.2020                 3.2093
 Frc consts  --      0.0450                 0.0333                 0.1346
 IR Inten    --      2.6228                 0.9848                 1.8709

                      7                      8                      9
                      A                      A                      A
 Frequencies --    309.4584               322.7983               355.3943
 Red. masses --      2.2939                 2.6573                 2.6219
 Frc consts  --      0.1294                 0.1631                 0.1951
 IR Inten    --      6.8623                 5.4277                 6.4429

                     10                     11                     12
                      A                      A                      A
 Frequencies --    461.6713               525.5984               536.7513
 Red. masses --      3.8087                 4.0841                 5.2402
 Frc consts  --      0.4783                 0.6647                 0.8895
 IR Inten    --      1.7761                17.1671                 2.2830

                     13                     14                     15
                      A                      A                      A
 Frequencies --    717.8677               794.5217               848.9962
 Red. masses --      3.5125                 1.0315                 3.6158
 Frc consts  --      1.0665                 0.3836                 1.5356
 IR Inten    --      5.5208                 0.4212                15.8254

                     16                     17                     18
                      A                      A                      A
 Frequencies --    874.8039               894.3180               933.2661
 Red. masses --      2.6377                 4.8608                 1.3666
 Frc consts  --      1.1893                 2.2906                 0.7013
 IR Inten    --      5.5534                29.8359                 7.5059

                     19                     20                     21
                      A                      A                      A
 Frequencies --    953.3587               970.2220              1032.4778
 Red. masses --      1.6395                 2.2685                 1.6164
 Frc consts  --      0.8779                 1.2581                 1.0152
 IR Inten    --      1.9380                17.7341                 5.7121

                     22                     23                     24
                      A                      A                      A
 Frequencies --   1047.7198              1067.3694              1088.2516
 Red. masses --      1.5015                 1.7532                 1.6771
 Frc consts  --      0.9711                 1.1769                 1.1702
 IR Inten    --      4.2553                 1.9554                10.1811

                     25                     26                     27
                      A                      A                      A
 Frequencies --   1092.5498              1113.0774              1135.1082
 Red. masses --      1.4957                 1.5760                 1.9182
 Frc consts  --      1.0519                 1.1504                 1.4562
 IR Inten    --      8.7803                 0.9275                10.3900

                     28                     29                     30
                      A                      A                      A
 Frequencies --   1158.9970              1195.7683              1239.0595
 Red. masses --      1.6373                 1.2974                 1.5967
 Frc consts  --      1.2959                 1.0930                 1.4443
 IR Inten    --     29.8799                 0.3484                 9.8689

                     31                     32                     33
                      A                      A                      A
 Frequencies --   1287.0348              1314.6346              1355.8644
 Red. masses --      2.0760                 1.5432                 2.1663
 Frc consts  --      2.0260                 1.5714                 2.3464
 IR Inten    --     10.8892                 4.3219                 0.1028

                     34                     35                     36
                      A                      A                      A
 Frequencies --   1406.0830              1418.1429              1458.3670
 Red. masses --      1.2963                 1.2825                 2.2042
 Frc consts  --      1.5100                 1.5196                 2.7621
 IR Inten    --      0.2707                 2.3015                22.9292

                     37                     38                     39
                      A                      A                      A
 Frequencies --   1459.9934              1489.9451              1498.3565
 Red. masses --      1.1341                 1.0474                 1.1838
 Frc consts  --      1.4243                 1.3699                 1.5659
 IR Inten    --      4.9734                 3.5915                13.5689

                     40                     41                     42
                      A                      A                      A
 Frequencies --   1508.7342              1827.4838              2885.1592
 Red. masses --      1.2974                10.3215                 1.0839
 Frc consts  --      1.7400                20.3095                 5.3157
 IR Inten    --      0.8597               224.1995                80.6809

                     43                     44                     45
                      A                      A                      A
 Frequencies --   3025.3532              3075.0819              3085.4765
 Red. masses --      1.0363                 1.0866                 1.1006
 Frc consts  --      5.5886                 6.0540                 6.1734
 IR Inten    --     26.0012                22.2806                26.4708

                     46                     47                     48
                      A                      A                      A
 Frequencies --   3107.8992              3132.8470              3139.2683
 Red. masses --      1.1003                 1.0523                 1.0564
 Frc consts  --      6.2617                 6.0851                 6.1341
 IR Inten    --     18.6346                14.4855                10.2985

                     49                     50                     51
                      A                      A                      A
 Frequencies --   3149.8468              3216.6975              3231.8962
 Red. masses --      1.0891                 1.1180                 1.1160
 Frc consts  --      6.3664                 6.8155                 6.8680
 IR Inten    --      7.0791                 1.3130                 9.2985

 - Thermochemistry -
 -------------------
 Temperature   298.150 Kelvin.  Pressure   1.00000 Atm.
 Atom     1 has atomic number  6 and mass  12.00000

 Molecular mass:   126.06808 amu.
 Principal axes and moments of inertia in atomic units:
                           1         2         3
     Eigenvalues --   510.852801918.363152149.43138
           X            0.99986  -0.01459  -0.00806
           Y            0.01440   0.99964  -0.02285
           Z            0.00839   0.02273   0.99971
 This molecule is an asymmetric top.
 Rotational symmetry number  1.
 Warning -- assumption of classical behavior for rotation
           may cause significant error
 Rotational temperatures (Kelvin)      0.16955     0.04515     0.04030
 Rotational constants (GHZ):           3.53280     0.94077     0.83964
 Zero-point vibrational energy     411118.0 (Joules/Mol)
                                   98.25955 (Kcal/Mol)
 Warning -- explicit consideration of  12 degrees of freedom as
           vibrations may cause significant error
 Vibrational temperatures:     92.34   138.54   217.80   279.83   311.96
          (Kelvin)            383.90   445.24   464.43   511.33   664.24
                              756.22   772.26  1032.85  1143.14  1221.51
                             1258.65  1286.72  1342.76  1371.67  1395.93
                             1485.50  1507.43  1535.70  1565.75  1571.93
                             1601.47  1633.17  1667.54  1720.44  1782.73
                             1851.75  1891.46  1950.78  2023.04  2040.39
                             2098.26  2100.60  2143.70  2155.80  2170.73
                             2629.34  4151.10  4352.80  4424.35  4439.31
                             4471.57  4507.46  4516.70  4531.92  4628.10
                             4649.97

 Zero-point correction=                           0.156587 (Hartree/Particle)
 Thermal correction to Energy=                    0.165801
 Thermal correction to Enthalpy=                  0.166745
 Thermal correction to Gibbs Free Energy=         0.122248
 Sum of electronic and zero-point Energies=           -423.004537
 Sum of electronic and thermal Energies=              -422.995322
 Sum of electronic and thermal Enthalpies=            -422.994378
 Sum of electronic and thermal Free Energies=         -423.038876

                     E (Thermal)             CV                S
                      KCal/Mol        Cal/Mol-Kelvin    Cal/Mol-Kelvin
 Total                  104.042             33.842             93.653
 Electronic               0.000              0.000              0.000
 Translational            0.889              2.981             40.409
 Rotational               0.889              2.981             29.134
 Vibrational            102.264             27.881             24.110
 Vibration     1          0.597              1.971              4.324
 Vibration     2          0.603              1.952              3.528
 Vibration     3          0.619              1.901              2.655
 Vibration     4          0.635              1.848              2.185
 Vibration     5          0.646              1.815              1.985
 Vibration     6          0.672              1.734              1.617
 Vibration     7          0.699              1.656              1.365
 Vibration     8          0.708              1.630              1.296
 Vibration     9          0.731              1.564              1.142
 Vibration    10          0.819              1.335              0.761
 Vibration    11          0.881              1.193              0.597
 Vibration    12          0.892              1.169              0.572

 Optimization completed.
    -- Stationary point found.
 Normal termination of Gaussian 09 at Mon Jan 27 17:15:39 2020.
