 Gaussian 09, Revision D.01,
 Gaussian 09:  ES64L-G09RevD.01 24-Apr-2013

 -----------------------------
 # b3lyp 6-31G(2df,p) opt Freq
 -----------------------------

 -----
 titel
 -----
 Symbolic Z-matrix:
 Charge =  0 Multiplicity = 1

 SCF Done:  E(RB3LYP) =  -423.113071667     A.U. after   13 cycles
 Optimization completed.
    -- Stationary point found.
 Normal termination of Gaussian 09 at Tue Jan 28 10:00:24 2020.

 ----------------------------------------------------------------------
 #N Geom=AllCheck Guess=TCheck SCRF=Check GenChk RB3LYP/6-31G(2df,p) Fr
 eq
 ----------------------------------------------------------------------

 Structure from the checkpoint file:  "/scratch/puck/g09_91e8c6cf-726d-4b36-95ed-c7002ba0ea86/Gau-106778.chk"
 -----
 titel
 -----
 Charge =  0 Multiplicity = 1

                         Standard orientation:
 ---------------------------------------------------------------------
 Center     Atomic      Atomic             Coordinates (Angstroms)
 Number     Number       Type             X           Y           Z
 ---------------------------------------------------------------------
      1          6           0        2.908919   -0.633934   -0.162452
      2          6           0        1.479837   -0.314042   -0.581921
      3          6           0        0.401686   -0.861805    0.359549
      4          6           0        0.412969    0.415380    1.202830
      5          6           0        0.969326    1.078702   -0.113778
      6          8           0       -0.371901    1.159858   -0.674178
      7          6           0       -0.742172    0.165594    0.294684
      8          6           0       -2.195508   -0.101407    0.492145
      9          8           0       -2.785194   -0.717328   -0.642170
     10          1           0        3.141597   -1.690493   -0.330159
     11          1           0        3.627888   -0.040641   -0.738207
     12          1           0        3.067714   -0.423369    0.900864
     13          1           0        1.332826   -0.495826   -1.652961
     14          1           0        0.242354   -1.880862    0.690219
     15          1           0        0.504149    0.612886    2.261801
     16          1           0        1.547881    1.994392   -0.224925
     17          1           0       -2.330097   -0.790078    1.332852
     18          1           0       -2.705852    0.840863    0.745071
     19          1           0       -2.582037   -0.158040   -1.400113
 ---------------------------------------------------------------------

 SCF Done:  E(RB3LYP) =  -423.113071667     A.U. after    1 cycles

 The electronic state is 1-A.
 Alpha  occ. eigenvalues --  -19.13730 -19.13320 -10.24471 -10.24085 -10.23296
 Alpha  occ. eigenvalues --  -10.19684 -10.19552 -10.19378 -10.17933  -1.06353
 Alpha  occ. eigenvalues --   -1.01396  -0.86150  -0.76812  -0.71563  -0.65300
 Alpha  occ. eigenvalues --   -0.63445  -0.55512  -0.53201  -0.52896  -0.49291
 Alpha  occ. eigenvalues --   -0.47364  -0.44743  -0.42797  -0.41815  -0.40519
 Alpha  occ. eigenvalues --   -0.38755  -0.37930  -0.34847  -0.34196  -0.32251
 Alpha  occ. eigenvalues --   -0.28927  -0.27874  -0.25921  -0.23296
 Alpha virt. eigenvalues --    0.06506   0.08756   0.10454   0.11126   0.11797
 Alpha virt. eigenvalues --    0.13778   0.14629   0.14748   0.15403   0.15923
 Alpha virt. eigenvalues --    0.17114   0.18614   0.19379   0.20069   0.22134

 Mulliken charges:
               1
     1  C   -0.408422
     2  C    0.005643
     3  C   -0.150043
     4  C   -0.220479
     5  C    0.058811
     6  O   -0.340598
     7  C    0.448313
     8  C   -0.193764
     9  O   -0.412722
    10  H    0.120132
    11  H    0.114995
    12  H    0.116756
    13  H    0.073096
    14  H    0.093104
    15  H    0.100218
    16  H    0.085313
    17  H    0.115088
    18  H    0.100338
    19  H    0.294222
 Sum of Mulliken charges =   0.00000

 Dipole moment (field-independent basis, Debye):
    X=              1.6590    Y=              0.2812    Z=              1.0930  Tot=              2.0065
 Quadrupole moment (field-independent basis, Debye-Ang):
   XX=            -55.4372   YY=            -54.3778   ZZ=            -50.5224
   XY=             -1.7221   XZ=             -1.2996   YZ=             -0.2475

  Exact polarizability:  87.707  -0.221  68.262  -2.607   0.116  68.370
 Approx polarizability: 111.832   1.491 107.254   0.735  -0.812 107.163

                      1                      2                      3
                      A                      A                      A
 Frequencies --     74.7984               114.3271               218.4358
 Red. masses --      3.8669                 4.0202                 2.2620
 Frc consts  --      0.0127                 0.0310                 0.0636
 IR Inten    --      3.5898                 0.6985                 0.7695

                      4                      5                      6
                      A                      A                      A
 Frequencies --    235.3667               240.9735               312.1758
 Red. masses --      1.4211                 1.6016                 1.7448
 Frc consts  --      0.0464                 0.0548                 0.1002
 IR Inten    --      2.3295                 4.0167                42.1080

                      7                      8                      9
                      A                      A                      A
 Frequencies --    370.5329               414.0956               500.4859
 Red. masses --      1.4739                 4.3411                 3.9262
 Frc consts  --      0.1192                 0.4386                 0.5794
 IR Inten    --     69.1650                21.3177                 0.9393

                     10                     11                     12
                      A                      A                      A
 Frequencies --    558.5410               701.1977               767.5305
 Red. masses --      4.5987                 2.9701                 3.1535
 Frc consts  --      0.8453                 0.8604                 1.0945
 IR Inten    --      6.3250                13.7468                 4.0469

                     13                     14                     15
                      A                      A                      A
 Frequencies --    779.3586               792.2102               834.7674
 Red. masses --      2.9892                 1.9700                 1.5487
 Frc consts  --      1.0697                 0.7285                 0.6359
 IR Inten    --      8.3301                 9.0215                 3.4668

                     16                     17                     18
                      A                      A                      A
 Frequencies --    872.9111               911.5399               914.7434
 Red. masses --      2.2757                 2.3696                 1.9178
 Frc consts  --      1.0216                 1.1601                 0.9455
 IR Inten    --     15.5753                 4.0318                23.2097

                     19                     20                     21
                      A                      A                      A
 Frequencies --    948.1623               983.7021              1011.0467
 Red. masses --      2.6755                 2.8488                 1.7929
 Frc consts  --      1.4172                 1.6242                 1.0798
 IR Inten    --     48.7955                13.0206                16.3455

                     22                     23                     24
                      A                      A                      A
 Frequencies --   1038.5068              1060.2449              1068.0726
 Red. masses --      2.5795                 3.4015                 1.8299
 Frc consts  --      1.6391                 2.2528                 1.2299
 IR Inten    --     10.5410                83.9480                 4.8117

                     25                     26                     27
                      A                      A                      A
 Frequencies --   1077.3930              1110.4016              1128.6932
 Red. masses --      1.7693                 2.0327                 2.1092
 Frc consts  --      1.2100                 1.4767                 1.5832
 IR Inten    --      4.1564                 0.5270                10.6795

                     28                     29                     30
                      A                      A                      A
 Frequencies --   1150.2536              1171.4242              1225.1302
 Red. masses --      2.0179                 1.5571                 1.1974
 Frc consts  --      1.5730                 1.2589                 1.0589
 IR Inten    --      4.1944                 0.8092                 9.2606

                     31                     32                     33
                      A                      A                      A
 Frequencies --   1246.3562              1280.1805              1292.1530
 Red. masses --      1.8538                 1.6532                 1.7495
 Frc consts  --      1.6967                 1.5963                 1.7210
 IR Inten    --      4.5853                 4.9051                16.7993

                     34                     35                     36
                      A                      A                      A
 Frequencies --   1368.4854              1374.7106              1400.7781
 Red. masses --      1.6378                 1.2404                 1.5421
 Frc consts  --      1.8071                 1.3812                 1.7828
 IR Inten    --      6.5626                 5.7235                54.7911

                     37                     38                     39
                      A                      A                      A
 Frequencies --   1411.1234              1466.3527              1490.6137
 Red. masses --      1.2484                 2.8566                 1.1197
 Frc consts  --      1.4647                 3.6189                 1.4658
 IR Inten    --      0.5437                17.3796                 1.7623

                     40                     41                     42
                      A                      A                      A
 Frequencies --   1495.1671              1500.3610              2987.8713
 Red. masses --      1.0504                 1.0494                 1.0691
 Frc consts  --      1.3835                 1.3918                 5.6235
 IR Inten    --      3.1718                 2.8854                57.6647

                     43                     44                     45
                      A                      A                      A
 Frequencies --   3028.3621              3040.1762              3078.0206
 Red. masses --      1.0351                 1.0839                 1.0930
 Frc consts  --      5.5933                 5.9026                 6.1013
 IR Inten    --     29.5239                30.5831                18.5836

                     46                     47                     48
                      A                      A                      A
 Frequencies --   3094.8129              3100.2406              3135.5241
 Red. masses --      1.1013                 1.1009                 1.0924
 Frc consts  --      6.2145                 6.2345                 6.3277
 IR Inten    --     26.1878                31.4106                36.3023

                     49                     50                     51
                      A                      A                      A
 Frequencies --   3193.2973              3210.8388              3808.2496
 Red. masses --      1.0908                 1.1000                 1.0661
 Frc consts  --      6.5538                 6.6817                 9.1099
 IR Inten    --     11.0926                 6.7216                25.2843

 - Thermochemistry -
 -------------------
 Temperature   298.150 Kelvin.  Pressure   1.00000 Atm.
 Atom     1 has atomic number  6 and mass  12.00000

 Molecular mass:   126.06808 amu.
 Principal axes and moments of inertia in atomic units:
                           1         2         3
     Eigenvalues --   461.141411592.271181657.48446
           X            0.99984  -0.01407  -0.01107
           Y            0.01436   0.99955   0.02624
           Z            0.01070  -0.02639   0.99959
 This molecule is an asymmetric top.
 Rotational symmetry number  1.
 Warning -- assumption of classical behavior for rotation
           may cause significant error
 Rotational temperatures (Kelvin)      0.18782     0.05440     0.05226
 Rotational constants (GHZ):           3.91364     1.13344     1.08884
 Zero-point vibrational energy     416244.8 (Joules/Mol)
                                   99.48490 (Kcal/Mol)
 Warning -- explicit consideration of  10 degrees of freedom as
           vibrations may cause significant error
 Vibrational temperatures:    107.62   164.49   314.28   338.64   346.71
          (Kelvin)            449.15   533.11   595.79   720.09   803.61
                             1008.87  1104.30  1121.32  1139.81  1201.04
                             1255.92  1311.50  1316.11  1364.19  1415.33
                             1454.67  1494.18  1525.45  1536.72  1550.13
                             1597.62  1623.94  1654.96  1685.42  1762.69
                             1793.23  1841.89  1859.12  1968.94  1977.90
                             2015.40  2030.29  2109.75  2144.66  2151.21
                             2158.68  4298.88  4357.13  4374.13  4428.58
                             4452.74  4460.55  4511.31  4594.44  4619.68
                             5479.21

 Zero-point correction=                           0.158539 (Hartree/Particle)
 Thermal correction to Energy=                    0.166874
 Thermal correction to Enthalpy=                  0.167818
 Thermal correction to Gibbs Free Energy=         0.125537
 Sum of electronic and zero-point Energies=           -422.954532
 Sum of electronic and thermal Energies=              -422.946198
 Sum of electronic and thermal Enthalpies=            -422.945254
 Sum of electronic and thermal Free Energies=         -422.987535

                     E (Thermal)             CV                S
                      KCal/Mol        Cal/Mol-Kelvin    Cal/Mol-Kelvin
 Total                  104.715             32.095             88.988
 Electronic               0.000              0.000              0.000
 Translational            0.889              2.981             40.409
 Rotational               0.889              2.981             28.589
 Vibrational            102.937             26.134             19.991
 Vibration     1          0.599              1.966              4.023
 Vibration     2          0.607              1.938              3.194
 Vibration     3          0.646              1.813              1.972
 Vibration     4          0.655              1.787              1.838
 Vibration     5          0.658              1.778              1.796
 Vibration     6          0.701              1.650              1.351
 Vibration     7          0.743              1.533              1.078
 Vibration     8          0.778              1.440              0.912
 Vibration     9          0.856              1.249              0.657
 Vibration    10          0.914              1.121              0.527

 Normal termination of Gaussian 09 at Tue Jan 28 10:42:04 2020.
