 Gaussian 09, Revision D.01,
 Gaussian 09:  ES64L-G09RevD.01 24-Apr-2013

 -----------------------------
 # b3lyp 6-31G(2df,p) opt Freq
 -----------------------------

 -----
 titel
 -----
 Symbolic Z-matrix:
 Charge =  0 Multiplicity = 1

 SCF Done:  E(RB3LYP) =  -423.162234755     A.U. after   14 cycles
 Optimization completed.
    -- Stationary point found.
 Normal termination of Gaussian 09 at Mon Jan 27 11:28:33 2020.

 ----------------------------------------------------------------------
 #N Geom=AllCheck Guess=TCheck SCRF=Check GenChk RB3LYP/6-31G(2df,p) Fr
 eq
 ----------------------------------------------------------------------

 Structure from the checkpoint file:  "/scratch/puck/g09_f146199d-9763-4800-aca8-cc01b229162c/Gau-61257.chk"
 -----
 titel
 -----
 Charge =  0 Multiplicity = 1

                         Standard orientation:
 ---------------------------------------------------------------------
 Center     Atomic      Atomic             Coordinates (Angstroms)
 Number     Number       Type             X           Y           Z
 ---------------------------------------------------------------------
      1          6           0       -2.348819   -0.057734   -0.305255
      2          6           0       -1.201510   -0.841941    0.243549
      3          8           0       -0.237624   -1.261282   -0.675602
      4          6           0        0.989973   -1.571055   -0.064629
      5          8           0        1.541779   -0.516334    0.661927
      6          6           0        1.897933    0.618097   -0.107558
      7          6           0        0.843923    1.675790   -0.282627
      8          6           0       -0.455281    1.682043    0.016436
      9          6           0       -1.316440    0.616581    0.595953
     10          1           0       -2.294464    0.180520   -1.361866
     11          1           0       -3.346531   -0.248752    0.073724
     12          1           0       -1.396548   -1.566470    1.035690
     13          1           0        0.873758   -2.388864    0.660925
     14          1           0        1.645861   -1.882697   -0.890128
     15          1           0        2.753356    1.073826    0.408999
     16          1           0        2.267679    0.302721   -1.098852
     17          1           0        1.256737    2.587675   -0.714758
     18          1           0       -0.991922    2.608572   -0.187606
     19          1           0       -1.659842    0.823711    1.608060
 ---------------------------------------------------------------------

 SCF Done:  E(RB3LYP) =  -423.162234755     A.U. after    1 cycles

 The electronic state is 1-A.
 Alpha  occ. eigenvalues --  -19.14770 -19.14592 -10.27263 -10.23457 -10.23335
 Alpha  occ. eigenvalues --  -10.19007 -10.18285 -10.18219 -10.18108  -1.07292
 Alpha  occ. eigenvalues --   -1.01337  -0.85500  -0.77679  -0.71897  -0.65085
 Alpha  occ. eigenvalues --   -0.61408  -0.59180  -0.52400  -0.52069  -0.50498
 Alpha  occ. eigenvalues --   -0.48194  -0.47393  -0.45106  -0.41031  -0.40032
 Alpha  occ. eigenvalues --   -0.39430  -0.38058  -0.35720  -0.32941  -0.31119
 Alpha  occ. eigenvalues --   -0.29451  -0.26895  -0.25396  -0.23648
 Alpha virt. eigenvalues --    0.02318   0.09520   0.09783   0.11335   0.13589
 Alpha virt. eigenvalues --    0.14504   0.14879   0.15879   0.16079   0.16304
 Alpha virt. eigenvalues --    0.17658   0.18675   0.19787   0.20322   0.24220

 Mulliken charges:
               1
     1  C   -0.332526
     2  C    0.128206
     3  O   -0.234747
     4  C   -0.008291
     5  O   -0.220198
     6  C   -0.133938
     7  C   -0.037414
     8  C   -0.075531
     9  C   -0.092314
    10  H    0.127082
    11  H    0.112142
    12  H    0.082830
    13  H    0.096987
    14  H    0.096997
    15  H    0.117004
    16  H    0.103237
    17  H    0.084910
    18  H    0.089021
    19  H    0.096543
 Sum of Mulliken charges =   0.00000

 Dipole moment (field-independent basis, Debye):
    X=              0.0557    Y=              0.2737    Z=              0.0282  Tot=              0.2807
 Quadrupole moment (field-independent basis, Debye-Ang):
   XX=            -49.4202   YY=            -51.1103   ZZ=            -54.6092
   XY=              0.3331   XZ=             -3.5951   YZ=             -1.7603

  Exact polarizability:  95.687   1.277  78.919  -5.208  -3.177  59.588
 Approx polarizability: 136.270   1.488 107.692  -7.870  -2.704  95.929

                      1                      2                      3
                      A                      A                      A
 Frequencies --     94.4043               219.7565               224.3953
 Red. masses --      2.3393                 3.5674                 6.8196
 Frc consts  --      0.0123                 0.1015                 0.2023
 IR Inten    --      2.1079                 0.5191                 6.1705

                      4                      5                      6
                      A                      A                      A
 Frequencies --    277.0947               308.7498               368.8691
 Red. masses --      2.7404                 4.1106                 3.4219
 Frc consts  --      0.1240                 0.2309                 0.2743
 IR Inten    --      0.6960                 0.6397                 3.4336

                      7                      8                      9
                      A                      A                      A
 Frequencies --    438.5034               477.3398               603.8689
 Red. masses --      1.8847                 2.6120                 4.6226
 Frc consts  --      0.2135                 0.3507                 0.9932
 IR Inten    --      3.1521                 4.3293                 7.5256

                     10                     11                     12
                      A                      A                      A
 Frequencies --    647.6743               705.8579               754.2835
 Red. masses --      3.3435                 1.9384                 1.6220
 Frc consts  --      0.8263                 0.5690                 0.5437
 IR Inten    --      3.3213                22.0949                 1.8375

                     13                     14                     15
                      A                      A                      A
 Frequencies --    798.1246               825.7717               841.1761
 Red. masses --      2.9936                 3.2465                 1.5428
 Frc consts  --      1.1235                 1.3043                 0.6432
 IR Inten    --      6.3550                 3.8787                 9.9068

                     16                     17                     18
                      A                      A                      A
 Frequencies --    887.3098               977.1445               998.7127
 Red. masses --      3.4777                 3.2951                 2.4061
 Frc consts  --      1.6132                 1.8537                 1.4140
 IR Inten    --      4.6748                14.0904                24.6781

                     19                     20                     21
                      A                      A                      A
 Frequencies --   1004.9393              1028.8458              1049.5616
 Red. masses --      1.4525                 1.9037                 1.4777
 Frc consts  --      0.8642                 1.1873                 0.9591
 IR Inten    --     12.2112                 6.6090                 6.6461

                     22                     23                     24
                      A                      A                      A
 Frequencies --   1068.4356              1083.4339              1111.4556
 Red. masses --      2.6100                 2.4295                 1.8464
 Frc consts  --      1.7554                 1.6802                 1.3439
 IR Inten    --     36.8902                57.6144                61.9939

                     25                     26                     27
                      A                      A                      A
 Frequencies --   1127.6689              1148.9166              1167.9287
 Red. masses --      1.3090                 1.8579                 2.7278
 Frc consts  --      0.9807                 1.4450                 2.1922
 IR Inten    --     15.8713                44.6808                81.8869

                     28                     29                     30
                      A                      A                      A
 Frequencies --   1197.4498              1235.0186              1270.8824
 Red. masses --      1.8605                 1.5293                 1.1119
 Frc consts  --      1.5718                 1.3743                 1.0581
 IR Inten    --     36.0485                25.9533                 3.7094

                     31                     32                     33
                      A                      A                      A
 Frequencies --   1304.9967              1333.8624              1370.0732
 Red. masses --      1.2804                 1.1536                 1.3065
 Frc consts  --      1.2847                 1.2093                 1.4449
 IR Inten    --     35.5227                 3.3564                 5.9181

                     34                     35                     36
                      A                      A                      A
 Frequencies --   1406.4785              1413.5411              1433.4271
 Red. masses --      1.3985                 1.3695                 1.5702
 Frc consts  --      1.6300                 1.6122                 1.9009
 IR Inten    --      1.8544                32.0040                 4.9861

                     37                     38                     39
                      A                      A                      A
 Frequencies --   1449.3161              1473.8644              1490.1246
 Red. masses --      1.1859                 1.1089                 1.5194
 Frc consts  --      1.4677                 1.4193                 1.9878
 IR Inten    --      8.5149                12.1146                10.4275

                     40                     41                     42
                      A                      A                      A
 Frequencies --   1506.8163              1739.8293              2956.2379
 Red. masses --      1.1412                 7.4670                 1.0689
 Frc consts  --      1.5266                13.3171                 5.5041
 IR Inten    --      5.8236                 3.6540                41.8367

                     43                     44                     45
                      A                      A                      A
 Frequencies --   2991.4593              3029.8561              3041.1702
 Red. masses --      1.0528                 1.0904                 1.1118
 Frc consts  --      5.5508                 5.8977                 6.0582
 IR Inten    --     91.0709                30.0270                40.0639

                     46                     47                     48
                      A                      A                      A
 Frequencies --   3087.9739              3110.4526              3117.8513
 Red. masses --      1.0867                 1.0817                 1.0860
 Frc consts  --      6.1051                 6.1663                 6.2199
 IR Inten    --     29.2635                 5.0556                22.0461

                     49                     50                     51
                      A                      A                      A
 Frequencies --   3135.5301              3136.7461              3227.6005
 Red. masses --      1.0793                 1.0683                 1.1171
 Frc consts  --      6.2519                 6.1929                 6.8566
 IR Inten    --     33.4587                16.0709                 8.2504

 - Thermochemistry -
 -------------------
 Temperature   298.150 Kelvin.  Pressure   1.00000 Atm.
 Atom     1 has atomic number  6 and mass  12.00000

 Molecular mass:   126.06808 amu.
 Principal axes and moments of inertia in atomic units:
                           1         2         3
     Eigenvalues --   722.41550 998.965271505.99960
           X            0.99981   0.00343  -0.01899
           Y           -0.00379   0.99981  -0.01891
           Z            0.01892   0.01898   0.99964
 This molecule is an asymmetric top.
 Rotational symmetry number  1.
 Warning -- assumption of classical behavior for rotation
           may cause significant error
 Rotational temperatures (Kelvin)      0.11989     0.08670     0.05751
 Rotational constants (GHZ):           2.49820     1.80661     1.19837
 Zero-point vibrational energy     422884.6 (Joules/Mol)
                                  101.07184 (Kcal/Mol)
 Warning -- explicit consideration of   9 degrees of freedom as
           vibrations may cause significant error
 Vibrational temperatures:    135.83   316.18   322.85   398.68   444.22
          (Kelvin)            530.72   630.91   686.78   868.83   931.86
                             1015.57  1085.24  1148.32  1188.10  1210.26
                             1276.64  1405.89  1436.92  1445.88  1480.28
                             1510.08  1537.24  1558.82  1599.13  1622.46
                             1653.03  1680.39  1722.86  1776.91  1828.51
                             1877.60  1919.13  1971.23  2023.61  2033.77
                             2062.38  2085.24  2120.56  2143.95  2167.97
                             2503.22  4253.36  4304.04  4359.28  4375.56
                             4442.90  4475.24  4485.89  4511.32  4513.07
                             4643.79

 Zero-point correction=                           0.161068 (Hartree/Particle)
 Thermal correction to Energy=                    0.168620
 Thermal correction to Enthalpy=                  0.169564
 Thermal correction to Gibbs Free Energy=         0.129151
 Sum of electronic and zero-point Energies=           -423.001167
 Sum of electronic and thermal Energies=              -422.993615
 Sum of electronic and thermal Enthalpies=            -422.992670
 Sum of electronic and thermal Free Energies=         -423.033084

                     E (Thermal)             CV                S
                      KCal/Mol        Cal/Mol-Kelvin    Cal/Mol-Kelvin
 Total                  105.811             30.020             85.058
 Electronic               0.000              0.000              0.000
 Translational            0.889              2.981             40.409
 Rotational               0.889              2.981             28.476
 Vibrational            104.033             24.058             16.173
 Vibration     1          0.603              1.953              3.567
 Vibration     2          0.647              1.811              1.961
 Vibration     3          0.649              1.804              1.923
 Vibration     4          0.678              1.716              1.552
 Vibration     5          0.698              1.657              1.369
 Vibration     6          0.741              1.536              1.084
 Vibration     7          0.799              1.386              0.831
 Vibration     8          0.834              1.300              0.717
 Vibration     9          0.962              1.024              0.443

 Optimization completed.
    -- Stationary point found.
 Normal termination of Gaussian 09 at Mon Jan 27 13:33:58 2020.
