 Gaussian 09, Revision D.01,
 Gaussian 09:  ES64L-G09RevD.01 24-Apr-2013

 -----------------------------
 # b3lyp 6-31G(2df,p) opt Freq
 -----------------------------

 -----
 titel
 -----
 Symbolic Z-matrix:
 Charge =  0 Multiplicity = 1

 SCF Done:  E(RB3LYP) =  -423.219072384     A.U. after   14 cycles
 Optimization completed.
    -- Stationary point found.
 Normal termination of Gaussian 09 at Tue Jan 28 08:52:04 2020.

 ----------------------------------------------------------------------
 #N Geom=AllCheck Guess=TCheck SCRF=Check GenChk RB3LYP/6-31G(2df,p) Fr
 eq
 ----------------------------------------------------------------------

 Structure from the checkpoint file:  "/scratch/puck/g09_98f9b33b-d2ad-463f-8499-0b7e331c9abf/Gau-103612.chk"
 -----
 titel
 -----
 Charge =  0 Multiplicity = 1

                         Standard orientation:
 ---------------------------------------------------------------------
 Center     Atomic      Atomic             Coordinates (Angstroms)
 Number     Number       Type             X           Y           Z
 ---------------------------------------------------------------------
      1          6           0        1.153978    1.158339    1.223994
      2          6           0        0.525206    0.288353    0.119013
      3          6           0        1.573937   -0.012234   -0.978299
      4          8           0        2.694709   -0.739281   -0.503769
      5          6           0       -0.741787    0.933651   -0.491065
      6          6           0       -1.907773   -0.014796   -0.157393
      7          8           0       -3.068980    0.165500   -0.439152
      8          6           0       -1.322544   -1.172006    0.557976
      9          6           0       -0.003438   -1.009120    0.702257
     10          1           0        1.536036    2.097906    0.808247
     11          1           0        0.417563    1.405237    1.994262
     12          1           0        1.981592    0.637796    1.717654
     13          1           0        1.116434   -0.636044   -1.753615
     14          1           0        1.879094    0.933873   -1.451564
     15          1           0        3.271577   -0.131871   -0.031956
     16          1           0       -0.950887    1.929140   -0.089476
     17          1           0       -0.677559    1.041522   -1.579807
     18          1           0       -1.919641   -2.010433    0.893640
     19          1           0        0.674490   -1.710003    1.177091
 ---------------------------------------------------------------------

 SCF Done:  E(RB3LYP) =  -423.219072384     A.U. after    1 cycles

 The electronic state is 1-A.
 Alpha  occ. eigenvalues --  -19.14932 -19.11849 -10.26101 -10.23933 -10.21202
 Alpha  occ. eigenvalues --  -10.20874 -10.19285 -10.19095 -10.19018  -1.03054
 Alpha  occ. eigenvalues --   -1.02884  -0.86269  -0.76479  -0.71496  -0.69487
 Alpha  occ. eigenvalues --   -0.62959  -0.56013  -0.54269  -0.50219  -0.48923
 Alpha  occ. eigenvalues --   -0.47018  -0.44823  -0.42765  -0.41480  -0.41094
 Alpha  occ. eigenvalues --   -0.39557  -0.38513  -0.36387  -0.36118  -0.34915
 Alpha  occ. eigenvalues --   -0.33112  -0.29075  -0.26641  -0.23746
 Alpha virt. eigenvalues --   -0.04474   0.05397   0.06275   0.09811   0.11905
 Alpha virt. eigenvalues --    0.13005   0.14021   0.14284   0.15361   0.15940
 Alpha virt. eigenvalues --    0.17718   0.18253   0.18406   0.20479   0.22182

 Mulliken charges:
               1
     1  C   -0.451241
     2  C    0.229127
     3  C   -0.106331
     4  O   -0.422315
     5  C   -0.399513
     6  C    0.379994
     7  O   -0.328468
     8  C   -0.201700
     9  C   -0.057885
    10  H    0.118054
    11  H    0.129339
    12  H    0.114424
    13  H    0.115863
    14  H    0.094869
    15  H    0.289163
    16  H    0.128057
    17  H    0.128096
    18  H    0.116061
    19  H    0.124406
 Sum of Mulliken charges =   0.00000

 Dipole moment (field-independent basis, Debye):
    X=              3.3954    Y=              0.9554    Z=              1.1314  Tot=              3.7043
 Quadrupole moment (field-independent basis, Debye-Ang):
   XX=            -64.0037   YY=            -52.0037   ZZ=            -52.2213
   XY=              5.4619   XZ=             -0.2644   YZ=             -1.5043

  Exact polarizability:  99.390   2.511  71.194   5.438  -5.027  63.704
 Approx polarizability: 157.156  -2.156 105.787  13.762  -8.341  95.537

                      1                      2                      3
                      A                      A                      A
 Frequencies --     41.4230               120.9496               188.0501
 Red. masses --      4.5455                 3.2845                 3.2911
 Frc consts  --      0.0046                 0.0283                 0.0686
 IR Inten    --      3.5073                 1.8567                 7.9380

                      4                      5                      6
                      A                      A                      A
 Frequencies --    237.5854               246.5893               295.2765
 Red. masses --      1.7120                 1.5693                 1.2552
 Frc consts  --      0.0569                 0.0562                 0.0645
 IR Inten    --      4.2742                24.8725                81.5479

                      7                      8                      9
                      A                      A                      A
 Frequencies --    329.3462               346.4413               369.3874
 Red. masses --      2.2762                 1.7751                 4.6795
 Frc consts  --      0.1455                 0.1255                 0.3762
 IR Inten    --      0.7716                16.6175                 1.6971

                     10                     11                     12
                      A                      A                      A
 Frequencies --    422.1791               507.2532               600.1440
 Red. masses --      2.0832                 3.8010                 2.8636
 Frc consts  --      0.2188                 0.5762                 0.6077
 IR Inten    --      0.2745                 5.4604                 0.3437

                     13                     14                     15
                      A                      A                      A
 Frequencies --    641.6165               691.6611               806.5802
 Red. masses --      3.5813                 4.9573                 4.1837
 Frc consts  --      0.8687                 1.3973                 1.6036
 IR Inten    --      4.1246                 1.2761                 6.0514

                     16                     17                     18
                      A                      A                      A
 Frequencies --    829.8684               834.8801               895.6384
 Red. masses --      2.1735                 1.8054                 2.2593
 Frc consts  --      0.8819                 0.7414                 1.0678
 IR Inten    --     16.5208                22.4972                11.8429

                     19                     20                     21
                      A                      A                      A
 Frequencies --    910.3245               955.2944               979.5683
 Red. masses --      1.6998                 1.8263                 1.4806
 Frc consts  --      0.8299                 0.9820                 0.8371
 IR Inten    --      5.6094                 5.4769                15.6659

                     22                     23                     24
                      A                      A                      A
 Frequencies --   1012.1024              1072.3075              1079.1772
 Red. masses --      1.4515                 4.7509                 1.3318
 Frc consts  --      0.8760                 3.2186                 0.9138
 IR Inten    --      3.5446               102.7565                 9.3523

                     25                     26                     27
                      A                      A                      A
 Frequencies --   1101.4302              1135.6264              1177.5781
 Red. masses --      1.6424                 1.4274                 2.5896
 Frc consts  --      1.1739                 1.0846                 2.1157
 IR Inten    --      6.3862                 7.0806                53.3394

                     28                     29                     30
                      A                      A                      A
 Frequencies --   1217.0788              1240.3322              1261.4973
 Red. masses --      1.7108                 2.0653                 1.7933
 Frc consts  --      1.4931                 1.8720                 1.6814
 IR Inten    --      9.7128                 1.7158                 4.3425

                     31                     32                     33
                      A                      A                      A
 Frequencies --   1290.7711              1359.0245              1382.3089
 Red. masses --      1.9675                 1.7897                 1.2775
 Frc consts  --      1.9313                 1.9475                 1.4383
 IR Inten    --      9.4299                14.6779                 5.7797

                     34                     35                     36
                      A                      A                      A
 Frequencies --   1405.6530              1413.3825              1453.3035
 Red. masses --      1.2049                 1.2403                 1.0921
 Frc consts  --      1.4027                 1.4598                 1.3590
 IR Inten    --     11.3002                28.8739                10.0732

                     37                     38                     39
                      A                      A                      A
 Frequencies --   1490.3235              1497.6630              1508.4119
 Red. masses --      1.0642                 1.0651                 1.0570
 Frc consts  --      1.3927                 1.4076                 1.4169
 IR Inten    --      3.6382                 0.3949                 5.1446

                     40                     41                     42
                      A                      A                      A
 Frequencies --   1648.3744              1816.4566              2984.1567
 Red. masses --      6.8461                12.4376                 1.0675
 Frc consts  --     10.9598                24.1790                 5.6010
 IR Inten    --     23.6447               307.3593                43.8558

                     43                     44                     45
                      A                      A                      A
 Frequencies --   3026.2670              3050.4523              3073.1044
 Red. masses --      1.0359                 1.0636                 1.0962
 Frc consts  --      5.5896                 5.8312                 6.0993
 IR Inten    --     25.8919                 8.1066                24.4559

                     46                     47                     48
                      A                      A                      A
 Frequencies --   3093.1919              3097.9916              3108.3419
 Red. masses --      1.1011                 1.0996                 1.1004
 Frc consts  --      6.2070                 6.2181                 6.2640
 IR Inten    --     19.1303                 8.9011                20.8368

                     49                     50                     51
                      A                      A                      A
 Frequencies --   3195.7658              3225.5581              3834.1440
 Red. masses --      1.0872                 1.1032                 1.0664
 Frc consts  --      6.5417                 6.7628                 9.2362
 IR Inten    --      2.5719                 6.0670                25.4446

 - Thermochemistry -
 -------------------
 Temperature   298.150 Kelvin.  Pressure   1.00000 Atm.
 Atom     1 has atomic number  6 and mass  12.00000

 Molecular mass:   126.06808 amu.
 Principal axes and moments of inertia in atomic units:
                           1         2         3
     Eigenvalues --   544.330771719.884831784.38689
           X            0.99983   0.01825   0.00272
           Y           -0.01822   0.99977  -0.01119
           Z           -0.00292   0.01114   0.99993
 This molecule is an asymmetric top.
 Rotational symmetry number  1.
 Warning -- assumption of classical behavior for rotation
           may cause significant error
 Rotational temperatures (Kelvin)      0.15912     0.05036     0.04854
 Rotational constants (GHZ):           3.31552     1.04934     1.01141
 Zero-point vibrational energy     415713.3 (Joules/Mol)
                                   99.35786 (Kcal/Mol)
 Warning -- explicit consideration of  12 degrees of freedom as
           vibrations may cause significant error
 Vibrational temperatures:     59.60   174.02   270.56   341.83   354.79
          (Kelvin)            424.84   473.86   498.45   531.47   607.42
                              729.82   863.47   923.14   995.14  1160.49
                             1193.99  1201.20  1288.62  1309.75  1374.45
                             1409.38  1456.19  1542.81  1552.69  1584.71
                             1633.91  1694.27  1751.10  1784.56  1815.01
                             1857.13  1955.33  1988.83  2022.42  2033.54
                             2090.98  2144.24  2154.80  2170.27  2371.64
                             2613.47  4293.53  4354.12  4388.91  4421.51
                             4450.41  4457.31  4472.21  4597.99  4640.85
                             5516.47

 Zero-point correction=                           0.158337 (Hartree/Particle)
 Thermal correction to Energy=                    0.167402
 Thermal correction to Enthalpy=                  0.168346
 Thermal correction to Gibbs Free Energy=         0.124269
 Sum of electronic and zero-point Energies=           -423.060736
 Sum of electronic and thermal Energies=              -423.051670
 Sum of electronic and thermal Enthalpies=            -423.050726
 Sum of electronic and thermal Free Energies=         -423.094803

                     E (Thermal)             CV                S
                      KCal/Mol        Cal/Mol-Kelvin    Cal/Mol-Kelvin
 Total                  105.046             34.068             92.768
 Electronic               0.000              0.000              0.000
 Translational            0.889              2.981             40.409
 Rotational               0.889              2.981             28.903
 Vibrational            103.269             28.107             23.456
 Vibration     1          0.594              1.981              5.190
 Vibration     2          0.609              1.932              3.085
 Vibration     3          0.633              1.856              2.247
 Vibration     4          0.656              1.783              1.821
 Vibration     5          0.661              1.768              1.755
 Vibration     6          0.689              1.683              1.444
 Vibration     7          0.712              1.617              1.263
 Vibration     8          0.724              1.583              1.182
 Vibration     9          0.742              1.535              1.082
 Vibration    10          0.785              1.422              0.885
 Vibration    11          0.862              1.234              0.640
 Vibration    12          0.958              1.031              0.449

 Normal termination of Gaussian 09 at Tue Jan 28 09:34:52 2020.
