 Gaussian 09, Revision D.01,
 Gaussian 09:  ES64L-G09RevD.01 24-Apr-2013

 -----------------------------
 # b3lyp 6-31G(2df,p) opt Freq
 -----------------------------

 -----
 titel
 -----
 Symbolic Z-matrix:
 Charge =  0 Multiplicity = 1

 SCF Done:  E(RB3LYP) =  -423.155503128     A.U. after   14 cycles
 Optimization completed.
    -- Stationary point found.
 Normal termination of Gaussian 09 at Tue Jan 28 12:03:10 2020.

 ----------------------------------------------------------------------
 #N Geom=AllCheck Guess=TCheck SCRF=Check GenChk RB3LYP/6-31G(2df,p) Fr
 eq
 ----------------------------------------------------------------------

 Structure from the checkpoint file:  "/scratch/puck/g09_9be95362-8887-4344-9b60-3a1e4d6ecb28/Gau-845.chk"
 -----
 titel
 -----
 Charge =  0 Multiplicity = 1

                         Standard orientation:
 ---------------------------------------------------------------------
 Center     Atomic      Atomic             Coordinates (Angstroms)
 Number     Number       Type             X           Y           Z
 ---------------------------------------------------------------------
      1          6           0       -2.980132   -1.498734   -0.450871
      2          6           0       -2.943610   -0.272981    0.475923
      3          6           0       -1.881246    0.738361    0.074960
      4          8           0       -2.144059    1.871992   -0.266266
      5          6           0       -0.509146    0.263023    0.123827
      6          6           0        0.633012   -0.124785    0.169298
      7          6           0        2.001372   -0.615434    0.233324
      8          8           0        2.905192    0.388849   -0.168875
      9          6           0        4.243961   -0.052665   -0.120078
     10          1           0       -2.018499   -2.019571   -0.455288
     11          1           0       -3.746893   -2.203761   -0.118375
     12          1           0       -3.212502   -1.205955   -1.479199
     13          1           0       -3.901335    0.254069    0.472427
     14          1           0       -2.734361   -0.598031    1.503170
     15          1           0        2.218080   -0.949975    1.263823
     16          1           0        2.096357   -1.509763   -0.408485
     17          1           0        4.540955   -0.345240    0.899436
     18          1           0        4.415804   -0.910863   -0.788828
     19          1           0        4.868068    0.781648   -0.445849
 ---------------------------------------------------------------------

 SCF Done:  E(RB3LYP) =  -423.155503128     A.U. after    1 cycles

 The electronic state is 1-A.
 Alpha  occ. eigenvalues --  -19.15600 -19.13174 -10.28426 -10.26812 -10.23574
 Alpha  occ. eigenvalues --  -10.20593 -10.19504 -10.19286 -10.18809  -1.05068
 Alpha  occ. eigenvalues --   -1.04187  -0.80206  -0.78293  -0.73186  -0.67300
 Alpha  occ. eigenvalues --   -0.65526  -0.60324  -0.51369  -0.50135  -0.49529
 Alpha  occ. eigenvalues --   -0.48260  -0.45391  -0.43919  -0.42191  -0.41415
 Alpha  occ. eigenvalues --   -0.41082  -0.38272  -0.36304  -0.35279  -0.33860
 Alpha  occ. eigenvalues --   -0.28859  -0.28796  -0.26705  -0.25382
 Alpha virt. eigenvalues --   -0.04864   0.01815   0.08697   0.08779   0.11155
 Alpha virt. eigenvalues --    0.13186   0.14239   0.14670   0.15053   0.15732
 Alpha virt. eigenvalues --    0.16145   0.16657   0.18209   0.18532   0.20098

 Mulliken charges:
               1
     1  C   -0.386388
     2  C   -0.277222
     3  C    0.239403
     4  O   -0.281083
     5  C    0.145711
     6  C   -0.026580
     7  C   -0.203367
     8  O   -0.223306
     9  C   -0.221960
    10  H    0.129626
    11  H    0.124618
    12  H    0.132598
    13  H    0.124140
    14  H    0.119959
    15  H    0.124699
    16  H    0.124341
    17  H    0.108351
    18  H    0.108238
    19  H    0.138221
 Sum of Mulliken charges =   0.00000

 Dipole moment (field-independent basis, Debye):
    X=              1.7427    Y=             -3.9127    Z=              1.0352  Tot=              4.4066
 Quadrupole moment (field-independent basis, Debye-Ang):
   XX=            -43.0092   YY=            -58.5264   ZZ=            -52.6278
   XY=              2.3901   XZ=             -0.6908   YZ=              0.9822

  Exact polarizability: 122.361  -8.236  73.699   0.790  -1.941  58.831
 Approx polarizability: 158.797 -26.316 117.799   4.006  -7.831  87.141

                      1                      2                      3
                      A                      A                      A
 Frequencies --     26.8858                39.7965                65.2075
 Red. masses --      2.5622                 2.5788                 3.7754
 Frc consts  --      0.0011                 0.0024                 0.0095
 IR Inten    --      1.4169                 0.8323                 1.1006

                      4                      5                      6
                      A                      A                      A
 Frequencies --     72.7231               138.2969               157.2930
 Red. masses --      2.7987                 4.3011                 3.4071
 Frc consts  --      0.0087                 0.0485                 0.0497
 IR Inten    --      2.6107                 0.8005                 1.1556

                      7                      8                      9
                      A                      A                      A
 Frequencies --    222.2084               230.0572               267.0015
 Red. masses --      1.2081                 1.1602                 3.4269
 Frc consts  --      0.0351                 0.0362                 0.1439
 IR Inten    --      0.5499                 3.1149                 2.8290

                     10                     11                     12
                      A                      A                      A
 Frequencies --    326.6970               389.7703               416.2024
 Red. masses --      3.2597                 4.5061                 4.9883
 Frc consts  --      0.2050                 0.4033                 0.5091
 IR Inten    --      1.7396                 0.3621                 3.6476

                     13                     14                     15
                      A                      A                      A
 Frequencies --    487.1525               606.9993               686.8179
 Red. masses --      3.7119                 6.0581                 4.1605
 Frc consts  --      0.5190                 1.3151                 1.1563
 IR Inten    --      2.6837                10.2661                 2.5767

                     16                     17                     18
                      A                      A                      A
 Frequencies --    717.4016               811.6330               932.4321
 Red. masses --      3.5011                 1.3435                 2.1196
 Frc consts  --      1.0616                 0.5214                 1.0858
 IR Inten    --      4.2108                 3.0711                64.8799

                     19                     20                     21
                      A                      A                      A
 Frequencies --    980.0998              1014.2426              1023.8126
 Red. masses --      4.2704                 1.6654                 3.1703
 Frc consts  --      2.4169                 1.0094                 1.9579
 IR Inten    --     29.5429                 1.2476                20.1965

                     22                     23                     24
                      A                      A                      A
 Frequencies --   1077.7680              1085.7763              1153.3591
 Red. masses --      2.1101                 1.8622                 5.6175
 Frc consts  --      1.4441                 1.2935                 4.4027
 IR Inten    --      5.2571                 2.4507               173.0067

                     25                     26                     27
                      A                      A                      A
 Frequencies --   1182.1407              1219.5906              1231.5852
 Red. masses --      1.2774                 1.6431                 2.3868
 Frc consts  --      1.0517                 1.4399                 2.1331
 IR Inten    --      2.9466                80.7797               101.4678

                     28                     29                     30
                      A                      A                      A
 Frequencies --   1252.0395              1289.2384              1330.1067
 Red. masses --      1.0817                 1.4309                 1.5198
 Frc consts  --      0.9990                 1.4013                 1.5842
 IR Inten    --      4.0589                67.7204                 1.5386

                     31                     32                     33
                      A                      A                      A
 Frequencies --   1405.2140              1408.7432              1467.7137
 Red. masses --      1.3630                 1.2213                 1.0800
 Frc consts  --      1.5857                 1.4280                 1.3708
 IR Inten    --    121.4262                 8.1994                 3.2589

                     34                     35                     36
                      A                      A                      A
 Frequencies --   1474.7565              1485.2671              1488.2625
 Red. masses --      1.1391                 1.0468                 1.0798
 Frc consts  --      1.4596                 1.3606                 1.4091
 IR Inten    --      0.7611                 6.0020                 6.2382

                     37                     38                     39
                      A                      A                      A
 Frequencies --   1498.5802              1505.5935              1513.2940
 Red. masses --      1.0390                 1.0573                 1.0764
 Frc consts  --      1.3748                 1.4121                 1.4524
 IR Inten    --      5.3137                 6.6650                 4.4571

                     40                     41                     42
                      A                      A                      A
 Frequencies --   1764.7968              2331.1982              2941.6163
 Red. masses --     11.8045                11.9517                 1.0535
 Frc consts  --     21.6614                38.2682                 5.3712
 IR Inten    --    197.6326                67.4160                25.2185

                     43                     44                     45
                      A                      A                      A
 Frequencies --   2958.0165              2972.1460              3017.1466
 Red. masses --      1.1015                 1.0378                 1.1034
 Frc consts  --      5.6785                 5.4015                 5.9180
 IR Inten    --     35.6607                67.0055                55.0959

                     46                     47                     48
                      A                      A                      A
 Frequencies --   3032.0696              3044.5197              3099.4328
 Red. masses --      1.0637                 1.0343                 1.0979
 Frc consts  --      5.7615                 5.6486                 6.2143
 IR Inten    --      9.3121                21.7275                 2.0819

                     49                     50                     51
                      A                      A                      A
 Frequencies --   3117.4727              3123.7841              3127.9637
 Red. masses --      1.1026                 1.1019                 1.0958
 Frc consts  --      6.3137                 6.3350                 6.3168
 IR Inten    --     20.6421                33.7953                21.2020

 - Thermochemistry -
 -------------------
 Temperature   298.150 Kelvin.  Pressure   1.00000 Atm.
 Atom     1 has atomic number  6 and mass  12.00000

 Molecular mass:   126.06808 amu.
 Principal axes and moments of inertia in atomic units:
                           1         2         3
     Eigenvalues --   464.016123126.351933472.58504
           X            0.99992   0.01277   0.00083
           Y           -0.01278   0.99978   0.01672
           Z           -0.00062  -0.01673   0.99986
 This molecule is an asymmetric top.
 Rotational symmetry number  1.
 Warning -- assumption of classical behavior for rotation
           may cause significant error
 Rotational temperatures (Kelvin)      0.18666     0.02770     0.02494
 Rotational constants (GHZ):           3.88939     0.57727     0.51971
 Zero-point vibrational energy     407997.9 (Joules/Mol)
                                   97.51384 (Kcal/Mol)
 Warning -- explicit consideration of  14 degrees of freedom as
           vibrations may cause significant error
 Vibrational temperatures:     38.68    57.26    93.82   104.63   198.98
          (Kelvin)            226.31   319.71   331.00   384.16   470.04
                              560.79   598.82   700.90   873.34   988.18
                             1032.18  1167.76  1341.56  1410.14  1459.27
                             1473.04  1550.67  1562.19  1659.42  1700.83
                             1754.72  1771.97  1801.40  1854.92  1913.72
                             2021.79  2026.86  2111.71  2121.84  2136.97
                             2141.28  2156.12  2166.21  2177.29  2539.15
                             3354.07  4232.32  4255.92  4276.25  4341.00
                             4362.47  4380.38  4459.39  4485.34  4494.42
                             4500.44

 Zero-point correction=                           0.155398 (Hartree/Particle)
 Thermal correction to Energy=                    0.166418
 Thermal correction to Enthalpy=                  0.167362
 Thermal correction to Gibbs Free Energy=         0.116537
 Sum of electronic and zero-point Energies=           -423.000105
 Sum of electronic and thermal Energies=              -422.989085
 Sum of electronic and thermal Enthalpies=            -422.988141
 Sum of electronic and thermal Free Energies=         -423.038966

                     E (Thermal)             CV                S
                      KCal/Mol        Cal/Mol-Kelvin    Cal/Mol-Kelvin
 Total                  104.429             36.376            106.970
 Electronic               0.000              0.000              0.000
 Translational            0.889              2.981             40.409
 Rotational               0.889              2.981             30.000
 Vibrational            102.651             30.415             36.561
 Vibration     1          0.593              1.984              6.047
 Vibration     2          0.594              1.981              5.269
 Vibration     3          0.597              1.971              4.293
 Vibration     4          0.599              1.967              4.078
 Vibration     5          0.614              1.915              2.827
 Vibration     6          0.621              1.894              2.582
 Vibration     7          0.648              1.807              1.941
 Vibration     8          0.652              1.795              1.879
 Vibration     9          0.672              1.734              1.616
 Vibration    10          0.710              1.622              1.276
 Vibration    11          0.758              1.492              1.001
 Vibration    12          0.779              1.435              0.905
 Vibration    13          0.843              1.279              0.691
 Vibration    14          0.966              1.017              0.438

 Optimization completed.
    -- Stationary point found.
 Normal termination of Gaussian 09 at Tue Jan 28 12:37:04 2020.
