 Gaussian 09, Revision D.01,
 Gaussian 09:  ES64L-G09RevD.01 24-Apr-2013

 -----------------------------
 # b3lyp 6-31G(2df,p) opt Freq
 -----------------------------

 -----
 titel
 -----
 Symbolic Z-matrix:
 Charge =  0 Multiplicity = 1

 SCF Done:  E(RB3LYP) =  -423.190505886     A.U. after   14 cycles
 SCF Done:  E(RB3LYP) =  -423.190506155     A.U. after    8 cycles
 SCF Done:  E(RB3LYP) =  -423.190506003     A.U. after    7 cycles
 SCF Done:  E(RB3LYP) =  -423.190506325     A.U. after    7 cycles
 SCF Done:  E(RB3LYP) =  -423.190506328     A.U. after    6 cycles
 Optimization completed.
    -- Stationary point found.
 Normal termination of Gaussian 09 at Mon Jan 27 14:13:29 2020.

 ----------------------------------------------------------------------
 #N Geom=AllCheck Guess=TCheck SCRF=Check GenChk RB3LYP/6-31G(2df,p) Fr
 eq
 ----------------------------------------------------------------------

 Structure from the checkpoint file:  "/scratch/puck/g09_febfe537-67ca-43da-92cc-47ac04b7d5e0/Gau-160148.chk"
 -----
 titel
 -----
 Charge =  0 Multiplicity = 1

                         Standard orientation:
 ---------------------------------------------------------------------
 Center     Atomic      Atomic             Coordinates (Angstroms)
 Number     Number       Type             X           Y           Z
 ---------------------------------------------------------------------
      1          6           0       -4.574142   -0.772200   -0.288855
      2          6           0       -3.285512   -0.163638    0.010229
      3          6           0       -2.224276    0.344490    0.265107
      4          6           0       -0.924481    0.940413    0.552175
      5          6           0        0.221559    0.288117   -0.247661
      6          6           0        1.559163    0.952651    0.057407
      7          8           0        2.617598    0.395565   -0.753434
      8          6           0        3.226818   -0.696119   -0.271201
      9          8           0        2.980528   -1.252797    0.763716
     10          1           0       -5.037058   -1.189236    0.612404
     11          1           0       -5.272581   -0.041289   -0.711379
     12          1           0       -4.470781   -1.587257   -1.013801
     13          1           0       -0.956305    2.016690    0.332403
     14          1           0       -0.709600    0.858738    1.626237
     15          1           0        0.280847   -0.775258    0.000948
     16          1           0        0.011987    0.364494   -1.319396
     17          1           0        1.543248    2.014939   -0.200147
     18          1           0        1.823829    0.838525    1.111922
     19          1           0        4.006621   -1.004773   -0.984653
 ---------------------------------------------------------------------

 SCF Done:  E(RB3LYP) =  -423.190506328     A.U. after    1 cycles

 The electronic state is 1-A.
 Alpha  occ. eigenvalues --  -19.19046 -19.13468 -10.30936 -10.24470 -10.21073
 Alpha  occ. eigenvalues --  -10.20169 -10.19373 -10.17080 -10.16690  -1.10590
 Alpha  occ. eigenvalues --   -1.02231  -0.81388  -0.77041  -0.73630  -0.67956
 Alpha  occ. eigenvalues --   -0.63129  -0.58086  -0.53458  -0.48941  -0.47444
 Alpha  occ. eigenvalues --   -0.46891  -0.46046  -0.43527  -0.42525  -0.42391
 Alpha  occ. eigenvalues --   -0.41653  -0.39454  -0.37452  -0.36627  -0.34282
 Alpha  occ. eigenvalues --   -0.30616  -0.28182  -0.24725  -0.24687
 Alpha virt. eigenvalues --    0.00787   0.05968   0.06275   0.09271   0.11171
 Alpha virt. eigenvalues --    0.11275   0.12361   0.14199   0.14444   0.16383
 Alpha virt. eigenvalues --    0.17414   0.18163   0.18808   0.21604   0.21709

 Mulliken charges:
               1
     1  C   -0.497043
     2  C    0.114839
     3  C    0.022250
     4  C   -0.358086
     5  C   -0.187646
     6  C   -0.077212
     7  O   -0.206742
     8  C    0.182178
     9  O   -0.306391
    10  H    0.147542
    11  H    0.146347
    12  H    0.147333
    13  H    0.125107
    14  H    0.132519
    15  H    0.134373
    16  H    0.117950
    17  H    0.117408
    18  H    0.133976
    19  H    0.111298
 Sum of Mulliken charges =   0.00000

 Dipole moment (field-independent basis, Debye):
    X=             -0.9389    Y=              1.1816    Z=             -1.0488  Tot=              1.8378
 Quadrupole moment (field-independent basis, Debye-Ang):
   XX=            -48.3371   YY=            -53.0434   ZZ=            -54.2917
   XY=              4.7899   XZ=             -2.4949   YZ=              3.5608

  Exact polarizability: 112.023   5.911  69.935   2.639   0.968  63.013
 Approx polarizability: 137.565  14.198 106.610   6.765  -3.549 100.807

                      1                      2                      3
                      A                      A                      A
 Frequencies --     13.0233                35.0911                72.6048
 Red. masses --      1.0254                 6.2393                 3.8024
 Frc consts  --      0.0001                 0.0045                 0.0118
 IR Inten    --      0.0193                 1.3662                 1.3796

                      4                      5                      6
                      A                      A                      A
 Frequencies --     76.5897                99.7829               193.5936
 Red. masses --      3.7463                 2.1195                 3.1932
 Frc consts  --      0.0129                 0.0124                 0.0705
 IR Inten    --      0.7351                 0.4180                 2.3741

                      7                      8                      9
                      A                      A                      A
 Frequencies --    217.1605               281.1528               296.4955
 Red. masses --      2.7733                 3.4454                 3.3527
 Frc consts  --      0.0771                 0.1605                 0.1737
 IR Inten    --      8.8247                 5.0310                 8.6452

                     10                     11                     12
                      A                      A                      A
 Frequencies --    340.4511               384.3651               423.0551
 Red. masses --      3.3802                 4.0096                 5.6244
 Frc consts  --      0.2308                 0.3490                 0.5931
 IR Inten    --     14.6735                 0.0133                 7.9393

                     13                     14                     15
                      A                      A                      A
 Frequencies --    531.9988               742.8294               762.4466
 Red. masses --      4.4428                 1.3458                 3.3621
 Frc consts  --      0.7409                 0.4375                 1.1516
 IR Inten    --      8.5969                 4.8530                 0.2377

                     16                     17                     18
                      A                      A                      A
 Frequencies --    775.9409               872.3869               943.1876
 Red. masses --      2.4471                 1.4789                 5.1894
 Frc consts  --      0.8681                 0.6632                 2.7200
 IR Inten    --      4.5613                 1.7472                18.8646

                     19                     20                     21
                      A                      A                      A
 Frequencies --   1026.8729              1044.0049              1052.3992
 Red. masses --      3.3500                 1.7565                 1.3971
 Frc consts  --      2.0812                 1.1280                 0.9117
 IR Inten    --      3.2212                 1.3017                 0.9397

                     22                     23                     24
                      A                      A                      A
 Frequencies --   1053.1401              1068.8706              1119.3564
 Red. masses --      1.4438                 3.4392                 1.5767
 Frc consts  --      0.9434                 2.3150                 1.1640
 IR Inten    --      0.9631                 6.2912                 2.7402

                     25                     26                     27
                      A                      A                      A
 Frequencies --   1171.2214              1190.9152              1240.3654
 Red. masses --      3.3811                 3.7503                 1.5423
 Frc consts  --      2.7326                 3.1338                 1.3980
 IR Inten    --      0.4122               311.4399                62.7213

                     28                     29                     30
                      A                      A                      A
 Frequencies --   1278.1009              1314.5824              1332.9200
 Red. masses --      1.3372                 1.1225                 1.1101
 Frc consts  --      1.2870                 1.1429                 1.1620
 IR Inten    --     10.4616                 2.3463                 8.8105

                     31                     32                     33
                      A                      A                      A
 Frequencies --   1374.7909              1407.5918              1415.6826
 Red. masses --      1.4988                 1.1428                 1.2480
 Frc consts  --      1.6690                 1.3341                 1.4737
 IR Inten    --      9.8675                 3.2652                 6.0927

                     34                     35                     36
                      A                      A                      A
 Frequencies --   1420.8674              1476.7926              1479.0771
 Red. masses --      1.3632                 1.0851                 1.0397
 Frc consts  --      1.6215                 1.3943                 1.3401
 IR Inten    --      2.4647                 1.0508                 5.0269

                     37                     38                     39
                      A                      A                      A
 Frequencies --   1479.3108              1484.9839              1503.4503
 Red. masses --      1.0398                 1.0910                 1.0951
 Frc consts  --      1.3407                 1.4175                 1.4584
 IR Inten    --      5.1450                 5.7180                 4.1492

                     40                     41                     42
                      A                      A                      A
 Frequencies --   1819.8295              2376.2737              3006.7372
 Red. masses --      9.0845                11.8183                 1.0586
 Frc consts  --     17.7261                39.3187                 5.6384
 IR Inten    --    244.1878                 0.4315                25.2776

                     43                     44                     45
                      A                      A                      A
 Frequencies --   3026.2223              3030.1158              3034.9335
 Red. masses --      1.0349                 1.0902                 1.1001
 Frc consts  --      5.5841                 5.8976                 5.9703
 IR Inten    --     36.5364                70.0598                10.2817

                     46                     47                     48
                      A                      A                      A
 Frequencies --   3055.7881              3066.1550              3086.1622
 Red. masses --      1.0587                 1.0578                 1.1001
 Frc consts  --      5.8245                 5.8591                 6.1735
 IR Inten    --      4.2322                36.4039                11.2759

                     49                     50                     51
                      A                      A                      A
 Frequencies --   3086.6787              3100.8210              3126.2218
 Red. masses --      1.1001                 1.1038                 1.1093
 Frc consts  --      6.1755                 6.2531                 6.3874
 IR Inten    --     11.0586                 2.1228                24.8230

 - Thermochemistry -
 -------------------
 Temperature   298.150 Kelvin.  Pressure   1.00000 Atm.
 Atom     1 has atomic number  6 and mass  12.00000

 Molecular mass:   126.06808 amu.
 Principal axes and moments of inertia in atomic units:
                           1         2         3
     Eigenvalues --   408.237703525.652193691.48253
           X            0.99992   0.01236   0.00267
           Y           -0.01255   0.99620   0.08618
           Z           -0.00159  -0.08621   0.99628
 This molecule is an asymmetric top.
 Rotational symmetry number  1.
 Rotational temperatures (Kelvin)      0.21217     0.02457     0.02346
 Rotational constants (GHZ):           4.42081     0.51189     0.48889
 Zero-point vibrational energy     411595.5 (Joules/Mol)
                                   98.37368 (Kcal/Mol)
 Warning -- explicit consideration of  13 degrees of freedom as
           vibrations may cause significant error
 Vibrational temperatures:     18.74    50.49   104.46   110.20   143.57
          (Kelvin)            278.54   312.45   404.52   426.59   489.83
                              553.02   608.68   765.43  1068.76  1096.99
                             1116.40  1255.17  1357.03  1477.44  1502.09
                             1514.17  1515.23  1537.86  1610.50  1685.12
                             1713.46  1784.61  1838.90  1891.39  1917.77
                             1978.01  2025.21  2036.85  2044.31  2124.77
                             2128.06  2128.40  2136.56  2163.13  2618.33
                             3418.92  4326.02  4354.05  4359.66  4366.59
                             4396.59  4411.51  4440.29  4441.04  4461.38
                             4497.93

 Zero-point correction=                           0.156768 (Hartree/Particle)
 Thermal correction to Energy=                    0.167539
 Thermal correction to Enthalpy=                  0.168484
 Thermal correction to Gibbs Free Energy=         0.117359
 Sum of electronic and zero-point Energies=           -423.033738
 Sum of electronic and thermal Energies=              -423.022967
 Sum of electronic and thermal Enthalpies=            -423.022023
 Sum of electronic and thermal Free Energies=         -423.073148

                     E (Thermal)             CV                S
                      KCal/Mol        Cal/Mol-Kelvin    Cal/Mol-Kelvin
 Total                  105.133             35.486            107.601
 Electronic               0.000              0.000              0.000
 Translational            0.889              2.981             40.409
 Rotational               0.889              2.981             30.053
 Vibrational            103.355             29.524             37.140
 Vibration     1          0.593              1.987              7.486
 Vibration     2          0.594              1.982              5.519
 Vibration     3          0.599              1.967              4.081
 Vibration     4          0.599              1.965              3.976
 Vibration     5          0.604              1.949              3.459
 Vibration     6          0.635              1.849              2.193
 Vibration     7          0.646              1.815              1.983
 Vibration     8          0.681              1.709              1.527
 Vibration     9          0.690              1.680              1.437
 Vibration    10          0.720              1.595              1.210
 Vibration    11          0.753              1.504              1.022
 Vibration    12          0.785              1.420              0.882
 Vibration    13          0.887              1.179              0.583

 Normal termination of Gaussian 09 at Mon Jan 27 14:45:17 2020.
