 Gaussian 09, Revision D.01,
 Gaussian 09:  ES64L-G09RevD.01 24-Apr-2013

 -----------------------------
 # b3lyp 6-31G(2df,p) opt Freq
 -----------------------------

 -----
 titel
 -----
 Symbolic Z-matrix:
 Charge =  0 Multiplicity = 1

 SCF Done:  E(RB3LYP) =  -423.207836809     A.U. after   14 cycles
 Optimization completed.
    -- Stationary point found.
 Normal termination of Gaussian 09 at Mon Jan 27 22:02:48 2020.

 ----------------------------------------------------------------------
 #N Geom=AllCheck Guess=TCheck SCRF=Check GenChk RB3LYP/6-31G(2df,p) Fr
 eq
 ----------------------------------------------------------------------

 Structure from the checkpoint file:  "/scratch/puck/g09_0eb79b5c-628b-4b22-8947-438d20c8b646/Gau-182197.chk"
 -----
 titel
 -----
 Charge =  0 Multiplicity = 1

                         Standard orientation:
 ---------------------------------------------------------------------
 Center     Atomic      Atomic             Coordinates (Angstroms)
 Number     Number       Type             X           Y           Z
 ---------------------------------------------------------------------
      1          6           0        2.685819   -0.218837   -0.083266
      2          6           0        1.240418    0.163490    0.039938
      3          6           0        0.739885    1.359648   -0.276770
      4          6           0       -0.734311    1.661956   -0.163377
      5          6           0       -1.495370    0.396046    0.252528
      6          8           0       -1.557215   -0.523300   -0.840097
      7          6           0       -0.540544   -1.502913   -0.623030
      8          6           0        0.265648   -0.889527    0.538676
      9          8           0       -0.793664   -0.270026    1.277544
     10          1           0        2.817575   -1.083118   -0.748013
     11          1           0        3.284300    0.604356   -0.482446
     12          1           0        3.105649   -0.508145    0.888922
     13          1           0        1.394271    2.155984   -0.623997
     14          1           0       -0.912606    2.463560    0.567101
     15          1           0       -1.136706    2.014114   -1.120868
     16          1           0       -2.510161    0.606220    0.602935
     17          1           0       -0.990995   -2.462395   -0.337176
     18          1           0        0.044623   -1.632749   -1.538618
     19          1           0        0.741823   -1.630387    1.184397
 ---------------------------------------------------------------------

 SCF Done:  E(RB3LYP) =  -423.207836809     A.U. after    1 cycles

 The electronic state is 1-A.
 Alpha  occ. eigenvalues --  -19.14518 -19.13748 -10.27337 -10.23790 -10.22937
 Alpha  occ. eigenvalues --  -10.18773 -10.18657 -10.18337 -10.18086  -1.08736
 Alpha  occ. eigenvalues --   -0.98699  -0.81415  -0.78442  -0.71776  -0.65596
 Alpha  occ. eigenvalues --   -0.63333  -0.59995  -0.53715  -0.51967  -0.46867
 Alpha  occ. eigenvalues --   -0.45684  -0.44975  -0.42900  -0.41634  -0.40747
 Alpha  occ. eigenvalues --   -0.39888  -0.39254  -0.37670  -0.34878  -0.33747
 Alpha  occ. eigenvalues --   -0.32772  -0.26366  -0.25456  -0.23611
 Alpha virt. eigenvalues --    0.01861   0.09183   0.11015   0.12097   0.12509
 Alpha virt. eigenvalues --    0.13383   0.14165   0.15071   0.16492   0.17222
 Alpha virt. eigenvalues --    0.17643   0.18376   0.20370   0.21566   0.22311

 Mulliken charges:
               1
     1  C   -0.496128
     2  C    0.335810
     3  C   -0.159494
     4  C   -0.275806
     5  C    0.186900
     6  O   -0.278336
     7  C   -0.081968
     8  C   -0.050700
     9  O   -0.247446
    10  H    0.124074
    11  H    0.125684
    12  H    0.127396
    13  H    0.084145
    14  H    0.108282
    15  H    0.117486
    16  H    0.087052
    17  H    0.099722
    18  H    0.107940
    19  H    0.085387
 Sum of Mulliken charges =   0.00000

 Dipole moment (field-independent basis, Debye):
    X=              1.4847    Y=              0.0164    Z=             -0.2982  Tot=              1.5145
 Quadrupole moment (field-independent basis, Debye-Ang):
   XX=            -52.4437   YY=            -49.0274   ZZ=            -56.7259
   XY=             -2.7132   XZ=             -1.1338   YZ=             -0.4286

  Exact polarizability:  83.679  -7.820  85.468  -0.862  -2.446  59.023
 Approx polarizability: 112.568 -15.786 128.887   0.934  -6.269  95.302

                      1                      2                      3
                      A                      A                      A
 Frequencies --    122.5893               182.3705               218.7621
 Red. masses --      3.6169                 1.0939                 2.4102
 Frc consts  --      0.0320                 0.0214                 0.0680
 IR Inten    --      0.7780                 0.5263                 3.2336

                      4                      5                      6
                      A                      A                      A
 Frequencies --    279.1089               320.9534               359.4334
 Red. masses --      2.3394                 2.5992                 2.4042
 Frc consts  --      0.1074                 0.1578                 0.1830
 IR Inten    --      0.3079                 0.2060                 3.2969

                      7                      8                      9
                      A                      A                      A
 Frequencies --    471.0958               482.9637               569.2258
 Red. masses --      5.5261                 4.4474                 3.4474
 Frc consts  --      0.7226                 0.6112                 0.6581
 IR Inten    --      6.8945                 0.8849                 2.8015

                     10                     11                     12
                      A                      A                      A
 Frequencies --    679.9758               737.7041               805.1392
 Red. masses --      6.0538                 4.0821                 2.3055
 Frc consts  --      1.6492                 1.3089                 0.8806
 IR Inten    --      1.6552                 2.4696                 0.1593

                     13                     14                     15
                      A                      A                      A
 Frequencies --    826.4380               844.7896               888.4325
 Red. masses --      2.1756                 2.7702                 2.3115
 Frc consts  --      0.8755                 1.1648                 1.0750
 IR Inten    --      0.4876                 9.0868                65.9080

                     16                     17                     18
                      A                      A                      A
 Frequencies --    919.9468               948.3535               967.6543
 Red. masses --      3.5093                 2.2622                 1.9653
 Frc consts  --      1.7498                 1.1987                 1.0842
 IR Inten    --     29.5332                 9.1419                 2.3376

                     19                     20                     21
                      A                      A                      A
 Frequencies --   1003.3917              1020.9416              1027.8635
 Red. masses --      2.1107                 2.8946                 4.0032
 Frc consts  --      1.2520                 1.7776                 2.4919
 IR Inten    --      1.1577                24.5187                54.3826

                     22                     23                     24
                      A                      A                      A
 Frequencies --   1060.5883              1073.7652              1097.2091
 Red. masses --      1.6470                 1.8638                 1.8694
 Frc consts  --      1.0915                 1.2661                 1.3259
 IR Inten    --      4.9351                 5.2711                 2.5017

                     25                     26                     27
                      A                      A                      A
 Frequencies --   1136.1692              1183.6505              1193.0886
 Red. masses --      4.9305                 2.2787                 1.0966
 Frc consts  --      3.7499                 1.8810                 0.9197
 IR Inten    --     98.1920                14.0805                 3.5469

                     28                     29                     30
                      A                      A                      A
 Frequencies --   1210.7318              1270.9573              1297.8425
 Red. masses --      1.1977                 1.3886                 1.4042
 Frc consts  --      1.0345                 1.3216                 1.3935
 IR Inten    --      6.9622                 0.5641                 4.4890

                     31                     32                     33
                      A                      A                      A
 Frequencies --   1326.3903              1356.0817              1379.8897
 Red. masses --      1.3255                 1.5881                 1.3989
 Frc consts  --      1.3740                 1.7207                 1.5693
 IR Inten    --      3.1342                14.4718                 6.1951

                     34                     35                     36
                      A                      A                      A
 Frequencies --   1382.3413              1392.0157              1414.9684
 Red. masses --      1.7301                 1.4446                 1.2707
 Frc consts  --      1.9478                 1.6492                 1.4990
 IR Inten    --      3.4386                 5.7278                 1.0213

                     37                     38                     39
                      A                      A                      A
 Frequencies --   1463.2725              1478.5915              1490.1472
 Red. masses --      1.0944                 1.0451                 1.0590
 Frc consts  --      1.3807                 1.3461                 1.3854
 IR Inten    --      2.4166                 6.5327                 5.2867

                     40                     41                     42
                      A                      A                      A
 Frequencies --   1517.7975              1735.8780              3011.4381
 Red. masses --      1.0922                 6.9749                 1.0392
 Frc consts  --      1.4824                12.3831                 5.5527
 IR Inten    --      0.8598                 0.1635                28.1908

                     43                     44                     45
                      A                      A                      A
 Frequencies --   3012.1308              3015.1246              3056.0416
 Red. masses --      1.0647                 1.0629                 1.0971
 Frc consts  --      5.6915                 5.6933                 6.0367
 IR Inten    --     36.8140                63.0502                33.2400

                     46                     47                     48
                      A                      A                      A
 Frequencies --   3056.4226              3073.4718              3080.8083
 Red. masses --      1.0972                 1.0892                 1.1012
 Frc consts  --      6.0392                 6.0619                 6.1583
 IR Inten    --      1.7418                71.0437                22.9352

                     49                     50                     51
                      A                      A                      A
 Frequencies --   3096.9184              3111.3394              3151.6056
 Red. masses --      1.0888                 1.0983                 1.0902
 Frc consts  --      6.1526                 6.2643                 6.3798
 IR Inten    --     28.0231                20.1127                22.1362

 - Thermochemistry -
 -------------------
 Temperature   298.150 Kelvin.  Pressure   1.00000 Atm.
 Atom     1 has atomic number  6 and mass  12.00000

 Molecular mass:   126.06808 amu.
 Principal axes and moments of inertia in atomic units:
                           1         2         3
     Eigenvalues --   657.372071050.251841311.47834
           X            0.99914  -0.04078  -0.00795
           Y            0.04074   0.99916  -0.00449
           Z            0.00813   0.00417   0.99996
 This molecule is an asymmetric top.
 Rotational symmetry number  1.
 Warning -- assumption of classical behavior for rotation
           may cause significant error
 Rotational temperatures (Kelvin)      0.13176     0.08247     0.06604
 Rotational constants (GHZ):           2.74539     1.71839     1.37611
 Zero-point vibrational energy     423500.8 (Joules/Mol)
                                  101.21913 (Kcal/Mol)
 Warning -- explicit consideration of   9 degrees of freedom as
           vibrations may cause significant error
 Vibrational temperatures:    176.38   262.39   314.75   401.58   461.78
          (Kelvin)            517.14   677.80   694.88   818.99   978.33
                             1061.39  1158.41  1189.06  1215.46  1278.25
                             1323.60  1364.47  1392.24  1443.66  1468.91
                             1478.86  1525.95  1544.91  1578.64  1634.69
                             1703.01  1716.59  1741.97  1828.62  1867.30
                             1908.38  1951.10  1985.35  1988.88  2002.80
                             2035.82  2105.32  2127.36  2143.99  2183.77
                             2497.54  4332.78  4333.78  4338.09  4396.96
                             4397.50  4422.03  4432.59  4455.77  4476.52
                             4534.45

 Zero-point correction=                           0.161303 (Hartree/Particle)
 Thermal correction to Energy=                    0.168784
 Thermal correction to Enthalpy=                  0.169728
 Thermal correction to Gibbs Free Energy=         0.129587
 Sum of electronic and zero-point Energies=           -423.046534
 Sum of electronic and thermal Energies=              -423.039053
 Sum of electronic and thermal Enthalpies=            -423.038109
 Sum of electronic and thermal Free Energies=         -423.078250

                     E (Thermal)             CV                S
                      KCal/Mol        Cal/Mol-Kelvin    Cal/Mol-Kelvin
 Total                  105.913             29.671             84.484
 Electronic               0.000              0.000              0.000
 Translational            0.889              2.981             40.409
 Rotational               0.889              2.981             28.295
 Vibrational            104.136             23.709             15.780
 Vibration     1          0.610              1.930              3.059
 Vibration     2          0.630              1.864              2.304
 Vibration     3          0.647              1.812              1.969
 Vibration     4          0.679              1.712              1.539
 Vibration     5          0.706              1.633              1.305
 Vibration     6          0.734              1.556              1.125
 Vibration     7          0.828              1.314              0.734
 Vibration     8          0.839              1.288              0.702
 Vibration     9          0.925              1.098              0.506

 Normal termination of Gaussian 09 at Mon Jan 27 22:51:33 2020.
