 Gaussian 09, Revision D.01,
 Gaussian 09:  ES64L-G09RevD.01 24-Apr-2013

 -----------------------------
 # b3lyp 6-31G(2df,p) opt Freq
 -----------------------------

 -----
 titel
 -----
 Symbolic Z-matrix:
 Charge =  0 Multiplicity = 1

 SCF Done:  E(RB3LYP) =  -423.161956303     A.U. after   14 cycles
 Optimization completed.
    -- Stationary point found.
 Normal termination of Gaussian 09 at Mon Jan 27 22:55:15 2020.

 ----------------------------------------------------------------------
 #N Geom=AllCheck Guess=TCheck SCRF=Check GenChk RB3LYP/6-31G(2df,p) Fr
 eq
 ----------------------------------------------------------------------

 Structure from the checkpoint file:  "/scratch/puck/g09_80524701-b1fd-4c25-87e7-da0fd767d26b/Gau-75293.chk"
 -----
 titel
 -----
 Charge =  0 Multiplicity = 1

                         Standard orientation:
 ---------------------------------------------------------------------
 Center     Atomic      Atomic             Coordinates (Angstroms)
 Number     Number       Type             X           Y           Z
 ---------------------------------------------------------------------
      1          6           0        3.041420    0.416298   -0.422730
      2          6           0        1.798839   -0.376648   -0.054900
      3          8           0        1.860005   -1.424160    0.548392
      4          6           0        0.477775    0.232600   -0.479672
      5          6           0       -0.010242    1.346548    0.531365
      6          6           0       -1.250228    0.504973    0.829289
      7          6           0       -2.008026    0.190080   -0.429762
      8          8           0       -3.246810   -0.449973   -0.323430
      9          6           0       -0.762057   -0.592993   -0.144991
     10          1           0        2.922744    1.477183   -0.178594
     11          1           0        3.911530    0.006928    0.091739
     12          1           0        3.203757    0.355388   -1.505512
     13          1           0        0.554393    0.576061   -1.519285
     14          1           0        0.658588    1.436612    1.391424
     15          1           0       -0.179032    2.343458    0.110706
     16          1           0       -1.723609    0.401529    1.799037
     17          1           0       -2.043499    0.904704   -1.250514
     18          1           0       -3.171722   -1.163817    0.318815
     19          1           0       -0.763596   -1.670125   -0.029112
 ---------------------------------------------------------------------

 SCF Done:  E(RB3LYP) =  -423.161956303     A.U. after    1 cycles

 The electronic state is 1-A.
 Alpha  occ. eigenvalues --  -19.14550 -19.12871 -10.26980 -10.23979 -10.20274
 Alpha  occ. eigenvalues --  -10.20219 -10.19396 -10.19256 -10.19081  -1.03943
 Alpha  occ. eigenvalues --   -1.03187  -0.89357  -0.76531  -0.71994  -0.67400
 Alpha  occ. eigenvalues --   -0.61223  -0.56838  -0.53058  -0.50815  -0.49131
 Alpha  occ. eigenvalues --   -0.46508  -0.44764  -0.43525  -0.42679  -0.40945
 Alpha  occ. eigenvalues --   -0.39271  -0.37045  -0.36725  -0.35870  -0.33864
 Alpha  occ. eigenvalues --   -0.33472  -0.26235  -0.25122  -0.23640
 Alpha virt. eigenvalues --   -0.01303   0.07146   0.09056   0.09710   0.10774
 Alpha virt. eigenvalues --    0.11728   0.13531   0.14452   0.15107   0.16707
 Alpha virt. eigenvalues --    0.17543   0.18321   0.19283   0.21069   0.22656

 Mulliken charges:
               1
     1  C   -0.480023
     2  C    0.366229
     3  O   -0.298446
     4  C   -0.111267
     5  C   -0.261730
     6  C   -0.096482
     7  C    0.140417
     8  O   -0.443599
     9  C   -0.117637
    10  H    0.137412
    11  H    0.142958
    12  H    0.143884
    13  H    0.081846
    14  H    0.117571
    15  H    0.103400
    16  H    0.089067
    17  H    0.097286
    18  H    0.286105
    19  H    0.103007
 Sum of Mulliken charges =   0.00000

 Dipole moment (field-independent basis, Debye):
    X=              0.8202    Y=              1.7064    Z=             -0.2837  Tot=              1.9144
 Quadrupole moment (field-independent basis, Debye-Ang):
   XX=            -57.6020   YY=            -53.9817   ZZ=            -52.0014
   XY=              6.6429   XZ=             -5.9766   YZ=              0.1393

  Exact polarizability:  91.179   2.205  72.419  -1.735  -2.878  64.611
 Approx polarizability: 112.978  -0.355 117.195  -0.446  -7.256 103.452

                      1                      2                      3
                      A                      A                      A
 Frequencies --     58.2581               108.6536               119.7431
 Red. masses --      3.6815                 3.2299                 1.1878
 Frc consts  --      0.0074                 0.0225                 0.0100
 IR Inten    --      1.9630                 7.2239                 0.9162

                      4                      5                      6
                      A                      A                      A
 Frequencies --    149.0562               170.9442               263.4065
 Red. masses --      2.7862                 1.1628                 2.7761
 Frc consts  --      0.0365                 0.0200                 0.1135
 IR Inten    --      5.9081                82.2607                 4.3330

                      7                      8                      9
                      A                      A                      A
 Frequencies --    292.1496               316.8827               373.0876
 Red. masses --      4.3023                 3.1581                 3.4994
 Frc consts  --      0.2164                 0.1868                 0.2870
 IR Inten    --      0.2885                 7.2191                 1.1314

                     10                     11                     12
                      A                      A                      A
 Frequencies --    486.6546               578.8857               586.2014
 Red. masses --      3.2434                 3.8530                 2.5472
 Frc consts  --      0.4526                 0.7607                 0.5157
 IR Inten    --      3.4621                16.2788                 0.5445

                     13                     14                     15
                      A                      A                      A
 Frequencies --    719.4155               790.2120               806.0264
 Red. masses --      2.6097                 2.9205                 2.0489
 Frc consts  --      0.7958                 1.0745                 0.7843
 IR Inten    --      1.5010                 4.2369                 6.2436

                     16                     17                     18
                      A                      A                      A
 Frequencies --    867.1257               895.9734               939.1001
 Red. masses --      2.2062                 2.0552                 1.8631
 Frc consts  --      0.9774                 0.9721                 0.9681
 IR Inten    --     27.7702                17.9576                 3.8039

                     19                     20                     21
                      A                      A                      A
 Frequencies --    954.2042               969.8597               989.1049
 Red. masses --      3.2187                 1.4936                 1.7699
 Frc consts  --      1.7267                 0.8278                 1.0202
 IR Inten    --      0.8893                11.8995                 0.7524

                     22                     23                     24
                      A                      A                      A
 Frequencies --   1010.9075              1061.8977              1080.2232
 Red. masses --      1.4477                 1.8530                 2.2902
 Frc consts  --      0.8717                 1.2311                 1.5745
 IR Inten    --      2.6325                11.5002                 5.0232

                     25                     26                     27
                      A                      A                      A
 Frequencies --   1103.9913              1121.5604              1150.9495
 Red. masses --      1.5603                 1.9175                 1.4646
 Frc consts  --      1.1204                 1.4211                 1.1431
 IR Inten    --     35.4955                57.0647                 4.3542

                     28                     29                     30
                      A                      A                      A
 Frequencies --   1155.5433              1187.7113              1224.2577
 Red. masses --      2.0322                 1.9568                 1.3482
 Frc consts  --      1.5987                 1.6263                 1.1906
 IR Inten    --     29.0526                57.7705                 0.7502

                     31                     32                     33
                      A                      A                      A
 Frequencies --   1236.2698              1270.0485              1293.6301
 Red. masses --      1.4379                 1.6286                 1.5041
 Frc consts  --      1.2948                 1.5478                 1.4830
 IR Inten    --     29.1371                 2.6082                 3.1926

                     34                     35                     36
                      A                      A                      A
 Frequencies --   1344.8694              1365.7104              1384.1889
 Red. masses --      1.7225                 1.6494                 1.4826
 Frc consts  --      1.8356                 1.8125                 1.6736
 IR Inten    --      6.0661                 9.4844                46.3462

                     37                     38                     39
                      A                      A                      A
 Frequencies --   1450.6131              1463.9559              1476.2076
 Red. masses --      1.8659                 1.0541                 1.0549
 Frc consts  --      2.3133                 1.3310                 1.3544
 IR Inten    --    103.6929                 8.7895                 7.0920

                     40                     41                     42
                      A                      A                      A
 Frequencies --   1489.1794              1805.0201              3021.9851
 Red. masses --      1.1121                10.8316                 1.0808
 Frc consts  --      1.4531                20.7925                 5.8152
 IR Inten    --      4.4967               139.6234                24.1582

                     43                     44                     45
                      A                      A                      A
 Frequencies --   3036.7094              3042.4779              3096.7956
 Red. masses --      1.0389                 1.0606                 1.0999
 Frc consts  --      5.6445                 5.7844                 6.2150
 IR Inten    --      4.1888                46.6686                 9.1835

                     46                     47                     48
                      A                      A                      A
 Frequencies --   3099.3379              3118.4683              3152.0965
 Red. masses --      1.1030                 1.0896                 1.1020
 Frc consts  --      6.2428                 6.2432                 6.4511
 IR Inten    --     16.9437                26.5755                10.2946

                     49                     50                     51
                      A                      A                      A
 Frequencies --   3174.1987              3191.1746              3812.7719
 Red. masses --      1.0899                 1.0942                 1.0658
 Frc consts  --      6.4703                 6.5653                 9.1287
 IR Inten    --     15.0962                 9.7746                20.9880

 - Thermochemistry -
 -------------------
 Temperature   298.150 Kelvin.  Pressure   1.00000 Atm.
 Atom     1 has atomic number  6 and mass  12.00000

 Molecular mass:   126.06808 amu.
 Principal axes and moments of inertia in atomic units:
                           1         2         3
     Eigenvalues --   434.474071931.581002101.82903
           X            0.99969   0.02091  -0.01389
           Y           -0.02099   0.99976  -0.00624
           Z            0.01375   0.00653   0.99988
 This molecule is an asymmetric top.
 Rotational symmetry number  1.
 Warning -- assumption of classical behavior for rotation
           may cause significant error
 Rotational temperatures (Kelvin)      0.19935     0.04484     0.04121
 Rotational constants (GHZ):           4.15385     0.93433     0.85865
 Zero-point vibrational energy     411860.5 (Joules/Mol)
                                   98.43702 (Kcal/Mol)
 Warning -- explicit consideration of  12 degrees of freedom as
           vibrations may cause significant error
 Vibrational temperatures:     83.82   156.33   172.28   214.46   245.95
          (Kelvin)            378.98   420.34   455.92   536.79   700.19
                              832.89   843.41  1035.08  1136.94  1159.69
                             1247.60  1289.10  1351.15  1372.89  1395.41
                             1423.10  1454.47  1527.83  1554.20  1588.40
                             1613.67  1655.96  1662.57  1708.85  1761.43
                             1778.71  1827.31  1861.24  1934.96  1964.95
                             1991.54  2087.11  2106.30  2123.93  2142.59
                             2597.02  4347.96  4369.14  4377.44  4455.59
                             4459.25  4486.77  4535.16  4566.96  4591.38
                             5485.72

 Zero-point correction=                           0.156869 (Hartree/Particle)
 Thermal correction to Energy=                    0.166245
 Thermal correction to Enthalpy=                  0.167189
 Thermal correction to Gibbs Free Energy=         0.122186
 Sum of electronic and zero-point Energies=           -423.005087
 Sum of electronic and thermal Energies=              -422.995711
 Sum of electronic and thermal Enthalpies=            -422.994767
 Sum of electronic and thermal Free Energies=         -423.039770

                     E (Thermal)             CV                S
                      KCal/Mol        Cal/Mol-Kelvin    Cal/Mol-Kelvin
 Total                  104.320             34.047             94.717
 Electronic               0.000              0.000              0.000
 Translational            0.889              2.981             40.409
 Rotational               0.889              2.981             28.958
 Vibrational            102.543             28.085             25.351
 Vibration     1          0.596              1.974              4.515
 Vibration     2          0.606              1.942              3.293
 Vibration     3          0.609              1.933              3.105
 Vibration     4          0.618              1.904              2.684
 Vibration     5          0.626              1.878              2.425
 Vibration     6          0.670              1.740              1.639
 Vibration     7          0.688              1.688              1.461
 Vibration     8          0.704              1.641              1.326
 Vibration     9          0.744              1.527              1.067
 Vibration    10          0.843              1.280              0.692
 Vibration    11          0.935              1.077              0.487
 Vibration    12          0.943              1.061              0.474

 Optimization completed.
    -- Stationary point found.
 Normal termination of Gaussian 09 at Mon Jan 27 23:35:32 2020.
