 Gaussian 09, Revision D.01,
 Gaussian 09:  ES64L-G09RevD.01 24-Apr-2013

 -----------------------------
 # b3lyp 6-31G(2df,p) opt Freq
 -----------------------------

 -----
 titel
 -----
 Symbolic Z-matrix:
 Charge =  0 Multiplicity = 1

 SCF Done:  E(RB3LYP) =  -423.193151197     A.U. after   13 cycles
 Optimization completed.
    -- Stationary point found.
 Normal termination of Gaussian 09 at Mon Jan 27 22:07:00 2020.

 ----------------------------------------------------------------------
 #N Geom=AllCheck Guess=TCheck SCRF=Check GenChk RB3LYP/6-31G(2df,p) Fr
 eq
 ----------------------------------------------------------------------

 Structure from the checkpoint file:  "/scratch/puck/g09_66b2f104-541a-4452-8a0a-5d3588e1f43f/Gau-116814.chk"
 -----
 titel
 -----
 Charge =  0 Multiplicity = 1

                         Standard orientation:
 ---------------------------------------------------------------------
 Center     Atomic      Atomic             Coordinates (Angstroms)
 Number     Number       Type             X           Y           Z
 ---------------------------------------------------------------------
      1          6           0       -2.278205   -0.968495   -0.145792
      2          6           0       -0.989601   -0.220829   -0.026550
      3          8           0       -0.230764   -0.130742   -1.236178
      4          6           0        0.885237    0.646904   -0.762322
      5          6           0        0.218993    1.861487   -0.093884
      6          6           0       -0.733986    1.039298    0.768435
      7          6           0       -0.006389   -0.262183    1.122900
      8          6           0        1.359957   -0.206515    0.441635
      9          8           0        1.875380   -1.464402    0.073246
     10          1           0       -2.104940   -2.003902   -0.457323
     11          1           0       -2.796546   -0.985252    0.816712
     12          1           0       -2.936570   -0.496968   -0.882516
     13          1           0        1.596774    0.808594   -1.569045
     14          1           0        0.928802    2.464062    0.480133
     15          1           0       -0.299917    2.501534   -0.813103
     16          1           0       -1.486230    1.478214    1.410681
     17          1           0       -0.181913   -0.816328    2.035061
     18          1           0        2.129798    0.293591    1.035050
     19          1           0        1.257769   -1.820388   -0.578725
 ---------------------------------------------------------------------

 SCF Done:  E(RB3LYP) =  -423.193151197     A.U. after    1 cycles

 The electronic state is 1-A.
 Alpha  occ. eigenvalues --  -19.14699 -19.12990 -10.23842 -10.23069 -10.23027
 Alpha  occ. eigenvalues --  -10.19273 -10.18820 -10.18581 -10.18495  -1.06153
 Alpha  occ. eigenvalues --   -1.00918  -0.85834  -0.77850  -0.70930  -0.69638
 Alpha  occ. eigenvalues --   -0.59994  -0.56337  -0.55461  -0.52231  -0.49202
 Alpha  occ. eigenvalues --   -0.46554  -0.44037  -0.42275  -0.41127  -0.40212
 Alpha  occ. eigenvalues --   -0.38760  -0.37928  -0.37070  -0.35284  -0.33628
 Alpha  occ. eigenvalues --   -0.30437  -0.28478  -0.26162  -0.23270
 Alpha virt. eigenvalues --    0.08829   0.09978   0.11172   0.12676   0.13139
 Alpha virt. eigenvalues --    0.13993   0.14894   0.15531   0.16516   0.17112
 Alpha virt. eigenvalues --    0.17787   0.18759   0.19387   0.21209   0.21947

 Mulliken charges:
               1
     1  C   -0.499453
     2  C    0.450253
     3  O   -0.312511
     4  C    0.000169
     5  C   -0.238450
     6  C   -0.152900
     7  C   -0.197039
     8  C    0.171492
     9  O   -0.453213
    10  H    0.126663
    11  H    0.125024
    12  H    0.130364
    13  H    0.084130
    14  H    0.104774
    15  H    0.107596
    16  H    0.089695
    17  H    0.091453
    18  H    0.087419
    19  H    0.284534
 Sum of Mulliken charges =   0.00000

 Dipole moment (field-independent basis, Debye):
    X=             -1.3202    Y=              1.1279    Z=              0.6643  Tot=              1.8591
 Quadrupole moment (field-independent basis, Debye-Ang):
   XX=            -54.1342   YY=            -52.1049   ZZ=            -53.4819
   XY=              4.0871   XZ=             -2.2150   YZ=              0.7064

  Exact polarizability:  78.172   2.452  75.310  -0.326   0.160  66.193
 Approx polarizability: 108.722   0.143 110.003   1.996   2.308 105.330

                      1                      2                      3
                      A                      A                      A
 Frequencies --    158.4922               190.9877               251.2186
 Red. masses --      3.6117                 1.0491                 3.3050
 Frc consts  --      0.0535                 0.0225                 0.1229
 IR Inten    --      2.1403                 0.0564                 8.1607

                      4                      5                      6
                      A                      A                      A
 Frequencies --    301.6300               347.2523               419.8093
 Red. masses --      2.4164                 3.0126                 2.0158
 Frc consts  --      0.1295                 0.2140                 0.2093
 IR Inten    --      0.9656                 0.6321                 1.9306

                      7                      8                      9
                      A                      A                      A
 Frequencies --    449.3145               531.4868               596.4545
 Red. masses --      1.2564                 3.9519                 4.1714
 Frc consts  --      0.1494                 0.6577                 0.8743
 IR Inten    --     71.8740                 2.0113                 2.7163

                     10                     11                     12
                      A                      A                      A
 Frequencies --    612.4007               704.9290               750.0136
 Red. masses --      4.3175                 4.6518                 4.1269
 Frc consts  --      0.9540                 1.3620                 1.3678
 IR Inten    --      4.5191                 2.1367                 7.2073

                     13                     14                     15
                      A                      A                      A
 Frequencies --    817.7468               858.4590               861.1623
 Red. masses --      3.4826                 2.0479                 1.9788
 Frc consts  --      1.3721                 0.8892                 0.8646
 IR Inten    --     21.3864                 0.3888                15.7567

                     16                     17                     18
                      A                      A                      A
 Frequencies --    886.3727               900.3599               937.8341
 Red. masses --      2.2200                 2.1976                 2.2251
 Frc consts  --      1.0276                 1.0496                 1.1531
 IR Inten    --      1.5464                21.8836                17.6222

                     19                     20                     21
                      A                      A                      A
 Frequencies --    954.6295               995.7693              1006.6296
 Red. masses --      2.0071                 1.9462                 1.6443
 Frc consts  --      1.0777                 1.1370                 0.9817
 IR Inten    --      2.3479                12.6849                 4.9223

                     22                     23                     24
                      A                      A                      A
 Frequencies --   1012.9888              1037.1865              1074.1945
 Red. masses --      1.6798                 1.9413                 2.0584
 Frc consts  --      1.0156                 1.2304                 1.3994
 IR Inten    --     14.4116                14.6241                14.9051

                     25                     26                     27
                      A                      A                      A
 Frequencies --   1097.7173              1122.1865              1156.6647
 Red. masses --      2.9982                 1.7392                 1.3137
 Frc consts  --      2.1286                 1.2904                 1.0355
 IR Inten    --    113.6579                11.0493                19.7492

                     28                     29                     30
                      A                      A                      A
 Frequencies --   1175.1982              1195.6061              1214.7276
 Red. masses --      2.2613                 2.0132                 1.7583
 Frc consts  --      1.8401                 1.6956                 1.5286
 IR Inten    --     17.6936                17.7142                 1.1466

                     31                     32                     33
                      A                      A                      A
 Frequencies --   1258.5809              1281.5422              1308.3166
 Red. masses --      1.5579                 1.4398                 1.6560
 Frc consts  --      1.4540                 1.3932                 1.6700
 IR Inten    --      2.3238                 7.9905                 0.9950

                     34                     35                     36
                      A                      A                      A
 Frequencies --   1313.3568              1336.2538              1407.2608
 Red. masses --      1.6593                 1.6503                 1.3313
 Frc consts  --      1.6863                 1.7361                 1.5534
 IR Inten    --     10.3422                 9.2519                 4.4730

                     37                     38                     39
                      A                      A                      A
 Frequencies --   1439.7445              1451.6188              1477.1876
 Red. masses --      1.2769                 3.9794                 1.0439
 Frc consts  --      1.5595                 4.9405                 1.3421
 IR Inten    --     76.1877                13.8469                 4.0173

                     40                     41                     42
                      A                      A                      A
 Frequencies --   1490.2928              1502.5197              3036.6319
 Red. masses --      1.1120                 1.0924                 1.0357
 Frc consts  --      1.4551                 1.4530                 5.6271
 IR Inten    --      5.8276                 3.2980                28.4995

                     43                     44                     45
                      A                      A                      A
 Frequencies --   3056.6703              3085.7014              3099.5778
 Red. masses --      1.0579                 1.0866                 1.1015
 Frc consts  --      5.8238                 6.0956                 6.2349
 IR Inten    --     28.2610                25.7944                18.2983

                     46                     47                     48
                      A                      A                      A
 Frequencies --   3106.2907              3118.6031              3153.7616
 Red. masses --      1.1071                 1.1003                 1.0912
 Frc consts  --      6.2938                 6.3048                 6.3944
 IR Inten    --     24.2539                14.0361                24.9967

                     49                     50                     51
                      A                      A                      A
 Frequencies --   3199.9484              3212.0728              3770.9422
 Red. masses --      1.0913                 1.0946                 1.0650
 Frc consts  --      6.5841                 6.6538                 8.9224
 IR Inten    --      8.5520                 7.2106                19.4416

 - Thermochemistry -
 -------------------
 Temperature   298.150 Kelvin.  Pressure   1.00000 Atm.
 Atom     1 has atomic number  6 and mass  12.00000

 Molecular mass:   126.06808 amu.
 Principal axes and moments of inertia in atomic units:
                           1         2         3
     Eigenvalues --   715.01557 973.058041195.00025
           X            0.99456   0.10348  -0.01160
           Y           -0.10346   0.99463   0.00224
           Z            0.01176  -0.00103   0.99993
 This molecule is an asymmetric top.
 Rotational symmetry number  1.
 Warning -- assumption of classical behavior for rotation
           may cause significant error
 Rotational temperatures (Kelvin)      0.12114     0.08901     0.07248
 Rotational constants (GHZ):           2.52406     1.85471     1.51024
 Zero-point vibrational energy     423037.2 (Joules/Mol)
                                  101.10832 (Kcal/Mol)
 Warning -- explicit consideration of  10 degrees of freedom as
           vibrations may cause significant error
 Vibrational temperatures:    228.03   274.79   361.45   433.98   499.62
          (Kelvin)            604.01   646.46   764.69   858.16   881.11
                             1014.23  1079.10  1176.55  1235.13  1239.02
                             1275.29  1295.42  1349.33  1373.50  1432.69
                             1448.31  1457.46  1492.28  1545.52  1579.37
                             1614.57  1664.18  1690.85  1720.21  1747.72
                             1810.81  1843.85  1882.37  1889.63  1922.57
                             2024.73  2071.47  2088.55  2125.34  2144.20
                             2161.79  4369.03  4397.86  4439.63  4459.60
                             4469.25  4486.97  4537.55  4604.01  4621.45
                             5425.54

 Zero-point correction=                           0.161126 (Hartree/Particle)
 Thermal correction to Energy=                    0.168486
 Thermal correction to Enthalpy=                  0.169430
 Thermal correction to Gibbs Free Energy=         0.129800
 Sum of electronic and zero-point Energies=           -423.032025
 Sum of electronic and thermal Energies=              -423.024666
 Sum of electronic and thermal Enthalpies=            -423.023721
 Sum of electronic and thermal Free Energies=         -423.063351

                     E (Thermal)             CV                S
                      KCal/Mol        Cal/Mol-Kelvin    Cal/Mol-Kelvin
 Total                  105.726             30.347             83.407
 Electronic               0.000              0.000              0.000
 Translational            0.889              2.981             40.409
 Rotational               0.889              2.981             28.210
 Vibrational            103.949             24.385             14.788
 Vibration     1          0.621              1.893              2.568
 Vibration     2          0.634              1.852              2.218
 Vibration     3          0.663              1.761              1.722
 Vibration     4          0.694              1.671              1.408
 Vibration     5          0.725              1.581              1.179
 Vibration     6          0.782              1.427              0.893
 Vibration     7          0.808              1.362              0.798
 Vibration     8          0.886              1.180              0.584
 Vibration     9          0.954              1.039              0.456
 Vibration    10          0.972              1.006              0.429

 Normal termination of Gaussian 09 at Mon Jan 27 23:05:13 2020.
