 Gaussian 09, Revision D.01,
 Gaussian 09:  ES64L-G09RevD.01 24-Apr-2013

 -----------------------------
 # b3lyp 6-31G(2df,p) opt Freq
 -----------------------------

 -----
 titel
 -----
 Symbolic Z-matrix:
 Charge =  0 Multiplicity = 1

 SCF Done:  E(RB3LYP) =  -423.164908252     A.U. after   14 cycles
 Optimization completed.
    -- Stationary point found.
 Normal termination of Gaussian 09 at Tue Jan 28 00:03:19 2020.

 ----------------------------------------------------------------------
 #N Geom=AllCheck Guess=TCheck SCRF=Check GenChk RB3LYP/6-31G(2df,p) Fr
 eq
 ----------------------------------------------------------------------

 Structure from the checkpoint file:  "/scratch/puck/g09_26e3e25c-9c3e-4fc8-9546-f6c7b83e608d/Gau-184669.chk"
 -----
 titel
 -----
 Charge =  0 Multiplicity = 1

                         Standard orientation:
 ---------------------------------------------------------------------
 Center     Atomic      Atomic             Coordinates (Angstroms)
 Number     Number       Type             X           Y           Z
 ---------------------------------------------------------------------
      1          6           0        1.984675   -1.227922   -0.025729
      2          6           0        0.467382   -1.050979    0.003393
      3          6           0       -0.255213   -0.250357   -1.116574
      4          6           0       -1.713448   -0.470408   -0.637836
      5          8           0       -1.622336   -0.432726    0.806052
      6          6           0       -0.223403   -0.224111    1.109640
      7          6           0        0.016564    1.239151    0.721404
      8          8           0        1.202329    1.517284   -0.035040
      9          6           0       -0.001996    1.215386   -0.746938
     10          1           0        2.267315   -1.841445   -0.888612
     11          1           0        2.522878   -0.285157   -0.079151
     12          1           0        2.311965   -1.766654    0.870918
     13          1           0        0.020524   -2.050386    0.049364
     14          1           0       -0.061814   -0.545270   -2.148270
     15          1           0       -2.402707    0.310733   -0.980410
     16          1           0       -2.105839   -1.444792   -0.952382
     17          1           0       -0.051500   -0.510371    2.146991
     18          1           0       -0.379355    2.051841    1.321674
     19          1           0       -0.408777    2.020472   -1.352373
 ---------------------------------------------------------------------

 SCF Done:  E(RB3LYP) =  -423.164908252     A.U. after    1 cycles

 The electronic state is 1-A.
 Alpha  occ. eigenvalues --  -19.15447 -19.13747 -10.23734 -10.23529 -10.23304
 Alpha  occ. eigenvalues --  -10.23158 -10.19975 -10.19273 -10.16934  -1.07926
 Alpha  occ. eigenvalues --   -1.02961  -0.81397  -0.75185  -0.71845  -0.64702
 Alpha  occ. eigenvalues --   -0.63347  -0.56615  -0.55483  -0.54119  -0.47794
 Alpha  occ. eigenvalues --   -0.47335  -0.44343  -0.42977  -0.40438  -0.39500
 Alpha  occ. eigenvalues --   -0.38999  -0.38454  -0.35445  -0.34802  -0.33878
 Alpha  occ. eigenvalues --   -0.30585  -0.29873  -0.26279  -0.24507
 Alpha virt. eigenvalues --    0.07840   0.09552   0.10171   0.12711   0.13558
 Alpha virt. eigenvalues --    0.14132   0.14491   0.15549   0.15722   0.15802
 Alpha virt. eigenvalues --    0.17331   0.18265   0.19685   0.20217   0.21975

 Mulliken charges:
               1
     1  C   -0.447068
     2  C    0.044829
     3  C   -0.126562
     4  C   -0.080424
     5  O   -0.283424
     6  C    0.033360
     7  C    0.043542
     8  O   -0.257557
     9  C    0.055020
    10  H    0.110166
    11  H    0.153465
    12  H    0.111065
    13  H    0.085030
    14  H    0.071717
    15  H    0.100604
    16  H    0.103213
    17  H    0.074628
    18  H    0.106037
    19  H    0.102356
 Sum of Mulliken charges =   0.00000

 Dipole moment (field-independent basis, Debye):
    X=             -0.5076    Y=             -0.4549    Z=             -0.9812  Tot=              1.1947
 Quadrupole moment (field-independent basis, Debye-Ang):
   XX=            -57.8645   YY=            -52.5480   ZZ=            -50.3197
   XY=             -3.5423   XZ=              3.2901   YZ=              0.7713

  Exact polarizability:  74.360  -2.072  72.235   3.536   0.760  71.664
 Approx polarizability: 109.354   2.808 103.251   2.712   0.471 112.843

                      1                      2                      3
                      A                      A                      A
 Frequencies --    156.2598               241.4870               280.7024
 Red. masses --      1.0416                 2.5699                 2.8749
 Frc consts  --      0.0150                 0.0883                 0.1335
 IR Inten    --      0.0382                 0.4319                 2.8531

                      4                      5                      6
                      A                      A                      A
 Frequencies --    288.6443               347.1959               402.6469
 Red. masses --      3.0247                 4.6076                 3.4642
 Frc consts  --      0.1485                 0.3272                 0.3309
 IR Inten    --      1.0056                11.7655                 5.5701

                      7                      8                      9
                      A                      A                      A
 Frequencies --    465.2502               585.7733               627.5867
 Red. masses --      5.4005                 5.4880                 5.5615
 Frc consts  --      0.6887                 1.1095                 1.2906
 IR Inten    --      1.5680                 2.9961                 1.5563

                     10                     11                     12
                      A                      A                      A
 Frequencies --    744.6441               765.1349               842.7670
 Red. masses --      2.5900                 3.8360                 2.5536
 Frc consts  --      0.8461                 1.3231                 1.0686
 IR Inten    --     11.3791                 2.2280                11.9625

                     13                     14                     15
                      A                      A                      A
 Frequencies --    866.6185               891.5763               905.6905
 Red. masses --      2.0937                 3.1702                 4.7737
 Frc consts  --      0.9264                 1.4848                 2.3071
 IR Inten    --     15.5134                 1.6278                15.4312

                     16                     17                     18
                      A                      A                      A
 Frequencies --    917.2136               939.7121               952.5350
 Red. masses --      3.0301                 2.4002                 3.2018
 Frc consts  --      1.5019                 1.2488                 1.7116
 IR Inten    --     32.1932                 4.6727                18.2919

                     19                     20                     21
                      A                      A                      A
 Frequencies --    964.5274              1001.3260              1019.6653
 Red. masses --      2.0306                 1.6374                 2.6665
 Frc consts  --      1.1130                 0.9673                 1.6335
 IR Inten    --     22.7629                15.3017                14.3042

                     22                     23                     24
                      A                      A                      A
 Frequencies --   1060.1799              1070.4692              1102.3187
 Red. masses --      1.6789                 1.7835                 1.3459
 Frc consts  --      1.1118                 1.2042                 0.9635
 IR Inten    --      7.1076                 7.9091                 0.8036

                     25                     26                     27
                      A                      A                      A
 Frequencies --   1120.1149              1137.8801              1182.8598
 Red. masses --      1.3323                 2.4131                 1.5563
 Frc consts  --      0.9849                 1.8409                 1.2829
 IR Inten    --      1.5681                 9.2751                 2.9514

                     28                     29                     30
                      A                      A                      A
 Frequencies --   1209.4411              1239.1639              1256.3223
 Red. masses --      1.5059                 1.5190                 1.4500
 Frc consts  --      1.2978                 1.3743                 1.3484
 IR Inten    --      6.1747                 6.9140                 1.3662

                     31                     32                     33
                      A                      A                      A
 Frequencies --   1282.7451              1290.1171              1310.4429
 Red. masses --      1.3332                 1.2444                 2.1250
 Frc consts  --      1.2925                 1.2203                 2.1500
 IR Inten    --      1.2644                 0.1387                 2.0719

                     34                     35                     36
                      A                      A                      A
 Frequencies --   1346.5411              1364.4013              1393.9099
 Red. masses --      1.5497                 1.3337                 1.5677
 Frc consts  --      1.6556                 1.4629                 1.7947
 IR Inten    --      7.3849                 1.4731                 7.3937

                     37                     38                     39
                      A                      A                      A
 Frequencies --   1410.5772              1435.2229              1493.5798
 Red. masses --      1.2976                 2.0712                 1.0474
 Frc consts  --      1.5212                 2.5137                 1.3767
 IR Inten    --      4.5729                 9.2697                 3.0717

                     40                     41                     42
                      A                      A                      A
 Frequencies --   1518.7461              1525.4892              3020.0841
 Red. masses --      1.0490                 1.0924                 1.0562
 Frc consts  --      1.4256                 1.4978                 5.6758
 IR Inten    --      3.0350                 0.4334                62.8386

                     43                     44                     45
                      A                      A                      A
 Frequencies --   3032.6898              3043.1281              3059.2058
 Red. masses --      1.0521                 1.0749                 1.1098
 Frc consts  --      5.7010                 5.8649                 6.1193
 IR Inten    --     32.3095                22.0095                43.5262

                     46                     47                     48
                      A                      A                      A
 Frequencies --   3085.1737              3113.7017              3123.9455
 Red. masses --      1.0999                 1.0878                 1.0899
 Frc consts  --      6.1685                 6.2137                 6.2667
 IR Inten    --     22.6549                32.4265                25.5314

                     49                     50                     51
                      A                      A                      A
 Frequencies --   3154.3044              3174.5917              3182.0570
 Red. masses --      1.0886                 1.0952                 1.0944
 Frc consts  --      6.3817                 6.5033                 6.5290
 IR Inten    --     21.3354                21.7960                 4.0560

 - Thermochemistry -
 -------------------
 Temperature   298.150 Kelvin.  Pressure   1.00000 Atm.
 Atom     1 has atomic number  6 and mass  12.00000

 Molecular mass:   126.06808 amu.
 Principal axes and moments of inertia in atomic units:
                           1         2         3
     Eigenvalues --   735.26841 910.685091116.57028
           X            0.98440  -0.17167   0.03843
           Y            0.17121   0.98512   0.01490
           Z           -0.04042  -0.00809   0.99915
 This molecule is an asymmetric top.
 Rotational symmetry number  1.
 Warning -- assumption of classical behavior for rotation
           may cause significant error
 Rotational temperatures (Kelvin)      0.11780     0.09511     0.07757
 Rotational constants (GHZ):           2.45453     1.98174     1.61633
 Zero-point vibrational energy     424353.5 (Joules/Mol)
                                  101.42291 (Kcal/Mol)
 Warning -- explicit consideration of   8 degrees of freedom as
           vibrations may cause significant error
 Vibrational temperatures:    224.82   347.45   403.87   415.29   499.54
          (Kelvin)            579.32   669.39   842.80   902.96  1071.38
                             1100.86  1212.55  1246.87  1282.78  1303.09
                             1319.66  1352.03  1370.48  1387.74  1440.68
                             1467.07  1525.36  1540.16  1585.99  1611.59
                             1637.15  1701.87  1740.11  1782.88  1807.57
                             1845.58  1856.19  1885.43  1937.37  1963.07
                             2005.52  2029.50  2064.96  2148.93  2185.13
                             2194.84  4345.22  4363.36  4378.38  4401.51
                             4438.87  4479.92  4494.66  4538.33  4567.52
                             4578.26

 Zero-point correction=                           0.161628 (Hartree/Particle)
 Thermal correction to Energy=                    0.168658
 Thermal correction to Enthalpy=                  0.169602
 Thermal correction to Gibbs Free Energy=         0.130587
 Sum of electronic and zero-point Energies=           -423.003281
 Sum of electronic and thermal Energies=              -422.996250
 Sum of electronic and thermal Enthalpies=            -422.995306
 Sum of electronic and thermal Free Energies=         -423.034321

                     E (Thermal)             CV                S
                      KCal/Mol        Cal/Mol-Kelvin    Cal/Mol-Kelvin
 Total                  105.834             28.942             82.114
 Electronic               0.000              0.000              0.000
 Translational            0.889              2.981             40.409
 Rotational               0.889              2.981             28.105
 Vibrational            104.057             22.981             13.601
 Vibration     1          0.620              1.896              2.595
 Vibration     2          0.658              1.777              1.792
 Vibration     3          0.680              1.709              1.529
 Vibration     4          0.685              1.695              1.482
 Vibration     5          0.725              1.581              1.179
 Vibration     6          0.768              1.464              0.953
 Vibration     7          0.823              1.327              0.751
 Vibration     8          0.943              1.062              0.475

 Optimization completed.
    -- Stationary point found.
 Normal termination of Gaussian 09 at Tue Jan 28 00:54:24 2020.
