 Gaussian 09, Revision D.01,
 Gaussian 09:  ES64L-G09RevD.01 24-Apr-2013

 -----------------------------
 # b3lyp 6-31G(2df,p) opt Freq
 -----------------------------

 -----
 titel
 -----
 Symbolic Z-matrix:
 Charge =  0 Multiplicity = 1

 SCF Done:  E(RB3LYP) =  -423.187780447     A.U. after   15 cycles
 Optimization completed.
    -- Stationary point found.
 Normal termination of Gaussian 09 at Tue Jan 28 08:19:09 2020.

 ----------------------------------------------------------------------
 #N Geom=AllCheck Guess=TCheck SCRF=Check GenChk RB3LYP/6-31G(2df,p) Fr
 eq
 ----------------------------------------------------------------------

 Structure from the checkpoint file:  "/scratch/puck/g09_43ae95e1-6348-4e05-869a-39e78f408073/Gau-14786.chk"
 -----
 titel
 -----
 Charge =  0 Multiplicity = 1

                         Standard orientation:
 ---------------------------------------------------------------------
 Center     Atomic      Atomic             Coordinates (Angstroms)
 Number     Number       Type             X           Y           Z
 ---------------------------------------------------------------------
      1          6           0        2.107297   -1.846747    0.422335
      2          6           0        2.226563   -0.506797   -0.307481
      3          6           0        1.140773    0.496769    0.068614
      4          6           0        1.303812    1.854419   -0.604855
      5          8           0       -0.124264   -0.098964   -0.347625
      6          6           0       -1.224721    0.282516    0.317523
      7          8           0       -1.258423    1.080746    1.222360
      8          6           0       -2.394336   -0.402285   -0.194711
      9          6           0       -3.397061   -0.940085   -0.580375
     10          1           0        1.149834   -2.326882    0.203410
     11          1           0        2.905871   -2.529557    0.118129
     12          1           0        2.177037   -1.714206    1.507673
     13          1           0        3.194353   -0.042061   -0.084183
     14          1           0        2.197578   -0.662731   -1.392826
     15          1           0        1.095838    0.625406    1.154539
     16          1           0        0.499886    2.530708   -0.306643
     17          1           0        2.256358    2.304499   -0.308921
     18          1           0        1.295274    1.749119   -1.694166
     19          1           0       -4.284494   -1.415283   -0.921186
 ---------------------------------------------------------------------

 SCF Done:  E(RB3LYP) =  -423.187780447     A.U. after    1 cycles

 The electronic state is 1-A.
 Alpha  occ. eigenvalues --  -19.18732 -19.13427 -10.32879 -10.24650 -10.20617
 Alpha  occ. eigenvalues --  -10.20217 -10.18964 -10.18178 -10.17719  -1.10736
 Alpha  occ. eigenvalues --   -1.02208  -0.81332  -0.77237  -0.73615  -0.67763
 Alpha  occ. eigenvalues --   -0.63472  -0.58106  -0.55499  -0.52538  -0.48079
 Alpha  occ. eigenvalues --   -0.46715  -0.43891  -0.43682  -0.42492  -0.40860
 Alpha  occ. eigenvalues --   -0.38136  -0.36387  -0.35434  -0.34918  -0.33190
 Alpha  occ. eigenvalues --   -0.30847  -0.30203  -0.29748  -0.27637
 Alpha virt. eigenvalues --   -0.03898   0.03367   0.08922   0.10979   0.11498
 Alpha virt. eigenvalues --    0.12179   0.12616   0.13689   0.15833   0.16244
 Alpha virt. eigenvalues --    0.17632   0.18173   0.18772   0.20529   0.22103

 Mulliken charges:
               1
     1  C   -0.390408
     2  C   -0.183208
     3  C    0.143553
     4  C   -0.411991
     5  O   -0.247591
     6  C    0.303239
     7  O   -0.361296
     8  C    0.221841
     9  C   -0.361101
    10  H    0.132551
    11  H    0.115517
    12  H    0.116996
    13  H    0.102564
    14  H    0.107960
    15  H    0.110491
    16  H    0.143114
    17  H    0.121536
    18  H    0.124670
    19  H    0.211563
 Sum of Mulliken charges =   0.00000

 Dipole moment (field-independent basis, Debye):
    X=              0.9693    Y=             -1.0252    Z=             -1.3899  Tot=              1.9805
 Quadrupole moment (field-independent basis, Debye-Ang):
   XX=            -44.6004   YY=            -53.4622   ZZ=            -55.5751
   XY=              5.5249   XZ=              4.3996   YZ=             -1.6774

  Exact polarizability: 102.496  10.796  74.153   5.231   5.051  63.578
 Approx polarizability: 137.668  20.440 106.516  11.258  19.471 104.133

                      1                      2                      3
                      A                      A                      A
 Frequencies --     53.8127                67.2621               117.1736
 Red. masses --      4.8841                 3.9207                 2.0284
 Frc consts  --      0.0083                 0.0105                 0.0164
 IR Inten    --      2.7986                 0.0444                 0.3580

                      4                      5                      6
                      A                      A                      A
 Frequencies --    126.8738               212.2680               216.7650
 Red. masses --      3.1968                 1.7837                 2.1041
 Frc consts  --      0.0303                 0.0474                 0.0582
 IR Inten    --      2.8426                 1.5699                 2.4701

                      7                      8                      9
                      A                      A                      A
 Frequencies --    226.7942               256.7580               289.1680
 Red. masses --      1.1467                 2.8421                 3.5617
 Frc consts  --      0.0347                 0.1104                 0.1755
 IR Inten    --      0.8229                 1.8457                 1.6692

                     10                     11                     12
                      A                      A                      A
 Frequencies --    371.6519               422.7755               485.3613
 Red. masses --      3.4106                 2.7307                 3.4271
 Frc consts  --      0.2776                 0.2876                 0.4757
 IR Inten    --      1.4902                 5.6351                 1.0203

                     13                     14                     15
                      A                      A                      A
 Frequencies --    537.7307               607.4518               654.3134
 Red. masses --      3.8108                 8.4747                 1.2596
 Frc consts  --      0.6492                 1.8425                 0.3177
 IR Inten    --      1.2127                 5.0715                36.7664

                     16                     17                     18
                      A                      A                      A
 Frequencies --    698.1869               773.0207               777.3516
 Red. masses --      1.3208                 1.4543                 6.4673
 Frc consts  --      0.3793                 0.5120                 2.3025
 IR Inten    --     22.3771                 1.4881                27.8668

                     19                     20                     21
                      A                      A                      A
 Frequencies --    838.9087               881.9924               945.7887
 Red. masses --      1.9180                 3.0784                 4.1988
 Frc consts  --      0.7953                 1.4109                 2.2129
 IR Inten    --      0.6538                26.5648                 6.1985

                     22                     23                     24
                      A                      A                      A
 Frequencies --    981.2769              1007.3106              1035.5410
 Red. masses --      1.2997                 1.5250                 3.2003
 Frc consts  --      0.7374                 0.9117                 2.0220
 IR Inten    --      4.2146                22.1938                12.5817

                     25                     26                     27
                      A                      A                      A
 Frequencies --   1137.2671              1143.1116              1200.7478
 Red. masses --      2.1294                 1.9628                 2.0734
 Frc consts  --      1.6227                 1.5111                 1.7613
 IR Inten    --     30.5411                55.4051                10.3418

                     28                     29                     30
                      A                      A                      A
 Frequencies --   1254.4635              1300.1084              1330.4338
 Red. masses --      6.0546                 1.2410                 1.2922
 Frc consts  --      5.6138                 1.2359                 1.3476
 IR Inten    --    630.5646                 6.7260                 6.1077

                     31                     32                     33
                      A                      A                      A
 Frequencies --   1384.4891              1398.5416              1407.0787
 Red. masses --      1.2769                 1.5712                 1.2667
 Frc consts  --      1.4421                 1.8107                 1.4776
 IR Inten    --      9.1888                 1.3313                11.8578

                     34                     35                     36
                      A                      A                      A
 Frequencies --   1410.6863              1474.5343              1488.8520
 Red. masses --      1.2524                 1.0735                 1.0590
 Frc consts  --      1.4684                 1.3752                 1.3831
 IR Inten    --      0.6226                 0.2981                 3.4311

                     37                     38                     39
                      A                      A                      A
 Frequencies --   1496.9420              1502.4678              1509.2510
 Red. masses --      1.0435                 1.0453                 1.0590
 Frc consts  --      1.3777                 1.3903                 1.4212
 IR Inten    --      3.6253                 6.8340                 4.1059

                     40                     41                     42
                      A                      A                      A
 Frequencies --   1783.8958              2236.3814              3030.4708
 Red. masses --     12.5140                 5.9130                 1.0590
 Frc consts  --     23.4632                17.4242                 5.7301
 IR Inten    --    237.6153                60.7571                14.6045

                     43                     44                     45
                      A                      A                      A
 Frequencies --   3038.4993              3044.8650              3061.1299
 Red. masses --      1.0372                 1.0372                 1.0918
 Frc consts  --      5.6420                 5.6654                 6.0276
 IR Inten    --     23.0873                18.3270                 4.3462

                     46                     47                     48
                      A                      A                      A
 Frequencies --   3075.2925              3105.4080              3116.3348
 Red. masses --      1.0930                 1.1005                 1.1012
 Frc consts  --      6.0902                 6.2530                 6.3009
 IR Inten    --     13.6881                29.2476                21.6474

                     49                     50                     51
                      A                      A                      A
 Frequencies --   3121.6536              3134.5126              3498.4583
 Red. masses --      1.1015                 1.1016                 1.1636
 Frc consts  --      6.3241                 6.3770                 8.3910
 IR Inten    --     35.2984                13.8769                57.5410

 - Thermochemistry -
 -------------------
 Temperature   298.150 Kelvin.  Pressure   1.00000 Atm.
 Atom     1 has atomic number  6 and mass  12.00000

 Molecular mass:   126.06808 amu.
 Principal axes and moments of inertia in atomic units:
                           1         2         3
     Eigenvalues --   721.319031798.362232172.62003
           X            0.99998   0.00031   0.00615
           Y           -0.00003   0.99895  -0.04576
           Z           -0.00616   0.04576   0.99893
 This molecule is an asymmetric top.
 Rotational symmetry number  1.
 Warning -- assumption of classical behavior for rotation
           may cause significant error
 Rotational temperatures (Kelvin)      0.12008     0.04816     0.03987
 Rotational constants (GHZ):           2.50200     1.00355     0.83068
 Zero-point vibrational energy     408353.7 (Joules/Mol)
                                   97.59889 (Kcal/Mol)
 Warning -- explicit consideration of  14 degrees of freedom as
           vibrations may cause significant error
 Vibrational temperatures:     77.42    96.78   168.59   182.54   305.41
          (Kelvin)            311.88   326.31   369.42   416.05   534.72
                              608.28   698.33   773.67   873.99   941.41
                             1004.53  1112.20  1118.43  1207.00  1268.99
                             1360.78  1411.84  1449.29  1489.91  1636.27
                             1644.68  1727.61  1804.89  1870.56  1914.20
                             1991.97  2012.19  2024.47  2029.66  2121.52
                             2142.12  2153.76  2161.71  2171.47  2566.62
                             3217.65  4360.17  4371.72  4380.88  4404.28
                             4424.65  4467.98  4483.71  4491.36  4509.86
                             5033.49

 Zero-point correction=                           0.155534 (Hartree/Particle)
 Thermal correction to Energy=                    0.165948
 Thermal correction to Enthalpy=                  0.166892
 Thermal correction to Gibbs Free Energy=         0.119462
 Sum of electronic and zero-point Energies=           -423.032247
 Sum of electronic and thermal Energies=              -423.021833
 Sum of electronic and thermal Enthalpies=            -423.020888
 Sum of electronic and thermal Free Energies=         -423.068319

                     E (Thermal)             CV                S
                      KCal/Mol        Cal/Mol-Kelvin    Cal/Mol-Kelvin
 Total                  104.134             36.858             99.825
 Electronic               0.000              0.000              0.000
 Translational            0.889              2.981             40.409
 Rotational               0.889              2.981             29.423
 Vibrational            102.356             30.897             29.994
 Vibration     1          0.596              1.976              4.672
 Vibration     2          0.598              1.970              4.232
 Vibration     3          0.608              1.935              3.146
 Vibration     4          0.611              1.926              2.993
 Vibration     5          0.643              1.822              2.024
 Vibration     6          0.646              1.816              1.986
 Vibration     7          0.650              1.800              1.904
 Vibration     8          0.666              1.751              1.684
 Vibration     9          0.686              1.694              1.479
 Vibration    10          0.743              1.530              1.073
 Vibration    11          0.785              1.421              0.883
 Vibration    12          0.841              1.283              0.696
 Vibration    13          0.893              1.167              0.570
 Vibration    14          0.966              1.016              0.437

 Optimization completed.
    -- Stationary point found.
 Normal termination of Gaussian 09 at Tue Jan 28 08:59:12 2020.
