 Gaussian 09, Revision D.01,
 Gaussian 09:  ES64L-G09RevD.01 24-Apr-2013

 -----------------------------
 # b3lyp 6-31G(2df,p) opt Freq
 -----------------------------

 -----
 titel
 -----
 Symbolic Z-matrix:
 Charge =  0 Multiplicity = 1

 SCF Done:  E(RB3LYP) =  -423.154944793     A.U. after   13 cycles
 Optimization completed.
    -- Stationary point found.
 Normal termination of Gaussian 09 at Mon Jan 27 18:22:22 2020.

 ----------------------------------------------------------------------
 #N Geom=AllCheck Guess=TCheck SCRF=Check GenChk RB3LYP/6-31G(2df,p) Fr
 eq
 ----------------------------------------------------------------------

 Structure from the checkpoint file:  "/scratch/puck/g09_250852d5-24f7-46cf-8726-f6bf1d75045d/Gau-81655.chk"
 -----
 titel
 -----
 Charge =  0 Multiplicity = 1

                         Standard orientation:
 ---------------------------------------------------------------------
 Center     Atomic      Atomic             Coordinates (Angstroms)
 Number     Number       Type             X           Y           Z
 ---------------------------------------------------------------------
      1          8           0       -2.320597    0.159337   -0.419428
      2          6           0       -0.957841    0.212237   -0.138652
      3          6           0       -0.273061    1.565633   -0.245100
      4          6           0        0.796321    0.975667    0.722948
      5          6           0        1.861815    0.274459   -0.119016
      6          8           0        1.216101   -0.509939   -1.127234
      7          6           0       -0.039492   -0.977675   -0.666669
      8          6           0        0.046335   -1.518312    0.790487
      9          6           0       -0.265295   -0.081347    1.242450
     10          1           0       -2.625305   -0.751697   -0.349914
     11          1           0        0.061805    1.907999   -1.228325
     12          1           0       -0.883729    2.335893    0.233803
     13          1           0        1.235366    1.640507    1.467999
     14          1           0        2.498604    0.995666   -0.642113
     15          1           0        2.510334   -0.357835    0.504599
     16          1           0       -0.455243   -1.610414   -1.455061
     17          1           0       -0.785517   -2.191519    1.023630
     18          1           0        0.980531   -2.002974    1.086986
     19          1           0       -0.713582    0.135214    2.212996
 ---------------------------------------------------------------------

 SCF Done:  E(RB3LYP) =  -423.154944793     A.U. after    1 cycles

 The electronic state is 1-A.
 Alpha  occ. eigenvalues --  -19.14489 -19.13841 -10.23177 -10.23139 -10.22596
 Alpha  occ. eigenvalues --  -10.19376 -10.18485 -10.18305 -10.17609  -1.04056
 Alpha  occ. eigenvalues --   -1.02441  -0.86214  -0.77334  -0.71050  -0.62329
 Alpha  occ. eigenvalues --   -0.61471  -0.60495  -0.54262  -0.51445  -0.48702
 Alpha  occ. eigenvalues --   -0.46319  -0.44990  -0.42004  -0.41205  -0.39793
 Alpha  occ. eigenvalues --   -0.38539  -0.37331  -0.36340  -0.33077  -0.31433
 Alpha  occ. eigenvalues --   -0.30423  -0.28649  -0.25422  -0.22986
 Alpha virt. eigenvalues --    0.06744   0.08526   0.10192   0.12063   0.12709
 Alpha virt. eigenvalues --    0.14332   0.14818   0.15993   0.16061   0.18232
 Alpha virt. eigenvalues --    0.19303   0.19527   0.20234   0.21123   0.21208

 Mulliken charges:
               1
     1  O   -0.485382
     2  C    0.412768
     3  C   -0.272097
     4  C   -0.063155
     5  C   -0.086774
     6  O   -0.264480
     7  C    0.036714
     8  C   -0.273846
     9  C   -0.104311
    10  H    0.280250
    11  H    0.103462
    12  H    0.104950
    13  H    0.073588
    14  H    0.107785
    15  H    0.094274
    16  H    0.075940
    17  H    0.091908
    18  H    0.102405
    19  H    0.066003
 Sum of Mulliken charges =   0.00000

 Dipole moment (field-independent basis, Debye):
    X=              0.0765    Y=             -0.7114    Z=              1.4925  Tot=              1.6551
 Quadrupole moment (field-independent basis, Debye-Ang):
   XX=            -53.6023   YY=            -50.7372   ZZ=            -54.9935
   XY=              5.6711   XZ=              1.3008   YZ=              0.2795

  Exact polarizability:  77.311   3.508  76.193   1.215  -1.077  67.101
 Approx polarizability: 111.497   4.025 109.095   1.979  -0.611 104.600

                      1                      2                      3
                      A                      A                      A
 Frequencies --    203.8389               253.0663               291.8541
 Red. masses --      1.1790                 2.9593                 2.7800
 Frc consts  --      0.0289                 0.1117                 0.1395
 IR Inten    --     56.3072                24.4124                10.4787

                      4                      5                      6
                      A                      A                      A
 Frequencies --    312.8740               390.8151               435.2083
 Red. masses --      3.6621                 2.1774                 2.9033
 Frc consts  --      0.2112                 0.1959                 0.3240
 IR Inten    --     12.4595                 0.1699                 1.6328

                      7                      8                      9
                      A                      A                      A
 Frequencies --    455.3205               501.6662               574.1465
 Red. masses --      2.0047                 5.0716                 4.4378
 Frc consts  --      0.2449                 0.7520                 0.8619
 IR Inten    --      6.1293                 1.1596                 2.9470

                     10                     11                     12
                      A                      A                      A
 Frequencies --    663.7237               688.3418               790.6917
 Red. masses --      2.9852                 3.6733                 3.0376
 Frc consts  --      0.7748                 1.0254                 1.1189
 IR Inten    --      2.0585                12.5612                 1.5185

                     13                     14                     15
                      A                      A                      A
 Frequencies --    838.3541               854.9966               891.5754
 Red. masses --      2.5073                 2.3184                 2.8175
 Frc consts  --      1.0383                 0.9985                 1.3195
 IR Inten    --      8.0384                 2.4474                 3.1509

                     16                     17                     18
                      A                      A                      A
 Frequencies --    905.6714               935.0783               953.4046
 Red. masses --      2.4440                 2.0764                 2.2587
 Frc consts  --      1.1811                 1.0697                 1.2097
 IR Inten    --      4.5330                 2.5270                19.3366

                     19                     20                     21
                      A                      A                      A
 Frequencies --    969.3892              1018.0439              1040.8801
 Red. masses --      1.4592                 2.1097                 1.5449
 Frc consts  --      0.8079                 1.2883                 0.9862
 IR Inten    --     15.5402                25.5784                22.9659

                     22                     23                     24
                      A                      A                      A
 Frequencies --   1052.3646              1089.6508              1104.6360
 Red. masses --      2.0753                 2.2245                 1.9504
 Frc consts  --      1.3541                 1.5562                 1.4022
 IR Inten    --     14.3701                 4.6766                 8.7325

                     25                     26                     27
                      A                      A                      A
 Frequencies --   1116.1107              1148.2052              1163.4101
 Red. masses --      1.8504                 1.7237                 2.1112
 Frc consts  --      1.3581                 1.3389                 1.6836
 IR Inten    --      1.7725                37.0653                86.0382

                     28                     29                     30
                      A                      A                      A
 Frequencies --   1182.6499              1196.0076              1235.0115
 Red. masses --      1.5275                 1.6624                 1.4186
 Frc consts  --      1.2588                 1.4010                 1.2749
 IR Inten    --      5.8975                 5.7679                 6.7450

                     31                     32                     33
                      A                      A                      A
 Frequencies --   1251.6847              1267.0934              1278.5744
 Red. masses --      1.6639                 1.3048                 1.5561
 Frc consts  --      1.5359                 1.2343                 1.4988
 IR Inten    --      6.4383                 2.0717                10.5042

                     34                     35                     36
                      A                      A                      A
 Frequencies --   1317.8684              1323.7433              1348.6044
 Red. masses --      1.9966                 1.8349                 1.3597
 Frc consts  --      2.0431                 1.8944                 1.4570
 IR Inten    --     46.5113                73.2809                17.7374

                     37                     38                     39
                      A                      A                      A
 Frequencies --   1382.6954              1402.0396              1483.6566
 Red. masses --      1.7897                 1.4625                 1.1358
 Frc consts  --      2.0159                 1.6938                 1.4730
 IR Inten    --      2.0483                 4.8457                 5.6604

                     40                     41                     42
                      A                      A                      A
 Frequencies --   1485.4592              1523.8678              2997.3667
 Red. masses --      1.1513                 1.0874                 1.0679
 Frc consts  --      1.4968                 1.4878                 5.6527
 IR Inten    --      1.8923                 0.8797                59.7990

                     43                     44                     45
                      A                      A                      A
 Frequencies --   3044.7471              3054.2130              3067.6082
 Red. masses --      1.0599                 1.0570                 1.0956
 Frc consts  --      5.7891                 5.8092                 6.0743
 IR Inten    --     30.8790                31.7459                37.1260

                     46                     47                     48
                      A                      A                      A
 Frequencies --   3081.5834              3095.9227              3097.8577
 Red. masses --      1.0894                 1.0893                 1.1049
 Frc consts  --      6.0951                 6.1515                 6.2475
 IR Inten    --     52.3129                24.0318                34.2034

                     49                     50                     51
                      A                      A                      A
 Frequencies --   3106.7675              3113.3150              3805.9648
 Red. masses --      1.0916                 1.1061                 1.0659
 Frc consts  --      6.2080                 6.3166                 9.0969
 IR Inten    --     28.3423                30.5413                15.4674

 - Thermochemistry -
 -------------------
 Temperature   298.150 Kelvin.  Pressure   1.00000 Atm.
 Atom     1 has atomic number  8 and mass  15.99491

 Molecular mass:   126.06808 amu.
 Principal axes and moments of inertia in atomic units:
                           1         2         3
     Eigenvalues --   666.46320 970.582661097.18933
           X            0.99880   0.04781   0.01076
           Y           -0.04726   0.99779  -0.04670
           Z           -0.01297   0.04613   0.99885
 This molecule is an asymmetric top.
 Rotational symmetry number  1.
 Warning -- assumption of classical behavior for rotation
           may cause significant error
 Rotational temperatures (Kelvin)      0.12996     0.08924     0.07894
 Rotational constants (GHZ):           2.70794     1.85944     1.64488
 Zero-point vibrational energy     423404.0 (Joules/Mol)
                                  101.19598 (Kcal/Mol)
 Warning -- explicit consideration of   9 degrees of freedom as
           vibrations may cause significant error
 Vibrational temperatures:    293.28   364.11   419.91   450.16   562.30
          (Kelvin)            626.17   655.10   721.78   826.07   954.95
                              990.37  1137.63  1206.20  1230.15  1282.78
                             1303.06  1345.37  1371.73  1394.73  1464.74
                             1497.59  1514.12  1567.76  1589.32  1605.83
                             1652.01  1673.89  1701.57  1720.79  1776.90
                             1800.89  1823.06  1839.58  1896.12  1904.57
                             1940.34  1989.39  2017.22  2134.65  2137.24
                             2192.50  4312.54  4380.71  4394.33  4413.60
                             4433.71  4454.34  4457.12  4469.94  4479.36
                             5475.93

 Zero-point correction=                           0.161266 (Hartree/Particle)
 Thermal correction to Energy=                    0.168280
 Thermal correction to Enthalpy=                  0.169224
 Thermal correction to Gibbs Free Energy=         0.130459
 Sum of electronic and zero-point Energies=           -422.993679
 Sum of electronic and thermal Energies=              -422.986665
 Sum of electronic and thermal Enthalpies=            -422.985720
 Sum of electronic and thermal Free Energies=         -423.024486

                     E (Thermal)             CV                S
                      KCal/Mol        Cal/Mol-Kelvin    Cal/Mol-Kelvin
 Total                  105.597             29.601             81.589
 Electronic               0.000              0.000              0.000
 Translational            0.889              2.981             40.409
 Rotational               0.889              2.981             28.053
 Vibrational            103.820             23.640             13.128
 Vibration     1          0.640              1.834              2.098
 Vibration     2          0.664              1.758              1.709
 Vibration     3          0.687              1.689              1.463
 Vibration     4          0.701              1.649              1.347
 Vibration     5          0.758              1.490              0.997
 Vibration     6          0.796              1.393              0.842
 Vibration     7          0.814              1.349              0.780
 Vibration     8          0.857              1.246              0.654
 Vibration     9          0.930              1.087              0.496

 Optimization completed.
    -- Stationary point found.
 Normal termination of Gaussian 09 at Mon Jan 27 19:18:23 2020.
