 Gaussian 09, Revision D.01,
 Gaussian 09:  ES64L-G09RevD.01 24-Apr-2013

 -----------------------------
 # b3lyp 6-31G(2df,p) opt Freq
 -----------------------------

 -----
 titel
 -----
 Symbolic Z-matrix:
 Charge =  0 Multiplicity = 1

 SCF Done:  E(RB3LYP) =  -423.198923982     A.U. after   14 cycles
 Optimization completed.
    -- Stationary point found.
 Normal termination of Gaussian 09 at Mon Jan 27 22:03:50 2020.

 ----------------------------------------------------------------------
 #N Geom=AllCheck Guess=TCheck SCRF=Check GenChk RB3LYP/6-31G(2df,p) Fr
 eq
 ----------------------------------------------------------------------

 Structure from the checkpoint file:  "/scratch/puck/g09_6f0f9c6f-2004-4616-a390-b47cee943ca4/Gau-189663.chk"
 -----
 titel
 -----
 Charge =  0 Multiplicity = 1

                         Standard orientation:
 ---------------------------------------------------------------------
 Center     Atomic      Atomic             Coordinates (Angstroms)
 Number     Number       Type             X           Y           Z
 ---------------------------------------------------------------------
      1          6           0       -0.483025    2.450013    0.152237
      2          6           0        0.064866    1.107181    0.590474
      3          6           0        0.823760    0.217752   -0.362939
      4          6           0        2.093826   -0.428098    0.048846
      5          8           0        2.995958   -0.678444   -0.711215
      6          6           0       -0.533230   -0.240480    0.235485
      7          6           0       -0.613953   -1.332525    1.284074
      8          6           0       -1.630868   -0.282003   -0.774779
      9          8           0       -2.548976   -1.062795   -0.732996
     10          1           0       -1.352242    2.733136    0.754740
     11          1           0        0.280469    3.223780    0.280826
     12          1           0       -0.783919    2.458777   -0.897540
     13          1           0        0.465857    1.113726    1.602713
     14          1           0        0.803787    0.489883   -1.414850
     15          1           0        2.177995   -0.655723    1.134570
     16          1           0       -1.599361   -1.311314    1.756870
     17          1           0       -0.491643   -2.321781    0.834077
     18          1           0        0.142723   -1.209640    2.061775
     19          1           0       -1.547778    0.458033   -1.599883
 ---------------------------------------------------------------------

 SCF Done:  E(RB3LYP) =  -423.198923982     A.U. after    1 cycles

 The electronic state is 1-A.
 Alpha  occ. eigenvalues --  -19.14580 -19.14278 -10.27936 -10.27882 -10.23168
 Alpha  occ. eigenvalues --  -10.23143 -10.22137 -10.20337 -10.19399  -1.05382
 Alpha  occ. eigenvalues --   -1.05058  -0.90522  -0.75690  -0.72959  -0.68278
 Alpha  occ. eigenvalues --   -0.64089  -0.58125  -0.54518  -0.51599  -0.48650
 Alpha  occ. eigenvalues --   -0.46055  -0.44517  -0.43578  -0.42835  -0.42073
 Alpha  occ. eigenvalues --   -0.41078  -0.40066  -0.39477  -0.38886  -0.38184
 Alpha  occ. eigenvalues --   -0.31739  -0.30316  -0.26131  -0.25784
 Alpha virt. eigenvalues --   -0.04687  -0.01191   0.07650   0.08259   0.10237
 Alpha virt. eigenvalues --    0.11679   0.12287   0.13713   0.14159   0.15528
 Alpha virt. eigenvalues --    0.17133   0.17595   0.19563   0.20164   0.21438

 Mulliken charges:
               1
     1  C   -0.424102
     2  C   -0.064965
     3  C   -0.163475
     4  C    0.158987
     5  O   -0.260761
     6  C    0.187223
     7  C   -0.469294
     8  C    0.127246
     9  O   -0.260192
    10  H    0.135200
    11  H    0.134529
    12  H    0.130515
    13  H    0.105394
    14  H    0.111004
    15  H    0.074800
    16  H    0.143401
    17  H    0.141050
    18  H    0.117361
    19  H    0.076079
 Sum of Mulliken charges =   0.00000

 Dipole moment (field-independent basis, Debye):
    X=             -0.3814    Y=              2.5263    Z=              1.8799  Tot=              3.1720
 Quadrupole moment (field-independent basis, Debye-Ang):
   XX=            -70.1434   YY=            -52.5934   ZZ=            -51.8495
   XY=             -1.7800   XZ=              2.3701   YZ=             -2.2314

  Exact polarizability:  92.059   0.707  77.386  -0.888  -2.065  70.042
 Approx polarizability: 142.310   6.366 109.613  -7.243   1.476 108.769

                      1                      2                      3
                      A                      A                      A
 Frequencies --     71.7603               103.4008               160.6960
 Red. masses --      9.5172                 3.8669                 1.6450
 Frc consts  --      0.0289                 0.0244                 0.0250
 IR Inten    --      7.2322                 2.1252                 2.2722

                      4                      5                      6
                      A                      A                      A
 Frequencies --    178.5409               189.3275               228.5443
 Red. masses --      1.2148                 1.4541                 2.6966
 Frc consts  --      0.0228                 0.0307                 0.0830
 IR Inten    --      1.8083                 2.3768                 3.9083

                      7                      8                      9
                      A                      A                      A
 Frequencies --    247.4761               256.2265               297.9593
 Red. masses --      2.5422                 2.2708                 2.6964
 Frc consts  --      0.0917                 0.0878                 0.1410
 IR Inten    --      2.2829                 2.5725                 3.0374

                     10                     11                     12
                      A                      A                      A
 Frequencies --    361.7140               441.4663               473.5468
 Red. masses --      3.0153                 3.3631                 3.5321
 Frc consts  --      0.2324                 0.3862                 0.4667
 IR Inten    --      1.3504                 3.1798                 2.6486

                     13                     14                     15
                      A                      A                      A
 Frequencies --    490.1430               561.8215               728.0478
 Red. masses --      3.2694                 4.6790                 3.5932
 Frc consts  --      0.4628                 0.8702                 1.1221
 IR Inten    --      5.1629                20.9216                 2.5002

                     16                     17                     18
                      A                      A                      A
 Frequencies --    764.1469               898.0997               961.2219
 Red. masses --      3.2325                 2.1511                 1.7447
 Frc consts  --      1.1121                 1.0223                 0.9498
 IR Inten    --      9.3154                27.2563                54.3133

                     19                     20                     21
                      A                      A                      A
 Frequencies --    980.4002              1002.9742              1045.1998
 Red. masses --      1.4784                 1.3569                 1.7285
 Frc consts  --      0.8372                 0.8042                 1.1125
 IR Inten    --      5.2513                 9.7919                 5.8103

                     22                     23                     24
                      A                      A                      A
 Frequencies --   1065.2102              1083.0781              1104.1245
 Red. masses --      1.8209                 1.9766                 1.6919
 Frc consts  --      1.2173                 1.3661                 1.2153
 IR Inten    --     20.0783                57.5722                17.8983

                     25                     26                     27
                      A                      A                      A
 Frequencies --   1113.6624              1132.4563              1179.9501
 Red. masses --      2.2706                 1.6123                 2.0208
 Frc consts  --      1.6592                 1.2182                 1.6577
 IR Inten    --      5.5414                 1.9366                31.9501

                     28                     29                     30
                      A                      A                      A
 Frequencies --   1246.8211              1284.9324              1347.2684
 Red. masses --      1.6060                 2.0396                 1.8969
 Frc consts  --      1.4710                 1.9840                 2.0286
 IR Inten    --      4.2547                 2.9767                 4.2167

                     31                     32                     33
                      A                      A                      A
 Frequencies --   1415.0526              1418.1262              1431.0851
 Red. masses --      1.3809                 1.2233                 1.3107
 Frc consts  --      1.6291                 1.4495                 1.5815
 IR Inten    --      1.6664                 3.7550                 4.6867

                     34                     35                     36
                      A                      A                      A
 Frequencies --   1442.4542              1455.6190              1486.0878
 Red. masses --      1.2016                 1.6778                 1.0445
 Frc consts  --      1.4731                 2.0946                 1.3591
 IR Inten    --      6.2131                 6.7463                 6.0095

                     37                     38                     39
                      A                      A                      A
 Frequencies --   1493.9978              1498.2048              1506.2729
 Red. masses --      1.0463                 1.0495                 1.1464
 Frc consts  --      1.3759                 1.3880                 1.5325
 IR Inten    --      2.9411                11.2756                 1.4235

                     40                     41                     42
                      A                      A                      A
 Frequencies --   1811.4496              1816.2844              2883.0956
 Red. masses --     10.3920                10.2715                 1.0820
 Frc consts  --     20.0910                19.9642                 5.2988
 IR Inten    --    354.9450               133.7016                77.3029

                     43                     44                     45
                      A                      A                      A
 Frequencies --   2895.5019              3042.1567              3052.5490
 Red. masses --      1.0827                 1.0368                 1.0356
 Frc consts  --      5.3483                 5.6535                 5.6852
 IR Inten    --     87.4824                24.6764                14.5680

                     46                     47                     48
                      A                      A                      A
 Frequencies --   3103.5765              3115.4864              3119.4080
 Red. masses --      1.1015                 1.0920                 1.1012
 Frc consts  --      6.2511                 6.2446                 6.3131
 IR Inten    --     14.5076                 1.1284                 9.2376

                     49                     50                     51
                      A                      A                      A
 Frequencies --   3130.2756              3133.9910              3155.2892
 Red. masses --      1.1005                 1.0961                 1.0875
 Frc consts  --      6.3535                 6.3431                 6.3792
 IR Inten    --      5.5097                29.8165                 6.1514

 - Thermochemistry -
 -------------------
 Temperature   298.150 Kelvin.  Pressure   1.00000 Atm.
 Atom     1 has atomic number  6 and mass  12.00000

 Molecular mass:   126.06808 amu.
 Principal axes and moments of inertia in atomic units:
                           1         2         3
     Eigenvalues --   859.987851543.933221918.75036
           X            0.99988  -0.01485   0.00500
           Y            0.01512   0.99817  -0.05859
           Z           -0.00412   0.05866   0.99827
 This molecule is an asymmetric top.
 Rotational symmetry number  1.
 Warning -- assumption of classical behavior for rotation
           may cause significant error
 Rotational temperatures (Kelvin)      0.10072     0.05610     0.04514
 Rotational constants (GHZ):           2.09857     1.16892     0.94058
 Zero-point vibrational energy     409159.8 (Joules/Mol)
                                   97.79155 (Kcal/Mol)
 Warning -- explicit consideration of  14 degrees of freedom as
           vibrations may cause significant error
 Vibrational temperatures:    103.25   148.77   231.21   256.88   272.40
          (Kelvin)            328.82   356.06   368.65   428.70   520.43
                              635.17   681.33   705.21   808.33  1047.50
                             1099.44  1292.16  1382.98  1410.58  1443.05
                             1503.81  1532.60  1558.31  1588.59  1602.31
                             1629.35  1697.68  1793.90  1848.73  1938.42
                             2035.94  2040.36  2059.01  2075.37  2094.31
                             2138.15  2149.53  2155.58  2167.19  2606.27
                             2613.22  4148.13  4165.98  4376.98  4391.93
                             4465.35  4482.48  4488.13  4503.76  4509.11
                             4539.75

 Zero-point correction=                           0.155841 (Hartree/Particle)
 Thermal correction to Energy=                    0.165804
 Thermal correction to Enthalpy=                  0.166748
 Thermal correction to Gibbs Free Energy=         0.120861
 Sum of electronic and zero-point Energies=           -423.043083
 Sum of electronic and thermal Energies=              -423.033120
 Sum of electronic and thermal Enthalpies=            -423.032176
 Sum of electronic and thermal Free Energies=         -423.078063

                     E (Thermal)             CV                S
                      KCal/Mol        Cal/Mol-Kelvin    Cal/Mol-Kelvin
 Total                  104.044             35.533             96.578
 Electronic               0.000              0.000              0.000
 Translational            0.889              2.981             40.409
 Rotational               0.889              2.981             29.323
 Vibrational            102.266             29.572             26.847
 Vibration     1          0.598              1.967              4.104
 Vibration     2          0.605              1.946              3.389
 Vibration     3          0.622              1.891              2.542
 Vibration     4          0.629              1.869              2.344
 Vibration     5          0.633              1.855              2.234
 Vibration     6          0.651              1.797              1.890
 Vibration     7          0.661              1.767              1.748
 Vibration     8          0.666              1.752              1.687
 Vibration     9          0.691              1.678              1.428
 Vibration    10          0.736              1.551              1.115
 Vibration    11          0.801              1.380              0.822
 Vibration    12          0.830              1.309              0.728
 Vibration    13          0.846              1.272              0.683
 Vibration    14          0.918              1.114              0.520

 Normal termination of Gaussian 09 at Mon Jan 27 22:44:48 2020.
