 Gaussian 09, Revision D.01,
 Gaussian 09:  ES64L-G09RevD.01 24-Apr-2013

 -----------------------------
 # b3lyp 6-31G(2df,p) opt Freq
 -----------------------------

 -----
 titel
 -----
 Symbolic Z-matrix:
 Charge =  0 Multiplicity = 1

 SCF Done:  E(RB3LYP) =  -423.096573078     A.U. after   14 cycles
 Optimization completed.
    -- Stationary point found.
 Normal termination of Gaussian 09 at Mon Jan 27 16:09:27 2020.

 ----------------------------------------------------------------------
 #N Geom=AllCheck Guess=TCheck SCRF=Check GenChk RB3LYP/6-31G(2df,p) Fr
 eq
 ----------------------------------------------------------------------

 Structure from the checkpoint file:  "/scratch/puck/g09_528ff4b2-5be3-4e22-8435-b8b2b842e2ef/Gau-10664.chk"
 -----
 titel
 -----
 Charge =  0 Multiplicity = 1

                         Standard orientation:
 ---------------------------------------------------------------------
 Center     Atomic      Atomic             Coordinates (Angstroms)
 Number     Number       Type             X           Y           Z
 ---------------------------------------------------------------------
      1          6           0       -0.810385   -1.805058   -0.693595
      2          6           0       -0.829949   -0.485714    0.049362
      3          8           0       -2.157646   -0.111732    0.370439
      4          6           0        0.123460    0.019201    1.132540
      5          6           0        1.638793   -0.128968    0.831662
      6          8           0        1.846205   -0.850545   -0.392511
      7          6           0        1.489271    0.537190   -0.457810
      8          6           0       -0.039490    0.772560   -0.207496
      9          6           0       -0.641434    2.118521   -0.490817
     10          1           0       -1.463864   -1.728291   -1.569043
     11          1           0        0.188623   -2.093219   -1.004214
     12          1           0       -1.213267   -2.595888   -0.046205
     13          1           0       -2.537247   -0.831362    0.886622
     14          1           0       -0.268517    0.313476    2.098164
     15          1           0        2.447537   -0.133120    1.552883
     16          1           0        2.142962    1.195344   -1.019236
     17          1           0       -1.649423    2.182605   -0.079090
     18          1           0       -0.035944    2.922144   -0.054894
     19          1           0       -0.700930    2.300131   -1.571499
 ---------------------------------------------------------------------

 SCF Done:  E(RB3LYP) =  -423.096573078     A.U. after    1 cycles

 The electronic state is 1-A.
 Alpha  occ. eigenvalues --  -19.15363 -19.14171 -10.24714 -10.24013 -10.23763
 Alpha  occ. eigenvalues --  -10.19882 -10.18724 -10.17533 -10.16672  -1.07878
 Alpha  occ. eigenvalues --   -1.02898  -0.85956  -0.72930  -0.71366  -0.66611
 Alpha  occ. eigenvalues --   -0.63510  -0.56656  -0.54006  -0.50146  -0.48148
 Alpha  occ. eigenvalues --   -0.46483  -0.44099  -0.42051  -0.40673  -0.39244
 Alpha  occ. eigenvalues --   -0.38989  -0.38662  -0.35734  -0.35111  -0.33317
 Alpha  occ. eigenvalues --   -0.30361  -0.25842  -0.25669  -0.22313
 Alpha virt. eigenvalues --    0.05667   0.07784   0.10418   0.11082   0.12917
 Alpha virt. eigenvalues --    0.13988   0.14743   0.14919   0.15301   0.17759
 Alpha virt. eigenvalues --    0.17995   0.18964   0.20162   0.21428   0.21879

 Mulliken charges:
               1
     1  C   -0.479663
     2  C    0.357011
     3  O   -0.464052
     4  C   -0.227986
     5  C    0.010711
     6  O   -0.246567
     7  C   -0.044841
     8  C    0.244144
     9  C   -0.495294
    10  H    0.119543
    11  H    0.158862
    12  H    0.098940
    13  H    0.280990
    14  H    0.090817
    15  H    0.111422
    16  H    0.107485
    17  H    0.148463
    18  H    0.112628
    19  H    0.117389
 Sum of Mulliken charges =   0.00000

 Dipole moment (field-independent basis, Debye):
    X=             -0.1102    Y=              0.4383    Z=              1.1832  Tot=              1.2665
 Quadrupole moment (field-independent basis, Debye-Ang):
   XX=            -53.3489   YY=            -52.6600   ZZ=            -50.6455
   XY=              5.6482   XZ=             -0.2540   YZ=             -2.2822

  Exact polarizability:  79.724   2.982  77.030   1.030  -3.592  69.658
 Approx polarizability: 112.488   0.702 109.838  -0.246  -7.096 112.510

                      1                      2                      3
                      A                      A                      A
 Frequencies --    163.0344               184.7841               188.3377
 Red. masses --      1.8756                 1.3204                 1.1169
 Frc consts  --      0.0294                 0.0266                 0.0233
 IR Inten    --      0.6297                 0.6878                 0.2570

                      4                      5                      6
                      A                      A                      A
 Frequencies --    216.1361               267.1535               282.5018
 Red. masses --      2.4400                 1.2361                 2.5114
 Frc consts  --      0.0672                 0.0520                 0.1181
 IR Inten    --      1.6504                70.0577                 4.9037

                      7                      8                      9
                      A                      A                      A
 Frequencies --    287.4120               364.0985               385.5381
 Red. masses --      3.6575                 3.6243                 3.8427
 Frc consts  --      0.1780                 0.2831                 0.3365
 IR Inten    --     27.0162                 4.0593                 2.1625

                     10                     11                     12
                      A                      A                      A
 Frequencies --    431.8386               495.3665               612.8054
 Red. masses --      4.4963                 2.7681                 3.8558
 Frc consts  --      0.4940                 0.4002                 0.8531
 IR Inten    --      5.7873                 2.7762                23.4532

                     13                     14                     15
                      A                      A                      A
 Frequencies --    629.9335               712.7987               744.8255
 Red. masses --      3.6694                 5.4737                 3.7496
 Frc consts  --      0.8579                 1.6386                 1.2256
 IR Inten    --      3.6276                 6.7663                 0.2127

                     16                     17                     18
                      A                      A                      A
 Frequencies --    803.3932               837.6405               877.4544
 Red. masses --      4.5352                 1.7545                 2.0917
 Frc consts  --      1.7246                 0.7253                 0.9489
 IR Inten    --      5.2024                17.5620                 1.1604

                     19                     20                     21
                      A                      A                      A
 Frequencies --    898.1122               922.5462               936.1254
 Red. masses --      1.3644                 2.4291                 2.6149
 Frc consts  --      0.6484                 1.2180                 1.3501
 IR Inten    --     19.2359                 6.3724                 8.1472

                     22                     23                     24
                      A                      A                      A
 Frequencies --    973.3679               982.6719              1043.3087
 Red. masses --      1.7769                 2.7152                 1.2750
 Frc consts  --      0.9919                 1.5448                 0.8177
 IR Inten    --     23.0655                16.9523                 2.9665

                     25                     26                     27
                      A                      A                      A
 Frequencies --   1084.2986              1108.4147              1142.8363
 Red. masses --      1.4496                 1.7168                 2.1006
 Frc consts  --      1.0041                 1.2427                 1.6164
 IR Inten    --     22.6730                 0.9967                66.3650

                     28                     29                     30
                      A                      A                      A
 Frequencies --   1165.5035              1197.5480              1213.2729
 Red. masses --      3.1484                 1.6697                 1.7619
 Frc consts  --      2.5198                 1.4109                 1.5281
 IR Inten    --      7.3280                 1.6867                16.4107

                     31                     32                     33
                      A                      A                      A
 Frequencies --   1253.1504              1270.0567              1297.6693
 Red. masses --      1.5317                 1.9086                 2.0185
 Frc consts  --      1.4172                 1.8138                 2.0026
 IR Inten    --     28.5901                50.2803                 8.7942

                     34                     35                     36
                      A                      A                      A
 Frequencies --   1373.4319              1398.7926              1407.4588
 Red. masses --      3.0005                 1.3234                 1.3236
 Frc consts  --      3.3347                 1.5256                 1.5448
 IR Inten    --      6.1023                 6.0417                 1.5099

                     37                     38                     39
                      A                      A                      A
 Frequencies --   1461.1597              1488.4230              1493.0149
 Red. masses --      2.2423                 1.1022                 1.0458
 Frc consts  --      2.8206                 1.4387                 1.3734
 IR Inten    --     12.8911                11.5376                 5.1932

                     40                     41                     42
                      A                      A                      A
 Frequencies --   1499.2372              1508.4714              3017.6484
 Red. masses --      1.2026                 1.1102                 1.0481
 Frc consts  --      1.5926                 1.4885                 5.6232
 IR Inten    --     10.0109                 6.6037                62.3223

                     43                     44                     45
                      A                      A                      A
 Frequencies --   3019.9826              3069.8911              3083.3874
 Red. masses --      1.0409                 1.0999                 1.0935
 Frc consts  --      5.5932                 6.1074                 6.1252
 IR Inten    --     26.1112                24.5652                23.2838

                     46                     47                     48
                      A                      A                      A
 Frequencies --   3142.0652              3173.9215              3187.6099
 Red. masses --      1.0952                 1.0869                 1.0963
 Frc consts  --      6.3707                 6.4511                 6.5634
 IR Inten    --      4.9837                13.0858                22.7259

                     49                     50                     51
                      A                      A                      A
 Frequencies --   3196.5669              3202.2111              3800.4864
 Red. masses --      1.0972                 1.0934                 1.0660
 Frc consts  --      6.6056                 6.6056                 9.0717
 IR Inten    --     12.2799                 1.3658                18.6674

 - Thermochemistry -
 -------------------
 Temperature   298.150 Kelvin.  Pressure   1.00000 Atm.
 Atom     1 has atomic number  6 and mass  12.00000

 Molecular mass:   126.06808 amu.
 Principal axes and moments of inertia in atomic units:
                           1         2         3
     Eigenvalues --   743.174871029.065301381.24136
           X            0.99857   0.05206   0.01219
           Y           -0.05200   0.99864  -0.00477
           Z           -0.01242   0.00413   0.99991
 This molecule is an asymmetric top.
 Rotational symmetry number  1.
 Warning -- assumption of classical behavior for rotation
           may cause significant error
 Rotational temperatures (Kelvin)      0.11655     0.08417     0.06271
 Rotational constants (GHZ):           2.42842     1.75377     1.30661
 Zero-point vibrational energy     409707.2 (Joules/Mol)
                                   97.92237 (Kcal/Mol)
 Warning -- explicit consideration of  12 degrees of freedom as
           vibrations may cause significant error
 Vibrational temperatures:    234.57   265.86   270.98   310.97   384.37
          (Kelvin)            406.46   413.52   523.86   554.70   621.32
                              712.72   881.69   906.33  1025.56  1071.64
                             1155.90  1205.18  1262.46  1292.18  1327.34
                             1346.87  1400.46  1413.84  1501.09  1560.06
                             1594.76  1644.28  1676.90  1723.00  1745.63
                             1803.00  1827.33  1867.05  1976.06  2012.55
                             2025.02  2102.28  2141.51  2148.11  2157.07
                             2170.35  4341.72  4345.08  4416.88  4436.30
                             4520.73  4566.56  4586.25  4599.14  4607.26
                             5468.05

 Zero-point correction=                           0.156049 (Hartree/Particle)
 Thermal correction to Energy=                    0.164899
 Thermal correction to Enthalpy=                  0.165843
 Thermal correction to Gibbs Free Energy=         0.123435
 Sum of electronic and zero-point Energies=           -422.940524
 Sum of electronic and thermal Energies=              -422.931674
 Sum of electronic and thermal Enthalpies=            -422.930730
 Sum of electronic and thermal Free Energies=         -422.973138

                     E (Thermal)             CV                S
                      KCal/Mol        Cal/Mol-Kelvin    Cal/Mol-Kelvin
 Total                  103.475             34.724             89.255
 Electronic               0.000              0.000              0.000
 Translational            0.889              2.981             40.409
 Rotational               0.889              2.981             28.448
 Vibrational            101.698             28.762             20.398
 Vibration     1          0.623              1.888              2.514
 Vibration     2          0.631              1.861              2.280
 Vibration     3          0.633              1.856              2.244
 Vibration     4          0.645              1.816              1.991
 Vibration     5          0.672              1.733              1.615
 Vibration     6          0.682              1.706              1.518
 Vibration     7          0.685              1.697              1.489
 Vibration     8          0.738              1.546              1.105
 Vibration     9          0.754              1.501              1.017
 Vibration    10          0.793              1.401              0.853
 Vibration    11          0.851              1.260              0.670
 Vibration    12          0.972              1.005              0.428

 Normal termination of Gaussian 09 at Mon Jan 27 18:08:57 2020.
