 Gaussian 09, Revision D.01,
 Gaussian 09:  ES64L-G09RevD.01 24-Apr-2013

 -----------------------------
 # b3lyp 6-31G(2df,p) opt Freq
 -----------------------------

 -----
 titel
 -----
 Symbolic Z-matrix:
 Charge =  0 Multiplicity = 1

 SCF Done:  E(RB3LYP) =  -423.169698599     A.U. after   14 cycles
 Optimization completed.
    -- Stationary point found.
 Normal termination of Gaussian 09 at Tue Jan 28 12:07:34 2020.

 ----------------------------------------------------------------------
 #N Geom=AllCheck Guess=TCheck SCRF=Check GenChk RB3LYP/6-31G(2df,p) Fr
 eq
 ----------------------------------------------------------------------

 Structure from the checkpoint file:  "/scratch/puck/g09_588b1819-ae8b-4a8f-8d25-f4391108e582/Gau-1495.chk"
 -----
 titel
 -----
 Charge =  0 Multiplicity = 1

                         Standard orientation:
 ---------------------------------------------------------------------
 Center     Atomic      Atomic             Coordinates (Angstroms)
 Number     Number       Type             X           Y           Z
 ---------------------------------------------------------------------
      1          6           0        3.378998   -1.360977    0.210763
      2          6           0        3.123718    0.095068   -0.217572
      3          6           0        1.731881    0.505161   -0.092875
      4          6           0        0.576993    0.844970    0.011006
      5          6           0       -0.807366    1.260229    0.134848
      6          8           0       -1.161134    2.390650   -0.129218
      7          6           0       -1.779516    0.183391    0.589456
      8          6           0       -2.007035   -0.887314   -0.495530
      9          8           0       -2.926505   -1.881181   -0.083902
     10          1           0        3.102018   -1.513086    1.257275
     11          1           0        2.794507   -2.054505   -0.399600
     12          1           0        4.437795   -1.608762    0.095136
     13          1           0        3.744629    0.775720    0.379091
     14          1           0        3.439979    0.240473   -1.258580
     15          1           0       -1.375682   -0.304418    1.486509
     16          1           0       -2.728709    0.662150    0.840608
     17          1           0       -2.447847   -0.420842   -1.382037
     18          1           0       -1.043102   -1.323462   -0.796120
     19          1           0       -2.528509   -2.372185    0.642110
 ---------------------------------------------------------------------

 SCF Done:  E(RB3LYP) =  -423.169698599     A.U. after    1 cycles

 The electronic state is 1-A.
 Alpha  occ. eigenvalues --  -19.14164 -19.13228 -10.28560 -10.23799 -10.22588
 Alpha  occ. eigenvalues --  -10.20629 -10.19782 -10.19264 -10.18729  -1.04222
 Alpha  occ. eigenvalues --   -1.02318  -0.81706  -0.78424  -0.74343  -0.66975
 Alpha  occ. eigenvalues --   -0.64707  -0.60318  -0.51277  -0.49829  -0.48365
 Alpha  occ. eigenvalues --   -0.47304  -0.45456  -0.43875  -0.41480  -0.41283
 Alpha  occ. eigenvalues --   -0.38771  -0.38286  -0.38147  -0.37464  -0.33141
 Alpha  occ. eigenvalues --   -0.28788  -0.27918  -0.27257  -0.25145
 Alpha virt. eigenvalues --   -0.05088   0.03465   0.06963   0.09278   0.09378
 Alpha virt. eigenvalues --    0.12441   0.13360   0.13681   0.14011   0.15287
 Alpha virt. eigenvalues --    0.15741   0.18206   0.19291   0.19763   0.21335

 Mulliken charges:
               1
     1  C   -0.369763
     2  C   -0.321194
     3  C    0.051086
     4  C    0.049487
     5  C    0.225618
     6  O   -0.282483
     7  C   -0.308064
     8  C   -0.062050
     9  O   -0.409571
    10  H    0.131791
    11  H    0.131796
    12  H    0.123879
    13  H    0.145765
    14  H    0.145755
    15  H    0.104729
    16  H    0.131463
    17  H    0.128804
    18  H    0.099937
    19  H    0.283014
 Sum of Mulliken charges =   0.00000

 Dipole moment (field-independent basis, Debye):
    X=              3.3774    Y=             -2.8608    Z=              1.0873  Tot=              4.5578
 Quadrupole moment (field-independent basis, Debye-Ang):
   XX=            -51.2710   YY=            -60.7224   ZZ=            -51.1894
   XY=             -0.0540   XZ=             -2.9361   YZ=             -1.5562

  Exact polarizability: 112.690  -9.950  78.704  -2.720  -2.347  59.145
 Approx polarizability: 160.448 -24.674 118.149  -3.487  -4.736  88.217

                      1                      2                      3
                      A                      A                      A
 Frequencies --     24.8754                34.8576                64.9828
 Red. masses --      2.4674                 3.2710                 2.2249
 Frc consts  --      0.0009                 0.0023                 0.0055
 IR Inten    --      1.1090                 0.4270                 2.8046

                      4                      5                      6
                      A                      A                      A
 Frequencies --    104.5568               117.0202               177.5719
 Red. masses --      3.3034                 3.5522                 3.0000
 Frc consts  --      0.0213                 0.0287                 0.0557
 IR Inten    --      3.1901                 0.2770                 2.8561

                      7                      8                      9
                      A                      A                      A
 Frequencies --    208.9018               244.5782               300.7649
 Red. masses --      3.1222                 1.5786                 1.1314
 Frc consts  --      0.0803                 0.0556                 0.0603
 IR Inten    --      2.9262                 1.3504                96.7014

                     10                     11                     12
                      A                      A                      A
 Frequencies --    360.9595               386.9206               405.9043
 Red. masses --      5.0690                 3.5787                 3.9233
 Frc consts  --      0.3891                 0.3157                 0.3809
 IR Inten    --      8.4912                 3.2583                 3.4859

                     13                     14                     15
                      A                      A                      A
 Frequencies --    522.9683               582.8732               667.0005
 Red. masses --      4.2030                 4.8015                 4.1460
 Frc consts  --      0.6773                 0.9611                 1.0868
 IR Inten    --      8.0077                 0.6316                14.9078

                     16                     17                     18
                      A                      A                      A
 Frequencies --    736.6148               779.4105               808.2510
 Red. masses --      3.9142                 1.2067                 1.3019
 Frc consts  --      1.2513                 0.4319                 0.5011
 IR Inten    --     19.9362                 2.6644                 8.3449

                     19                     20                     21
                      A                      A                      A
 Frequencies --    918.1430              1007.4870              1010.4193
 Red. masses --      2.7708                 2.2618                 3.6445
 Frc consts  --      1.3762                 1.3526                 2.1923
 IR Inten    --      2.5262                68.3017                23.1664

                     22                     23                     24
                      A                      A                      A
 Frequencies --   1061.5914              1075.0438              1089.8873
 Red. masses --      2.6058                 3.7795                 1.8361
 Frc consts  --      1.7302                 2.5736                 1.2850
 IR Inten    --     28.8226                97.3375                 3.5915

                     25                     26                     27
                      A                      A                      A
 Frequencies --   1098.8315              1144.8836              1249.5565
 Red. masses --      1.4818                 1.2939                 2.8573
 Frc consts  --      1.0541                 0.9992                 2.6286
 IR Inten    --      0.1156                 9.7096               160.4907

                     28                     29                     30
                      A                      A                      A
 Frequencies --   1273.6190              1283.6375              1309.8890
 Red. masses --      1.4274                 1.1510                 1.2037
 Frc consts  --      1.3642                 1.1174                 1.2168
 IR Inten    --     21.9102                 0.0421                 5.8281

                     31                     32                     33
                      A                      A                      A
 Frequencies --   1348.3005              1394.5734              1411.4783
 Red. masses --      1.5349                 1.2511                 1.2103
 Frc consts  --      1.6440                 1.4336                 1.4207
 IR Inten    --     44.7153                 1.5395                 1.3547

                     34                     35                     36
                      A                      A                      A
 Frequencies --   1417.3302              1462.6169              1468.2454
 Red. masses --      1.2245                 1.0743                 1.0963
 Frc consts  --      1.4493                 1.3541                 1.3925
 IR Inten    --     49.8069                 2.9433                 6.0880

                     37                     38                     39
                      A                      A                      A
 Frequencies --   1495.8124              1504.2671              1512.7321
 Red. masses --      1.0393                 1.0528                 1.0898
 Frc consts  --      1.3701                 1.4036                 1.4693
 IR Inten    --      5.6686                 1.4193                 1.1468

                     40                     41                     42
                      A                      A                      A
 Frequencies --   1759.5846              2326.7693              2998.8437
 Red. masses --     11.7902                11.9360                 1.0677
 Frc consts  --     21.5076                38.0728                 5.6570
 IR Inten    --    214.7695               140.7897                43.1445

                     43                     44                     45
                      A                      A                      A
 Frequencies --   3024.9263              3025.4053              3048.1998
 Red. masses --      1.0592                 1.0651                 1.0342
 Frc consts  --      5.7103                 5.7442                 5.6617
 IR Inten    --     11.5473                10.2299                23.5087

                     46                     47                     48
                      A                      A                      A
 Frequencies --   3053.2265              3084.0102              3119.1702
 Red. masses --      1.1002                 1.0932                 1.0993
 Frc consts  --      6.0430                 6.1262                 6.3016
 IR Inten    --      3.9250                18.7248                19.0844

                     49                     50                     51
                      A                      A                      A
 Frequencies --   3123.2630              3126.5113              3815.2513
 Red. masses --      1.1025                 1.1030                 1.0662
 Frc consts  --      6.3362                 6.3527                 9.1438
 IR Inten    --     23.4769                20.9006                17.0650

 - Thermochemistry -
 -------------------
 Temperature   298.150 Kelvin.  Pressure   1.00000 Atm.
 Atom     1 has atomic number  6 and mass  12.00000

 Molecular mass:   126.06808 amu.
 Principal axes and moments of inertia in atomic units:
                           1         2         3
     Eigenvalues --   880.601802325.848253075.54483
           X            0.99984  -0.01784  -0.00220
           Y            0.01782   0.99983  -0.00503
           Z            0.00229   0.00499   0.99998
 This molecule is an asymmetric top.
 Rotational symmetry number  1.
 Warning -- assumption of classical behavior for rotation
           may cause significant error
 Rotational temperatures (Kelvin)      0.09836     0.03724     0.02816
 Rotational constants (GHZ):           2.04944     0.77595     0.58680
 Zero-point vibrational energy     410154.7 (Joules/Mol)
                                   98.02934 (Kcal/Mol)
 Warning -- explicit consideration of  14 degrees of freedom as
           vibrations may cause significant error
 Vibrational temperatures:     35.79    50.15    93.50   150.43   168.37
          (Kelvin)            255.49   300.56   351.89   432.73   519.34
                              556.69   584.00   752.43   838.62   959.66
                             1059.82  1121.40  1162.89  1321.00  1449.55
                             1453.77  1527.39  1546.75  1568.10  1580.97
                             1647.23  1797.83  1832.45  1846.87  1884.64
                             1939.90  2006.48  2030.80  2039.22  2104.38
                             2112.47  2152.14  2164.30  2176.48  2531.65
                             3347.70  4314.66  4352.19  4352.88  4385.67
                             4392.91  4437.20  4487.78  4493.67  4498.35
                             5489.29

 Zero-point correction=                           0.156220 (Hartree/Particle)
 Thermal correction to Energy=                    0.167193
 Thermal correction to Enthalpy=                  0.168137
 Thermal correction to Gibbs Free Energy=         0.117367
 Sum of electronic and zero-point Energies=           -423.013479
 Sum of electronic and thermal Energies=              -423.002505
 Sum of electronic and thermal Enthalpies=            -423.001561
 Sum of electronic and thermal Free Energies=         -423.052331

                     E (Thermal)             CV                S
                      KCal/Mol        Cal/Mol-Kelvin    Cal/Mol-Kelvin
 Total                  104.915             36.811            106.854
 Electronic               0.000              0.000              0.000
 Translational            0.889              2.981             40.409
 Rotational               0.889              2.981             30.222
 Vibrational            103.138             30.849             36.223
 Vibration     1          0.593              1.985              6.201
 Vibration     2          0.594              1.983              5.532
 Vibration     3          0.597              1.971              4.300
 Vibration     4          0.605              1.946              3.368
 Vibration     5          0.608              1.935              3.149
 Vibration     6          0.628              1.870              2.354
 Vibration     7          0.642              1.827              2.053
 Vibration     8          0.660              1.772              1.769
 Vibration     9          0.693              1.672              1.413
 Vibration    10          0.735              1.553              1.118
 Vibration    11          0.755              1.498              1.012
 Vibration    12          0.771              1.457              0.941
 Vibration    13          0.878              1.199              0.603
 Vibration    14          0.940              1.068              0.480

 Normal termination of Gaussian 09 at Tue Jan 28 12:45:01 2020.
