 Gaussian 09, Revision D.01,
 Gaussian 09:  ES64L-G09RevD.01 24-Apr-2013

 -----------------------------
 # b3lyp 6-31G(2df,p) opt Freq
 -----------------------------

 -----
 titel
 -----
 Symbolic Z-matrix:
 Charge =  0 Multiplicity = 1

 SCF Done:  E(RB3LYP) =  -423.210198488     A.U. after   14 cycles
 Optimization completed.
    -- Stationary point found.
 Normal termination of Gaussian 09 at Tue Jan 28 03:58:30 2020.

 ----------------------------------------------------------------------
 #N Geom=AllCheck Guess=TCheck SCRF=Check GenChk RB3LYP/6-31G(2df,p) Fr
 eq
 ----------------------------------------------------------------------

 Structure from the checkpoint file:  "/scratch/puck/g09_7f5122b0-bea5-4c47-8700-18809c03537f/Gau-2990.chk"
 -----
 titel
 -----
 Charge =  0 Multiplicity = 1

                         Standard orientation:
 ---------------------------------------------------------------------
 Center     Atomic      Atomic             Coordinates (Angstroms)
 Number     Number       Type             X           Y           Z
 ---------------------------------------------------------------------
      1          6           0       -0.547726    2.158132    0.053809
      2          6           0       -0.687511    0.735218   -0.478481
      3          6           0       -2.066816    0.070348   -0.240401
      4          6           0       -1.726054   -1.378495   -0.016934
      5          6           0       -0.421525   -1.575173    0.160200
      6          6           0        0.358728   -0.271627    0.134792
      7          8           0        0.783098    0.078407    1.432685
      8          6           0        1.574347   -0.355904   -0.769910
      9          8           0        2.689617   -0.104090   -0.380796
     10          1           0        0.436105    2.577846   -0.179990
     11          1           0       -1.304696    2.810349   -0.393573
     12          1           0       -0.665392    2.176759    1.139605
     13          1           0       -0.524270    0.743650   -1.564400
     14          1           0       -2.575360    0.487258    0.639935
     15          1           0       -2.743089    0.224447   -1.088964
     16          1           0       -2.480778   -2.156343    0.033045
     17          1           0        0.058865   -2.517993    0.394927
     18          1           0        1.741218    0.222618    1.364126
     19          1           0        1.375013   -0.658126   -1.818280
 ---------------------------------------------------------------------

 SCF Done:  E(RB3LYP) =  -423.210198488     A.U. after    1 cycles

 The electronic state is 1-A.
 Alpha  occ. eigenvalues --  -19.15955 -19.13359 -10.27935 -10.24571 -10.19892
 Alpha  occ. eigenvalues --  -10.19472 -10.19122 -10.18760 -10.17508  -1.07053
 Alpha  occ. eigenvalues --   -1.01602  -0.84988  -0.75459  -0.72702  -0.66877
 Alpha  occ. eigenvalues --   -0.60620  -0.56793  -0.54658  -0.52486  -0.49484
 Alpha  occ. eigenvalues --   -0.46530  -0.45483  -0.42866  -0.41019  -0.40465
 Alpha  occ. eigenvalues --   -0.39027  -0.37000  -0.35578  -0.35080  -0.34249
 Alpha  occ. eigenvalues --   -0.33259  -0.27994  -0.27176  -0.25356
 Alpha virt. eigenvalues --   -0.03913   0.01266   0.08609   0.11498   0.11916
 Alpha virt. eigenvalues --    0.13868   0.14149   0.15377   0.15734   0.17205
 Alpha virt. eigenvalues --    0.17355   0.18144   0.19797   0.20693   0.21927

 Mulliken charges:
               1
     1  C   -0.400654
     2  C   -0.035585
     3  C   -0.276002
     4  C   -0.075386
     5  C   -0.107326
     6  C    0.264436
     7  O   -0.470210
     8  C    0.113422
     9  O   -0.278912
    10  H    0.116131
    11  H    0.110050
    12  H    0.138434
    13  H    0.076899
    14  H    0.118307
    15  H    0.108102
    16  H    0.103731
    17  H    0.105106
    18  H    0.290107
    19  H    0.099350
 Sum of Mulliken charges =   0.00000

 Dipole moment (field-independent basis, Debye):
    X=             -1.9364    Y=             -0.3640    Z=             -1.5215  Tot=              2.4894
 Quadrupole moment (field-independent basis, Debye-Ang):
   XX=            -56.3364   YY=            -51.0801   ZZ=            -54.6168
   XY=              0.0787   XZ=              0.8918   YZ=              0.0670

  Exact polarizability:  95.319   0.486  74.857   2.986   0.377  62.377
 Approx polarizability: 149.433  -0.071 101.539   8.489   1.396  98.729

                      1                      2                      3
                      A                      A                      A
 Frequencies --     66.3341                94.9241               220.9863
 Red. masses --      3.2550                 4.2963                 1.0952
 Frc consts  --      0.0084                 0.0228                 0.0315
 IR Inten    --      0.0839                 0.5950                 0.1303

                      4                      5                      6
                      A                      A                      A
 Frequencies --    228.7507               264.3844               284.8488
 Red. masses --      3.3129                 3.0220                 2.1790
 Frc consts  --      0.1021                 0.1245                 0.1042
 IR Inten    --      1.3760                 4.7400                 0.2146

                      7                      8                      9
                      A                      A                      A
 Frequencies --    323.5672               403.5714               448.5590
 Red. masses --      5.3711                 2.5434                 4.5946
 Frc consts  --      0.3313                 0.2441                 0.5447
 IR Inten    --     17.4348                 6.9719                 0.8634

                     10                     11                     12
                      A                      A                      A
 Frequencies --    458.7000               507.5801               539.3447
 Red. masses --      1.6973                 1.9511                 1.9990
 Frc consts  --      0.2104                 0.2962                 0.3426
 IR Inten    --     32.7704                20.9940                12.6673

                     13                     14                     15
                      A                      A                      A
 Frequencies --    668.0431               744.7365               777.3223
 Red. masses --      3.3647                 1.7858                 2.5742
 Frc consts  --      0.8847                 0.5836                 0.9164
 IR Inten    --     10.0267                18.0230                28.2186

                     16                     17                     18
                      A                      A                      A
 Frequencies --    820.9221               883.1069               928.4874
 Red. masses --      4.7620                 2.4150                 1.3361
 Frc consts  --      1.8908                 1.1097                 0.6786
 IR Inten    --     13.3276                10.3323                 2.1887

                     19                     20                     21
                      A                      A                      A
 Frequencies --    946.6575               977.9534               983.7749
 Red. masses --      2.6467                 1.3296                 1.6613
 Frc consts  --      1.3975                 0.7492                 0.9473
 IR Inten    --     11.7790                 0.0395                 5.8713

                     22                     23                     24
                      A                      A                      A
 Frequencies --   1013.6680              1028.5610              1102.2364
 Red. masses --      1.7767                 2.2994                 2.3959
 Frc consts  --      1.0756                 1.4332                 1.7150
 IR Inten    --      9.4832                28.3464                14.2785

                     25                     26                     27
                      A                      A                      A
 Frequencies --   1121.7044              1132.7103              1154.4867
 Red. masses --      1.9372                 1.8503                 1.5269
 Frc consts  --      1.4361                 1.3988                 1.1991
 IR Inten    --     12.3428                 8.6844                 2.8963

                     28                     29                     30
                      A                      A                      A
 Frequencies --   1178.5673              1219.1400              1301.7369
 Red. masses --      2.4624                 1.8927                 1.3888
 Frc consts  --      2.0152                 1.6574                 1.3865
 IR Inten    --     32.0663                 5.4465                 2.9150

                     31                     32                     33
                      A                      A                      A
 Frequencies --   1333.5911              1354.0578              1359.3375
 Red. masses --      1.2915                 1.6116                 1.4626
 Frc consts  --      1.3533                 1.7409                 1.5923
 IR Inten    --      7.4115                11.3246                24.1098

                     34                     35                     36
                      A                      A                      A
 Frequencies --   1389.2544              1408.8809              1430.6309
 Red. masses --      1.2389                 1.2434                 1.4220
 Frc consts  --      1.4088                 1.4542                 1.7148
 IR Inten    --     31.5342                 1.6558                47.9561

                     37                     38                     39
                      A                      A                      A
 Frequencies --   1483.4138              1492.4594              1497.9187
 Red. masses --      1.0922                 1.0469                 1.0484
 Frc consts  --      1.4160                 1.3739                 1.3859
 IR Inten    --      1.0694                 5.6097                 3.9154

                     40                     41                     42
                      A                      A                      A
 Frequencies --   1680.4475              1806.9903              2929.8428
 Red. masses --      6.5557                10.4179                 1.0862
 Frc consts  --     10.9073                20.0421                 5.4934
 IR Inten    --      2.5470               177.0145                61.3604

                     43                     44                     45
                      A                      A                      A
 Frequencies --   3008.9632              3017.8962              3039.2285
 Red. masses --      1.0826                 1.0650                 1.0368
 Frc consts  --      5.7752                 5.7150                 5.6426
 IR Inten    --     13.9703                30.8830                24.3281

                     46                     47                     48
                      A                      A                      A
 Frequencies --   3060.6121              3100.9369              3128.9471
 Red. masses --      1.0964                 1.1014                 1.1002
 Frc consts  --      6.0511                 6.2401                 6.3463
 IR Inten    --     27.5869                20.8441                15.6026

                     49                     50                     51
                      A                      A                      A
 Frequencies --   3183.0714              3210.3131              3672.8929
 Red. masses --      1.0851                 1.1036                 1.0646
 Frc consts  --      6.4776                 6.7016                 8.4618
 IR Inten    --      5.7183                17.1486                82.0372

 - Thermochemistry -
 -------------------
 Temperature   298.150 Kelvin.  Pressure   1.00000 Atm.
 Atom     1 has atomic number  6 and mass  12.00000

 Molecular mass:   126.06808 amu.
 Principal axes and moments of inertia in atomic units:
                           1         2         3
     Eigenvalues --   737.662261214.698731544.00376
           X            0.99988  -0.01320   0.00759
           Y            0.01319   0.99991   0.00206
           Z           -0.00761  -0.00196   0.99997
 This molecule is an asymmetric top.
 Rotational symmetry number  1.
 Warning -- assumption of classical behavior for rotation
           may cause significant error
 Rotational temperatures (Kelvin)      0.11742     0.07130     0.05610
 Rotational constants (GHZ):           2.44657     1.48575     1.16887
 Zero-point vibrational energy     415194.2 (Joules/Mol)
                                   99.23380 (Kcal/Mol)
 Warning -- explicit consideration of  12 degrees of freedom as
           vibrations may cause significant error
 Vibrational temperatures:     95.44   136.57   317.95   329.12   380.39
          (Kelvin)            409.83   465.54   580.65   645.38   659.97
                              730.29   776.00   961.16  1071.51  1118.39
                             1181.12  1270.59  1335.88  1362.03  1407.06
                             1415.43  1458.44  1479.87  1585.87  1613.88
                             1629.72  1661.05  1695.69  1754.07  1872.91
                             1918.74  1948.18  1955.78  1998.82  2027.06
                             2058.36  2134.30  2147.31  2155.17  2417.79
                             2599.85  4215.39  4329.22  4342.07  4372.77
                             4403.53  4461.55  4501.85  4579.72  4618.92
                             5284.47

 Zero-point correction=                           0.158139 (Hartree/Particle)
 Thermal correction to Energy=                    0.166984
 Thermal correction to Enthalpy=                  0.167928
 Thermal correction to Gibbs Free Energy=         0.124588
 Sum of electronic and zero-point Energies=           -423.052059
 Sum of electronic and thermal Energies=              -423.043215
 Sum of electronic and thermal Enthalpies=            -423.042270
 Sum of electronic and thermal Free Energies=         -423.085611

                     E (Thermal)             CV                S
                      KCal/Mol        Cal/Mol-Kelvin    Cal/Mol-Kelvin
 Total                  104.784             33.570             91.217
 Electronic               0.000              0.000              0.000
 Translational            0.889              2.981             40.409
 Rotational               0.889              2.981             28.716
 Vibrational            103.006             27.609             22.093
 Vibration     1          0.598              1.970              4.259
 Vibration     2          0.603              1.953              3.556
 Vibration     3          0.648              1.809              1.951
 Vibration     4          0.651              1.797              1.889
 Vibration     5          0.671              1.738              1.633
 Vibration     6          0.683              1.702              1.504
 Vibration     7          0.708              1.628              1.292
 Vibration     8          0.769              1.462              0.950
 Vibration     9          0.808              1.364              0.800
 Vibration    10          0.817              1.342              0.770
 Vibration    11          0.863              1.233              0.639
 Vibration    12          0.894              1.163              0.567

 Optimization completed.
    -- Stationary point found.
 Normal termination of Gaussian 09 at Tue Jan 28 04:40:14 2020.
