 Gaussian 09, Revision D.01,
 Gaussian 09:  ES64L-G09RevD.01 24-Apr-2013

 -----------------------------
 # b3lyp 6-31G(2df,p) opt Freq
 -----------------------------

 -----
 titel
 -----
 Symbolic Z-matrix:
 Charge =  0 Multiplicity = 1

 SCF Done:  E(RB3LYP) =  -423.171657767     A.U. after   13 cycles
 Optimization completed.
    -- Stationary point found.
 Normal termination of Gaussian 09 at Tue Jan 28 01:55:36 2020.

 ----------------------------------------------------------------------
 #N Geom=AllCheck Guess=TCheck SCRF=Check GenChk RB3LYP/6-31G(2df,p) Fr
 eq
 ----------------------------------------------------------------------

 Structure from the checkpoint file:  "/scratch/puck/g09_41c2d813-e1a0-424a-bedb-b88cbb4e0846/Gau-38106.chk"
 -----
 titel
 -----
 Charge =  0 Multiplicity = 1

                         Standard orientation:
 ---------------------------------------------------------------------
 Center     Atomic      Atomic             Coordinates (Angstroms)
 Number     Number       Type             X           Y           Z
 ---------------------------------------------------------------------
      1          6           0        3.177798   -0.342143   -0.357152
      2          6           0        1.726333   -0.128960   -0.079966
      3          6           0        0.716690   -0.998279   -0.134013
      4          6           0       -0.551196   -0.328570    0.205382
      5          6           0       -1.736211   -0.925283    0.931372
      6          6           0       -1.874125   -0.479698   -0.512477
      7          8           0       -2.568480    0.686925   -0.817592
      8          8           0       -0.226462    1.018493    0.523882
      9          6           0        1.175277    1.218857    0.320083
     10          1           0        3.526487    0.303857   -1.173058
     11          1           0        3.790997   -0.096660    0.519336
     12          1           0        3.383185   -1.378841   -0.635031
     13          1           0        0.778825   -2.046815   -0.395428
     14          1           0       -1.723795   -1.986551    1.159411
     15          1           0       -2.203202   -0.291628    1.678061
     16          1           0       -1.973253   -1.241676   -1.281432
     17          1           0       -1.990124    1.416520   -0.552433
     18          1           0        1.337527    1.981655   -0.458137
     19          1           0        1.625497    1.601255    1.249027
 ---------------------------------------------------------------------

 SCF Done:  E(RB3LYP) =  -423.171657767     A.U. after    1 cycles

 The electronic state is 1-A.
 Alpha  occ. eigenvalues --  -19.15211 -19.12863 -10.24055 -10.23823 -10.22752
 Alpha  occ. eigenvalues --  -10.19696 -10.19406 -10.18705 -10.17705  -1.05325
 Alpha  occ. eigenvalues --   -1.01192  -0.83682  -0.81165  -0.71396  -0.69078
 Alpha  occ. eigenvalues --   -0.60019  -0.56839  -0.55882  -0.51745  -0.48549
 Alpha  occ. eigenvalues --   -0.47036  -0.45637  -0.42447  -0.41762  -0.40893
 Alpha  occ. eigenvalues --   -0.38820  -0.38121  -0.37571  -0.34818  -0.33552
 Alpha  occ. eigenvalues --   -0.32614  -0.27576  -0.24284  -0.21143
 Alpha virt. eigenvalues --    0.01409   0.07762   0.09483   0.11561   0.12310
 Alpha virt. eigenvalues --    0.13830   0.14277   0.15955   0.16136   0.16801
 Alpha virt. eigenvalues --    0.17708   0.18828   0.19584   0.21870   0.22505

 Mulliken charges:
               1
     1  C   -0.492743
     2  C    0.288315
     3  C   -0.296509
     4  C    0.395402
     5  C   -0.383923
     6  C    0.073556
     7  O   -0.434207
     8  O   -0.326428
     9  C   -0.167689
    10  H    0.131249
    11  H    0.131051
    12  H    0.131320
    13  H    0.107506
    14  H    0.111411
    15  H    0.126000
    16  H    0.095762
    17  H    0.292804
    18  H    0.107158
    19  H    0.109964
 Sum of Mulliken charges =   0.00000

 Dipole moment (field-independent basis, Debye):
    X=              3.0072    Y=             -0.7558    Z=              0.1582  Tot=              3.1048
 Quadrupole moment (field-independent basis, Debye-Ang):
   XX=            -56.0209   YY=            -49.2971   ZZ=            -54.4644
   XY=              2.5381   XZ=             -2.5310   YZ=              0.6307

  Exact polarizability: 104.150  10.233  77.540  -1.812   0.443  61.007
 Approx polarizability: 139.207  19.525 118.863   0.658   0.983  92.168

                      1                      2                      3
                      A                      A                      A
 Frequencies --     84.0700               133.3087               170.5984
 Red. masses --      4.2115                 2.5213                 1.0777
 Frc consts  --      0.0175                 0.0264                 0.0185
 IR Inten    --      0.6076                 0.4842                 0.1626

                      4                      5                      6
                      A                      A                      A
 Frequencies --    199.3349               248.7832               292.1744
 Red. masses --      3.8414                 3.5463                 3.2491
 Frc consts  --      0.0899                 0.1293                 0.1634
 IR Inten    --      3.7941                 4.4203                 1.9383

                      7                      8                      9
                      A                      A                      A
 Frequencies --    359.5456               414.7698               427.0199
 Red. masses --      2.1960                 1.4956                 2.0367
 Frc consts  --      0.1673                 0.1516                 0.2188
 IR Inten    --      8.9091                43.4175                14.6884

                     10                     11                     12
                      A                      A                      A
 Frequencies --    463.8197               516.8784               623.2403
 Red. masses --      1.9343                 3.4357                 4.5301
 Frc consts  --      0.2452                 0.5408                 1.0367
 IR Inten    --      0.8036                 2.1418                 6.8956

                     13                     14                     15
                      A                      A                      A
 Frequencies --    625.3802               800.7611               823.0860
 Red. masses --      3.5239                 2.3440                 1.7168
 Frc consts  --      0.8120                 0.8855                 0.6853
 IR Inten    --      7.2524                 4.9098                 5.0914

                     16                     17                     18
                      A                      A                      A
 Frequencies --    849.5453               891.8815               904.9561
 Red. masses --      3.0155                 1.6635                 3.0556
 Frc consts  --      1.2823                 0.7796                 1.4744
 IR Inten    --     29.8702                12.2299                10.5601

                     19                     20                     21
                      A                      A                      A
 Frequencies --    918.1596               995.8404              1001.9278
 Red. masses --      3.0909                 2.2749                 1.3442
 Frc consts  --      1.5352                 1.3292                 0.7950
 IR Inten    --     24.3503                20.2131                 4.0920

                     22                     23                     24
                      A                      A                      A
 Frequencies --   1009.9814              1036.7867              1072.9881
 Red. masses --      1.6302                 1.5125                 2.4104
 Frc consts  --      0.9798                 0.9579                 1.6350
 IR Inten    --     17.4980                 5.4778                47.8045

                     25                     26                     27
                      A                      A                      A
 Frequencies --   1092.1052              1093.7764              1131.5473
 Red. masses --      1.8455                 1.8701                 2.2184
 Frc consts  --      1.2969                 1.3182                 1.6735
 IR Inten    --     12.4887                12.9762                62.3686

                     28                     29                     30
                      A                      A                      A
 Frequencies --   1180.8542              1199.2123              1226.7382
 Red. masses --      2.4528                 1.0869                 1.9002
 Frc consts  --      2.0151                 0.9209                 1.6848
 IR Inten    --     55.2737                 1.0856                15.8569

                     31                     32                     33
                      A                      A                      A
 Frequencies --   1295.1884              1323.4041              1382.2049
 Red. masses --      2.3171                 1.7447                 1.6302
 Frc consts  --      2.2901                 1.8004                 1.8350
 IR Inten    --     11.7005                 7.8038                15.9635

                     34                     35                     36
                      A                      A                      A
 Frequencies --   1385.2197              1416.1096              1421.3399
 Red. masses --      1.8247                 1.2691                 1.1709
 Frc consts  --      2.0629                 1.4994                 1.3936
 IR Inten    --     27.9194                 4.0987                42.3948

                     37                     38                     39
                      A                      A                      A
 Frequencies --   1474.0304              1478.5053              1490.0918
 Red. masses --      1.8668                 1.0440                 1.0834
 Frc consts  --      2.3898                 1.3447                 1.4174
 IR Inten    --     44.2055                 6.2328                 7.9634

                     40                     41                     42
                      A                      A                      A
 Frequencies --   1520.7391              1722.1229              2973.2550
 Red. masses --      1.0865                 7.2741                 1.0582
 Frc consts  --      1.4804                12.7104                 5.5118
 IR Inten    --      2.3920                 1.7464                85.4310

                     43                     44                     45
                      A                      A                      A
 Frequencies --   2995.6680              3018.2029              3062.8252
 Red. masses --      1.1035                 1.0387                 1.0986
 Frc consts  --      5.8347                 5.5751                 6.0722
 IR Inten    --     42.9314                44.9778                18.5367

                     46                     47                     48
                      A                      A                      A
 Frequencies --   3116.9485              3123.2352              3137.7395
 Red. masses --      1.0984                 1.0539                 1.0895
 Frc consts  --      6.2873                 6.0572                 6.3200
 IR Inten    --     15.1883                 8.4415                24.1238

                     49                     50                     51
                      A                      A                      A
 Frequencies --   3216.9285              3221.8548              3728.9939
 Red. masses --      1.0964                 1.1162                 1.0651
 Frc consts  --      6.6850                 6.8267                 8.7263
 IR Inten    --      3.5062                 6.5062                46.0754

 - Thermochemistry -
 -------------------
 Temperature   298.150 Kelvin.  Pressure   1.00000 Atm.
 Atom     1 has atomic number  6 and mass  12.00000

 Molecular mass:   126.06808 amu.
 Principal axes and moments of inertia in atomic units:
                           1         2         3
     Eigenvalues --   473.233571676.548151847.74272
           X            0.99986   0.00982  -0.01350
           Y           -0.00973   0.99993   0.00704
           Z            0.01357  -0.00691   0.99988
 This molecule is an asymmetric top.
 Rotational symmetry number  1.
 Warning -- assumption of classical behavior for rotation
           may cause significant error
 Rotational temperatures (Kelvin)      0.18303     0.05166     0.04688
 Rotational constants (GHZ):           3.81364     1.07646     0.97673
 Zero-point vibrational energy     414468.2 (Joules/Mol)
                                   99.06029 (Kcal/Mol)
 Warning -- explicit consideration of  11 degrees of freedom as
           vibrations may cause significant error
 Vibrational temperatures:    120.96   191.80   245.45   286.80   357.94
          (Kelvin)            420.37   517.31   596.76   614.39   667.33
                              743.67   896.70   899.78  1152.12  1184.24
                             1222.30  1283.22  1302.03  1321.03  1432.79
                             1441.55  1453.14  1491.70  1543.79  1571.29
                             1573.70  1628.04  1698.98  1725.40  1765.00
                             1863.48  1904.08  1988.68  1993.02  2037.46
                             2044.99  2120.80  2127.24  2143.91  2188.00
                             2477.75  4277.85  4310.09  4342.52  4406.72
                             4484.59  4493.63  4514.50  4628.44  4635.52
                             5365.18

 Zero-point correction=                           0.157863 (Hartree/Particle)
 Thermal correction to Energy=                    0.166651
 Thermal correction to Enthalpy=                  0.167595
 Thermal correction to Gibbs Free Energy=         0.124536
 Sum of electronic and zero-point Energies=           -423.013795
 Sum of electronic and thermal Energies=              -423.005007
 Sum of electronic and thermal Enthalpies=            -423.004063
 Sum of electronic and thermal Free Energies=         -423.047122

                     E (Thermal)             CV                S
                      KCal/Mol        Cal/Mol-Kelvin    Cal/Mol-Kelvin
 Total                  104.575             33.498             90.626
 Electronic               0.000              0.000              0.000
 Translational            0.889              2.981             40.409
 Rotational               0.889              2.981             28.774
 Vibrational            102.798             27.536             21.444
 Vibration     1          0.601              1.960              3.794
 Vibration     2          0.613              1.920              2.898
 Vibration     3          0.626              1.879              2.429
 Vibration     4          0.637              1.841              2.139
 Vibration     5          0.662              1.765              1.739
 Vibration     6          0.688              1.688              1.461
 Vibration     7          0.734              1.556              1.124
 Vibration     8          0.778              1.438              0.910
 Vibration     9          0.789              1.411              0.868
 Vibration    10          0.821              1.330              0.755
 Vibration    11          0.872              1.213              0.617

 Normal termination of Gaussian 09 at Tue Jan 28 02:41:36 2020.
