 Gaussian 09, Revision D.01,
 Gaussian 09:  ES64L-G09RevD.01 24-Apr-2013

 -----------------------------
 # b3lyp 6-31G(2df,p) opt Freq
 -----------------------------

 -----
 titel
 -----
 Symbolic Z-matrix:
 Charge =  0 Multiplicity = 1

 SCF Done:  E(RB3LYP) =  -423.172667850     A.U. after   13 cycles
 Optimization completed.
    -- Stationary point found.
 Normal termination of Gaussian 09 at Mon Jan 27 12:23:02 2020.

 ----------------------------------------------------------------------
 #N Geom=AllCheck Guess=TCheck SCRF=Check GenChk RB3LYP/6-31G(2df,p) Fr
 eq
 ----------------------------------------------------------------------

 Structure from the checkpoint file:  "/scratch/puck/g09_10eefcde-f95d-46cd-9fe7-24d54bc0ac46/Gau-165669.chk"
 -----
 titel
 -----
 Charge =  0 Multiplicity = 1

                         Standard orientation:
 ---------------------------------------------------------------------
 Center     Atomic      Atomic             Coordinates (Angstroms)
 Number     Number       Type             X           Y           Z
 ---------------------------------------------------------------------
      1          6           0       -2.320277    0.068045    0.264727
      2          6           0       -1.308103    1.232196    0.329793
      3          6           0        0.000000    0.547690    0.000000
      4          6           0        1.308104    1.232196   -0.329793
      5          6           0        2.320278    0.068045   -0.264726
      6          8           0        1.771326   -0.922295    0.611128
      7          6           0        0.376286   -0.769325    0.653895
      8          6           0       -0.376287   -0.769325   -0.653894
      9          8           0       -1.771327   -0.922294   -0.611129
     10          1           0       -2.474682   -0.362305    1.263854
     11          1           0       -3.297094    0.360125   -0.130706
     12          1           0       -1.528958    1.992409   -0.428425
     13          1           0       -1.319694    1.721780    1.308890
     14          1           0        1.319695    1.721779   -1.308890
     15          1           0        1.528958    1.992409    0.428424
     16          1           0        2.474685   -0.362304   -1.263853
     17          1           0        3.297094    0.360126    0.130709
     18          1           0       -0.059714   -1.162219    1.566515
     19          1           0        0.059714   -1.162221   -1.566513
 ---------------------------------------------------------------------

 SCF Done:  E(RB3LYP) =  -423.172667850     A.U. after    1 cycles

 The electronic state is 1-A.
 Alpha  occ. eigenvalues --  -19.14184 -19.14184 -10.23135 -10.23135 -10.22796
 Alpha  occ. eigenvalues --  -10.22771 -10.19463 -10.19331 -10.19329  -1.04999
 Alpha  occ. eigenvalues --   -1.03252  -0.84261  -0.76456  -0.75312  -0.65001
 Alpha  occ. eigenvalues --   -0.63246  -0.56456  -0.56405  -0.50355  -0.48900
 Alpha  occ. eigenvalues --   -0.46603  -0.45557  -0.44664  -0.42627  -0.40109
 Alpha  occ. eigenvalues --   -0.39597  -0.39195  -0.35336  -0.33577  -0.33089
 Alpha  occ. eigenvalues --   -0.32323  -0.30055  -0.24537  -0.21347
 Alpha virt. eigenvalues --    0.08889   0.09606   0.10034   0.12081   0.12237
 Alpha virt. eigenvalues --    0.13057   0.13178   0.14521   0.16960   0.16975
 Alpha virt. eigenvalues --    0.18187   0.18888   0.19526   0.21460   0.22153

 Mulliken charges:
               1
     1  C   -0.084175
     2  C   -0.339907
     3  C    0.282542
     4  C   -0.339907
     5  C   -0.084175
     6  O   -0.264055
     7  C    0.013224
     8  C    0.013224
     9  O   -0.264055
    10  H    0.102831
    11  H    0.112006
    12  H    0.109160
    13  H    0.106620
    14  H    0.106620
    15  H    0.109160
    16  H    0.102831
    17  H    0.112006
    18  H    0.103025
    19  H    0.103025
 Sum of Mulliken charges =   0.00000

 Dipole moment (field-independent basis, Debye):
    X=              0.0000    Y=              2.2943    Z=              0.0000  Tot=              2.2943
 Quadrupole moment (field-independent basis, Debye-Ang):
   XX=            -52.8237   YY=            -55.0611   ZZ=            -52.1503
   XY=              0.0000   XZ=             -4.4439   YZ=              0.0000

  Exact polarizability:  87.299   0.000  69.061  -3.245   0.000  64.760
 Approx polarizability: 112.811   0.000 105.273  -0.368   0.000 102.254

                      1                      2                      3
                      A                      A                      A
 Frequencies --    173.6281               186.3412               209.5944
 Red. masses --      2.2133                 2.5741                 2.1714
 Frc consts  --      0.0393                 0.0527                 0.0562
 IR Inten    --      1.3404                 3.4047                 0.0931

                      4                      5                      6
                      A                      A                      A
 Frequencies --    261.1087               335.5569               364.8245
 Red. masses --      3.7624                 2.1217                 4.9608
 Frc consts  --      0.1511                 0.1408                 0.3890
 IR Inten    --      5.6158                 1.3253                 0.4234

                      7                      8                      9
                      A                      A                      A
 Frequencies --    472.5519               637.4194               676.4697
 Red. masses --      4.5711                 4.0461                 2.9369
 Frc consts  --      0.6014                 0.9686                 0.7918
 IR Inten    --      0.0446                 5.2793                 1.4285

                     10                     11                     12
                      A                      A                      A
 Frequencies --    718.9325               725.8558               866.8642
 Red. masses --      2.4439                 3.6665                 1.8452
 Frc consts  --      0.7442                 1.1382                 0.8169
 IR Inten    --      0.4541                21.5935                 1.7478

                     13                     14                     15
                      A                      A                      A
 Frequencies --    874.7584               900.4492               935.9354
 Red. masses --      1.9860                 2.7647                 2.6147
 Frc consts  --      0.8954                 1.3207                 1.3495
 IR Inten    --      9.0746                 5.1510                 7.8840

                     16                     17                     18
                      A                      A                      A
 Frequencies --    958.9952               962.8382               973.3345
 Red. masses --      2.9702                 2.2898                 2.0828
 Frc consts  --      1.6094                 1.2507                 1.1626
 IR Inten    --     20.2070                 3.9240                 9.2986

                     19                     20                     21
                      A                      A                      A
 Frequencies --    990.6330              1020.5619              1042.1767
 Red. masses --      1.8305                 1.8978                 3.5201
 Frc consts  --      1.0584                 1.1646                 2.2526
 IR Inten    --     28.2866                21.8100                 0.0148

                     22                     23                     24
                      A                      A                      A
 Frequencies --   1059.8061              1116.8555              1138.9006
 Red. masses --      1.4478                 4.2230                 2.3549
 Frc consts  --      0.9581                 3.1036                 1.7997
 IR Inten    --      0.0205               139.9682                42.6520

                     25                     26                     27
                      A                      A                      A
 Frequencies --   1162.0849              1202.7777              1205.5400
 Red. masses --      3.2116                 1.3628                 1.6280
 Frc consts  --      2.5553                 1.1616                 1.3940
 IR Inten    --      7.6899                 0.2910                15.9264

                     28                     29                     30
                      A                      A                      A
 Frequencies --   1223.1635              1232.6130              1259.3504
 Red. masses --      1.6176                 1.2404                 1.3580
 Frc consts  --      1.4259                 1.1104                 1.2690
 IR Inten    --      0.3330                 3.3342                 4.4268

                     31                     32                     33
                      A                      A                      A
 Frequencies --   1264.4573              1283.4136              1310.4558
 Red. masses --      1.4580                 1.2354                 1.3715
 Frc consts  --      1.3734                 1.1989                 1.3876
 IR Inten    --      0.8512                 4.9046                 2.8349

                     34                     35                     36
                      A                      A                      A
 Frequencies --   1342.7006              1388.1763              1394.9833
 Red. masses --      1.9356                 1.4234                 1.4837
 Frc consts  --      2.0560                 1.6160                 1.7011
 IR Inten    --      0.1624                 1.5116                 4.7853

                     37                     38                     39
                      A                      A                      A
 Frequencies --   1424.9639              1493.1119              1499.8117
 Red. masses --      2.2343                 1.1041                 1.1027
 Frc consts  --      2.6730                 1.4503                 1.4614
 IR Inten    --      3.7020                 0.3316                 2.7938

                     40                     41                     42
                      A                      A                      A
 Frequencies --   1526.7532              1527.3519              3004.8959
 Red. masses --      1.0919                 1.0898                 1.0703
 Frc consts  --      1.4996                 1.4978                 5.6938
 IR Inten    --      0.2799                 0.7691                92.5638

                     43                     44                     45
                      A                      A                      A
 Frequencies --   3004.9999              3033.8152              3036.7809
 Red. masses --      1.0705                 1.0607                 1.0612
 Frc consts  --      5.6954                 5.7519                 5.7659
 IR Inten    --      5.9976                 3.1594                56.8096

                     46                     47                     48
                      A                      A                      A
 Frequencies --   3077.0896              3077.1007              3089.1577
 Red. masses --      1.0960                 1.0966                 1.1013
 Frc consts  --      6.1143                 6.1178                 6.1919
 IR Inten    --     49.7295                 5.0545                 6.7422

                     49                     50                     51
                      A                      A                      A
 Frequencies --   3089.4107              3165.2135              3166.0082
 Red. masses --      1.1015                 1.0955                 1.0875
 Frc consts  --      6.1943                 6.4662                 6.4223
 IR Inten    --     81.0307                 6.8316                25.0821

 - Thermochemistry -
 -------------------
 Temperature   298.150 Kelvin.  Pressure   1.00000 Atm.
 Atom     1 has atomic number  6 and mass  12.00000

 Molecular mass:   126.06808 amu.
 Principal axes and moments of inertia in atomic units:
                           1         2         3
     Eigenvalues --   488.893351267.926901483.17200
           X            0.99962   0.00000  -0.02750
           Y            0.00000   1.00000   0.00000
           Z            0.02750   0.00000   0.99962
 This molecule is an asymmetric top.
 Rotational symmetry number  1.
 Warning -- assumption of classical behavior for rotation
           may cause significant error
 Rotational temperatures (Kelvin)      0.17716     0.06831     0.05840
 Rotational constants (GHZ):           3.69148     1.42338     1.21681
 Zero-point vibrational energy     425216.1 (Joules/Mol)
                                  101.62908 (Kcal/Mol)
 Warning -- explicit consideration of   7 degrees of freedom as
           vibrations may cause significant error
 Vibrational temperatures:    249.81   268.10   301.56   375.68   482.79
          (Kelvin)            524.90   679.90   917.10   973.29  1034.38
                             1044.34  1247.22  1258.58  1295.54  1346.60
                             1379.78  1385.31  1400.41  1425.30  1468.36
                             1499.46  1524.82  1606.90  1638.62  1671.98
                             1730.53  1734.50  1759.86  1773.45  1811.92
                             1819.27  1846.54  1885.45  1931.84  1997.27
                             2007.07  2050.20  2148.25  2157.89  2196.65
                             2197.52  4323.37  4323.52  4364.98  4369.24
                             4427.24  4427.26  4444.60  4444.97  4554.03
                             4555.17

 Zero-point correction=                           0.161956 (Hartree/Particle)
 Thermal correction to Energy=                    0.169137
 Thermal correction to Enthalpy=                  0.170081
 Thermal correction to Gibbs Free Energy=         0.130541
 Sum of electronic and zero-point Energies=           -423.010712
 Sum of electronic and thermal Energies=              -423.003531
 Sum of electronic and thermal Enthalpies=            -423.002586
 Sum of electronic and thermal Free Energies=         -423.042126

                     E (Thermal)             CV                S
                      KCal/Mol        Cal/Mol-Kelvin    Cal/Mol-Kelvin
 Total                  106.135             28.698             83.219
 Electronic               0.000              0.000              0.000
 Translational            0.889              2.981             40.409
 Rotational               0.889              2.981             28.310
 Vibrational            104.358             22.736             14.501
 Vibration     1          0.627              1.875              2.396
 Vibration     2          0.632              1.859              2.264
 Vibration     3          0.642              1.826              2.047
 Vibration     4          0.669              1.744              1.654
 Vibration     5          0.717              1.604              1.233
 Vibration     6          0.738              1.545              1.101
 Vibration     7          0.829              1.311              0.730

 Optimization completed.
    -- Stationary point found.
 Normal termination of Gaussian 09 at Mon Jan 27 13:12:15 2020.
