 Gaussian 09, Revision D.01,
 Gaussian 09:  ES64L-G09RevD.01 24-Apr-2013

 -----------------------------
 # b3lyp 6-31G(2df,p) opt Freq
 -----------------------------

 -----
 titel
 -----
 Symbolic Z-matrix:
 Charge =  0 Multiplicity = 1

 SCF Done:  E(RB3LYP) =  -423.167764527     A.U. after   13 cycles
 Optimization completed.
    -- Stationary point found.
 Normal termination of Gaussian 09 at Mon Jan 27 11:18:35 2020.

 ----------------------------------------------------------------------
 #N Geom=AllCheck Guess=TCheck SCRF=Check GenChk RB3LYP/6-31G(2df,p) Fr
 eq
 ----------------------------------------------------------------------

 Structure from the checkpoint file:  "/scratch/puck/g09_784371d7-6b80-4039-b16b-77ccb1bb1bfe/Gau-42119.chk"
 -----
 titel
 -----
 Charge =  0 Multiplicity = 1

                         Standard orientation:
 ---------------------------------------------------------------------
 Center     Atomic      Atomic             Coordinates (Angstroms)
 Number     Number       Type             X           Y           Z
 ---------------------------------------------------------------------
      1          6           0       -1.210047   -0.000001    1.173800
      2          6           0       -1.146534   -1.030383    0.025404
      3          6           0        0.207594   -1.663069   -0.273284
      4          6           0        1.408196   -0.738388   -0.321429
      5          8           0        1.754018    0.000000    0.859637
      6          6           0        1.408195    0.738390   -0.321428
      7          6           0        0.207592    1.663069   -0.273284
      8          6           0       -1.146535    1.030382    0.025405
      9          8           0       -1.453814    0.000000   -0.947526
     10          1           0       -2.179637   -0.000002    1.674787
     11          1           0       -0.401922   -0.000001    1.901178
     12          1           0       -1.919140   -1.807441    0.033900
     13          1           0        0.411583   -2.452883    0.463242
     14          1           0        0.135645   -2.160283   -1.249203
     15          1           0        2.276499   -1.208584   -0.789919
     16          1           0        2.276498    1.208587   -0.789916
     17          1           0        0.411581    2.452886    0.463240
     18          1           0        0.135642    2.160280   -1.249204
     19          1           0       -1.919141    1.807440    0.033903
 ---------------------------------------------------------------------

 SCF Done:  E(RB3LYP) =  -423.167764527     A.U. after    1 cycles

 The electronic state is 1-A.
 Alpha  occ. eigenvalues --  -19.14567 -19.12684 -10.23786 -10.23755 -10.23391
 Alpha  occ. eigenvalues --  -10.23390 -10.18892 -10.18891 -10.17923  -1.06635
 Alpha  occ. eigenvalues --   -1.03443  -0.77803  -0.77053  -0.72288  -0.66007
 Alpha  occ. eigenvalues --   -0.63651  -0.54320  -0.53939  -0.52692  -0.48487
 Alpha  occ. eigenvalues --   -0.46836  -0.45552  -0.42843  -0.42208  -0.41736
 Alpha  occ. eigenvalues --   -0.39461  -0.36307  -0.36239  -0.34371  -0.30593
 Alpha  occ. eigenvalues --   -0.30459  -0.29531  -0.26346  -0.24280
 Alpha virt. eigenvalues --    0.08259   0.09522   0.10087   0.11721   0.12247
 Alpha virt. eigenvalues --    0.13622   0.14699   0.14707   0.15651   0.16354
 Alpha virt. eigenvalues --    0.17554   0.18095   0.19529   0.19631   0.22407

 Mulliken charges:
               1
     1  C   -0.293080
     2  C    0.107397
     3  C   -0.246324
     4  C    0.060610
     5  O   -0.259486
     6  C    0.060611
     7  C   -0.246324
     8  C    0.107397
     9  O   -0.301970
    10  H    0.103531
    11  H    0.132548
    12  H    0.074998
    13  H    0.110119
    14  H    0.114055
    15  H    0.088373
    16  H    0.088373
    17  H    0.110119
    18  H    0.114055
    19  H    0.074998
 Sum of Mulliken charges =   0.00000

 Dipole moment (field-independent basis, Debye):
    X=             -0.0545    Y=              0.0000    Z=             -0.0790  Tot=              0.0960
 Quadrupole moment (field-independent basis, Debye-Ang):
   XX=            -55.1364   YY=            -47.8330   ZZ=            -55.7861
   XY=              0.0000   XZ=             -5.9909   YZ=              0.0000

  Exact polarizability:  74.321   0.000  83.252  -4.558   0.000  63.239
 Approx polarizability: 100.549   0.000 117.973   0.244   0.000 103.980

                      1                      2                      3
                      A                      A                      A
 Frequencies --    168.8084               268.7562               284.1542
 Red. masses --      2.8472                 3.5495                 7.6995
 Frc consts  --      0.0478                 0.1511                 0.3663
 IR Inten    --      6.3914                 4.1423                 0.2579

                      4                      5                      6
                      A                      A                      A
 Frequencies --    357.2547               364.7403               403.1851
 Red. masses --      1.7590                 2.3429                 5.5021
 Frc consts  --      0.1323                 0.1836                 0.5270
 IR Inten    --      0.3382                 1.2458                 0.8833

                      7                      8                      9
                      A                      A                      A
 Frequencies --    413.5838               615.1161               714.4567
 Red. masses --      2.4965                 3.6540                 4.6714
 Frc consts  --      0.2516                 0.8146                 1.4049
 IR Inten    --     16.2451                 0.4470                10.1596

                     10                     11                     12
                      A                      A                      A
 Frequencies --    733.8513               806.4274               820.3892
 Red. masses --      3.1049                 2.8089                 2.0398
 Frc consts  --      0.9852                 1.0763                 0.8089
 IR Inten    --      2.8106                 0.8717                15.7324

                     13                     14                     15
                      A                      A                      A
 Frequencies --    843.9329               853.8573               903.4013
 Red. masses --      3.7404                 2.4451                 5.6683
 Frc consts  --      1.5696                 1.0503                 2.7256
 IR Inten    --      0.1626                18.1694                 1.3881

                     16                     17                     18
                      A                      A                      A
 Frequencies --    903.8518               913.8022               991.9461
 Red. masses --      2.4559                 2.9772                 2.3388
 Frc consts  --      1.1821                 1.4647                 1.3559
 IR Inten    --     11.7875                 0.4139                29.4338

                     19                     20                     21
                      A                      A                      A
 Frequencies --   1012.1455              1022.6558              1069.9629
 Red. masses --      3.4059                 2.2005                 1.8036
 Frc consts  --      2.0557                 1.3559                 1.2165
 IR Inten    --     52.6297                33.3077                 9.9836

                     22                     23                     24
                      A                      A                      A
 Frequencies --   1075.0134              1104.5351              1140.8079
 Red. masses --      1.8043                 1.5123                 1.1829
 Frc consts  --      1.2286                 1.0870                 0.9070
 IR Inten    --      6.4111                 4.3099                 0.1621

                     25                     26                     27
                      A                      A                      A
 Frequencies --   1143.7108              1171.8085              1225.8804
 Red. masses --      1.9849                 1.2624                 1.1465
 Frc consts  --      1.5297                 1.0213                 1.0151
 IR Inten    --      2.2021                 3.4791                 0.8358

                     28                     29                     30
                      A                      A                      A
 Frequencies --   1247.2982              1273.3345              1289.1555
 Red. masses --      1.2274                 1.5158                 1.2805
 Frc consts  --      1.1251                 1.4480                 1.2538
 IR Inten    --      3.1442                 6.7929                 0.1578

                     31                     32                     33
                      A                      A                      A
 Frequencies --   1307.1375              1338.1547              1354.4277
 Red. masses --      1.2823                 1.5247                 1.7362
 Frc consts  --      1.2908                 1.6086                 1.8765
 IR Inten    --      9.1278                 1.8412                14.5153

                     34                     35                     36
                      A                      A                      A
 Frequencies --   1361.7354              1393.2835              1412.4045
 Red. masses --      2.0321                 1.4991                 1.4109
 Frc consts  --      2.2202                 1.7146                 1.6583
 IR Inten    --      6.4150                 0.0081                 0.5651

                     37                     38                     39
                      A                      A                      A
 Frequencies --   1419.3180              1456.9747              1457.1461
 Red. masses --      1.3206                 1.0924                 1.1393
 Frc consts  --      1.5674                 1.3663                 1.4252
 IR Inten    --     15.4372                 8.0190                 1.1307

                     40                     41                     42
                      A                      A                      A
 Frequencies --   1489.2836              1497.2525              3013.6326
 Red. masses --      1.6733                 1.4761                 1.0621
 Frc consts  --      2.1867                 1.9496                 5.6831
 IR Inten    --     10.9964                 6.9836                17.0084

                     43                     44                     45
                      A                      A                      A
 Frequencies --   3014.0130              3039.5027              3042.4976
 Red. masses --      1.0625                 1.0840                 1.0869
 Frc consts  --      5.6868                 5.9006                 5.9279
 IR Inten    --      3.6771               102.8186                35.8048

                     46                     47                     48
                      A                      A                      A
 Frequencies --   3055.3514              3056.3447              3068.2478
 Red. masses --      1.0984                 1.0997                 1.0848
 Frc consts  --      6.0416                 6.0523                 6.0169
 IR Inten    --      0.5523                28.6530                28.2236

                     49                     50                     51
                      A                      A                      A
 Frequencies --   3081.6589              3090.3314              3172.0774
 Red. masses --      1.0894                 1.0660                 1.1032
 Frc consts  --      6.0956                 5.9981                 6.5405
 IR Inten    --     88.3857                27.2581                 5.4387

 - Thermochemistry -
 -------------------
 Temperature   298.150 Kelvin.  Pressure   1.00000 Atm.
 Atom     1 has atomic number  6 and mass  12.00000

 Molecular mass:   126.06808 amu.
 Principal axes and moments of inertia in atomic units:
                           1         2         3
     Eigenvalues --   692.33843 936.561461215.61042
           X            0.99850   0.00000  -0.05484
           Y            0.00000   1.00000   0.00000
           Z            0.05484   0.00000   0.99850
 This molecule is an asymmetric top.
 Rotational symmetry number  1.
 Warning -- assumption of classical behavior for rotation
           may cause significant error
 Rotational temperatures (Kelvin)      0.12510     0.09248     0.07125
 Rotational constants (GHZ):           2.60673     1.92699     1.48464
 Zero-point vibrational energy     426221.1 (Joules/Mol)
                                  101.86928 (Kcal/Mol)
 Warning -- explicit consideration of   8 degrees of freedom as
           vibrations may cause significant error
 Vibrational temperatures:    242.88   386.68   408.83   514.01   524.78
          (Kelvin)            580.09   595.05   885.01  1027.94  1055.85
                             1160.27  1180.36  1214.23  1228.51  1299.79
                             1300.44  1314.76  1427.19  1456.25  1471.37
                             1539.44  1546.70  1589.18  1641.37  1645.54
                             1685.97  1763.77  1794.58  1832.04  1854.80
                             1880.68  1925.30  1948.72  1959.23  2004.62
                             2032.13  2042.08  2096.26  2096.51  2142.74
                             2154.21  4335.94  4336.49  4373.16  4377.47
                             4395.96  4397.39  4414.52  4433.81  4446.29
                             4563.91

 Zero-point correction=                           0.162339 (Hartree/Particle)
 Thermal correction to Energy=                    0.169164
 Thermal correction to Enthalpy=                  0.170108
 Thermal correction to Gibbs Free Energy=         0.131478
 Sum of electronic and zero-point Energies=           -423.005425
 Sum of electronic and thermal Energies=              -422.998600
 Sum of electronic and thermal Enthalpies=            -422.997656
 Sum of electronic and thermal Free Energies=         -423.036286

                     E (Thermal)             CV                S
                      KCal/Mol        Cal/Mol-Kelvin    Cal/Mol-Kelvin
 Total                  106.152             28.270             81.304
 Electronic               0.000              0.000              0.000
 Translational            0.889              2.981             40.409
 Rotational               0.889              2.981             28.157
 Vibrational            104.375             22.308             12.738
 Vibration     1          0.625              1.881              2.449
 Vibration     2          0.673              1.731              1.604
 Vibration     3          0.683              1.703              1.509
 Vibration     4          0.732              1.560              1.134
 Vibration     5          0.738              1.545              1.102
 Vibration     6          0.769              1.463              0.951
 Vibration     7          0.777              1.441              0.914
 Vibration     8          0.975              1.000              0.424

 Optimization completed.
    -- Stationary point found.
 Normal termination of Gaussian 09 at Mon Jan 27 12:07:54 2020.
