 Gaussian 09, Revision D.01,
 Gaussian 09:  ES64L-G09RevD.01 24-Apr-2013

 -----------------------------
 # b3lyp 6-31G(2df,p) opt Freq
 -----------------------------

 -----
 titel
 -----
 Symbolic Z-matrix:
 Charge =  0 Multiplicity = 1

 SCF Done:  E(RB3LYP) =  -423.117613872     A.U. after   14 cycles
 Optimization completed.
    -- Stationary point found.
 Normal termination of Gaussian 09 at Tue Jan 28 12:07:58 2020.

 ----------------------------------------------------------------------
 #N Geom=AllCheck Guess=TCheck SCRF=Check GenChk RB3LYP/6-31G(2df,p) Fr
 eq
 ----------------------------------------------------------------------

 Structure from the checkpoint file:  "/scratch/puck/g09_0b6df4ba-662f-4e79-9522-58b8e857d8a6/Gau-138085.chk"
 -----
 titel
 -----
 Charge =  0 Multiplicity = 1

                         Standard orientation:
 ---------------------------------------------------------------------
 Center     Atomic      Atomic             Coordinates (Angstroms)
 Number     Number       Type             X           Y           Z
 ---------------------------------------------------------------------
      1          6           0       -3.014556    0.305966    0.166241
      2          6           0       -1.604676    0.507258   -0.358300
      3          8           0       -0.693493    0.006042    0.630606
      4          6           0        0.658644    0.098846    0.260932
      5          6           0        1.546810   -0.891717    0.998377
      6          6           0        1.190974   -1.154627   -0.438143
      7          8           0        0.279708   -2.147670   -0.776786
      8          6           0        1.163761    1.401262   -0.072549
      9          6           0        1.597052    2.484520   -0.368121
     10          1           0       -3.741710    0.696015   -0.552042
     11          1           0       -3.227468   -0.755214    0.327725
     12          1           0       -3.149221    0.830309    1.116385
     13          1           0       -1.449982   -0.026274   -1.306006
     14          1           0       -1.400074    1.570726   -0.534853
     15          1           0        2.552311   -0.573701    1.247399
     16          1           0        1.043690   -1.487642    1.752940
     17          1           0        1.953338   -1.039817   -1.199961
     18          1           0       -0.479740   -2.031748   -0.190189
     19          1           0        1.981083    3.441326   -0.622576
 ---------------------------------------------------------------------

 SCF Done:  E(RB3LYP) =  -423.117613872     A.U. after    1 cycles

 The electronic state is 1-A.
 Alpha  occ. eigenvalues --  -19.16006 -19.14674 -10.26134 -10.24459 -10.23224
 Alpha  occ. eigenvalues --  -10.19282 -10.18730 -10.18191 -10.18048  -1.05926
 Alpha  occ. eigenvalues --   -1.02543  -0.85446  -0.75518  -0.74999  -0.63769
 Alpha  occ. eigenvalues --   -0.62675  -0.60999  -0.55348  -0.52842  -0.51007
 Alpha  occ. eigenvalues --   -0.47115  -0.45737  -0.43593  -0.40546  -0.39852
 Alpha  occ. eigenvalues --   -0.39191  -0.37921  -0.36381  -0.35026  -0.32211
 Alpha  occ. eigenvalues --   -0.29504  -0.28001  -0.26137  -0.22887
 Alpha virt. eigenvalues --    0.02770   0.04520   0.08249   0.10509   0.12297
 Alpha virt. eigenvalues --    0.12422   0.13490   0.14598   0.15510   0.15674
 Alpha virt. eigenvalues --    0.16151   0.18804   0.19075   0.19673   0.20528

 Mulliken charges:
               1
     1  C   -0.387609
     2  C   -0.069048
     3  O   -0.301763
     4  C    0.178136
     5  C   -0.385603
     6  C    0.087468
     7  O   -0.426960
     8  C    0.305466
     9  C   -0.467151
    10  H    0.121671
    11  H    0.120697
    12  H    0.132337
    13  H    0.109337
    14  H    0.114844
    15  H    0.130784
    16  H    0.128625
    17  H    0.120828
    18  H    0.291019
    19  H    0.196921
 Sum of Mulliken charges =   0.00000

 Dipole moment (field-independent basis, Debye):
    X=             -0.3947    Y=              0.9951    Z=              0.0714  Tot=              1.0729
 Quadrupole moment (field-independent basis, Debye-Ang):
   XX=            -48.0763   YY=            -52.9278   ZZ=            -54.9218
   XY=              2.0575   XZ=              0.6524   YZ=             -4.2431

  Exact polarizability:  83.663   7.279  92.371   0.295  -6.016  62.088
 Approx polarizability: 107.089  15.455 143.537  -2.123 -10.289  95.944

                      1                      2                      3
                      A                      A                      A
 Frequencies --     58.4161               101.2906               127.7643
 Red. masses --      2.3986                 2.3207                 3.9788
 Frc consts  --      0.0048                 0.0140                 0.0383
 IR Inten    --      0.0277                 7.1283                 1.7711

                      4                      5                      6
                      A                      A                      A
 Frequencies --    153.8139               190.2711               232.7527
 Red. masses --      4.3227                 3.0387                 1.6150
 Frc consts  --      0.0603                 0.0648                 0.0515
 IR Inten    --      3.3016                 1.2386                 1.7754

                      7                      8                      9
                      A                      A                      A
 Frequencies --    262.4988               350.3846               377.3979
 Red. masses --      2.0587                 3.6462                 3.0233
 Frc consts  --      0.0836                 0.2637                 0.2537
 IR Inten    --     20.5543                 3.7897                11.2350

                     10                     11                     12
                      A                      A                      A
 Frequencies --    421.9972               443.1931               489.2929
 Red. masses --      1.6923                 2.3659                 2.4259
 Frc consts  --      0.1776                 0.2738                 0.3422
 IR Inten    --     46.1783                45.2542                 1.2937

                     13                     14                     15
                      A                      A                      A
 Frequencies --    556.4050               568.3719               603.2775
 Red. masses --      5.0003                 1.3521                 3.3604
 Frc consts  --      0.9121                 0.2574                 0.7206
 IR Inten    --     24.5775                41.7952                 5.2181

                     16                     17                     18
                      A                      A                      A
 Frequencies --    682.8343               745.9263               821.8736
 Red. masses --      1.2607                 4.2460                 1.0902
 Frc consts  --      0.3463                 1.3919                 0.4339
 IR Inten    --     33.9286                11.0320                 0.2982

                     19                     20                     21
                      A                      A                      A
 Frequencies --    827.9820               862.5129               892.1581
 Red. masses --      2.3554                 1.7542                 4.5771
 Frc consts  --      0.9514                 0.7689                 2.1465
 IR Inten    --     17.8521                11.9536                 7.1661

                     22                     23                     24
                      A                      A                      A
 Frequencies --    947.8250              1017.0876              1048.6225
 Red. masses --      1.9244                 2.1712                 1.4266
 Frc consts  --      1.0186                 1.3233                 0.9243
 IR Inten    --     13.1160                20.7755                 8.7752

                     25                     26                     27
                      A                      A                      A
 Frequencies --   1080.7803              1091.0767              1131.7874
 Red. masses --      2.7722                 1.4158                 2.4164
 Frc consts  --      1.9079                 0.9930                 1.8237
 IR Inten    --     72.7314                18.8476                50.4772

                     28                     29                     30
                      A                      A                      A
 Frequencies --   1144.8637              1187.3957              1247.5104
 Red. masses --      2.8078                 1.5473                 4.0664
 Frc consts  --      2.1683                 1.2853                 3.7287
 IR Inten    --     68.2426                 5.0246                98.9872

                     31                     32                     33
                      A                      A                      A
 Frequencies --   1259.1800              1296.9034              1330.6053
 Red. masses --      2.0306                 1.1139                 1.8239
 Frc consts  --      1.8969                 1.1038                 1.9026
 IR Inten    --     40.5214                 2.5886                 9.0373

                     34                     35                     36
                      A                      A                      A
 Frequencies --   1399.9139              1424.1590              1430.9871
 Red. masses --      1.2287                 1.3206                 1.2303
 Frc consts  --      1.4187                 1.5781                 1.4843
 IR Inten    --      0.7498                14.0603                45.9894

                     37                     38                     39
                      A                      A                      A
 Frequencies --   1467.9121              1483.8261              1499.3963
 Red. masses --      1.5149                 1.0410                 1.0489
 Frc consts  --      1.9232                 1.3505                 1.3894
 IR Inten    --     50.5355                 3.3687                 2.2178

                     40                     41                     42
                      A                      A                      A
 Frequencies --   1527.3209              2225.7011              3011.1484
 Red. masses --      1.0860                 6.0295                 1.0574
 Frc consts  --      1.4926                17.5982                 5.6488
 IR Inten    --      3.0885                 6.9308                26.4412

                     43                     44                     45
                      A                      A                      A
 Frequencies --   3043.6423              3052.5092              3116.0366
 Red. masses --      1.0360                 1.1038                 1.1018
 Frc consts  --      5.6547                 6.0600                 6.3031
 IR Inten    --     16.6966                17.0882                27.0541

                     46                     47                     48
                      A                      A                      A
 Frequencies --   3123.1883              3135.8037              3184.9680
 Red. masses --      1.1022                 1.0543                 1.0912
 Frc consts  --      6.3346                 6.1079                 6.5215
 IR Inten    --     21.9391                 3.2702                 8.2829

                     49                     50                     51
                      A                      A                      A
 Frequencies --   3233.3502              3501.3804              3763.7476
 Red. masses --      1.1174                 1.1597                 1.0646
 Frc consts  --      6.8827                 8.3765                 8.8855
 IR Inten    --      3.0063                79.7612                36.7123

 - Thermochemistry -
 -------------------
 Temperature   298.150 Kelvin.  Pressure   1.00000 Atm.
 Atom     1 has atomic number  6 and mass  12.00000

 Molecular mass:   126.06808 amu.
 Principal axes and moments of inertia in atomic units:
                           1         2         3
     Eigenvalues --   964.454051234.333201879.08050
           X            0.99956  -0.02876   0.00662
           Y            0.02891   0.99930  -0.02389
           Z           -0.00593   0.02407   0.99969
 This molecule is an asymmetric top.
 Rotational symmetry number  1.
 Warning -- assumption of classical behavior for rotation
           may cause significant error
 Rotational temperatures (Kelvin)      0.08981     0.07017     0.04609
 Rotational constants (GHZ):           1.87126     1.46212     0.96044
 Zero-point vibrational energy     407801.2 (Joules/Mol)
                                   97.46684 (Kcal/Mol)
 Warning -- explicit consideration of  15 degrees of freedom as
           vibrations may cause significant error
 Vibrational temperatures:     84.05   145.73   183.82   221.30   273.76
          (Kelvin)            334.88   377.68   504.12   542.99   607.16
                              637.66   703.98   800.54   817.76   867.98
                              982.45  1073.22  1182.49  1191.28  1240.96
                             1283.61  1363.71  1463.36  1508.73  1555.00
                             1569.81  1628.39  1647.20  1708.40  1794.89
                             1811.68  1865.95  1914.44  2014.16  2049.04
                             2058.87  2112.00  2134.89  2157.29  2197.47
                             3202.28  4332.37  4379.12  4391.87  4483.28
                             4493.57  4511.72  4582.45  4652.06  5037.70
                             5415.19

 Zero-point correction=                           0.155323 (Hartree/Particle)
 Thermal correction to Energy=                    0.165375
 Thermal correction to Enthalpy=                  0.166320
 Thermal correction to Gibbs Free Energy=         0.120231
 Sum of electronic and zero-point Energies=           -422.962291
 Sum of electronic and thermal Energies=              -422.952239
 Sum of electronic and thermal Enthalpies=            -422.951294
 Sum of electronic and thermal Free Energies=         -422.997383

                     E (Thermal)             CV                S
                      KCal/Mol        Cal/Mol-Kelvin    Cal/Mol-Kelvin
 Total                  103.775             37.058             97.001
 Electronic               0.000              0.000              0.000
 Translational            0.889              2.981             40.409
 Rotational               0.889              2.981             29.194
 Vibrational            101.997             31.097             27.399
 Vibration     1          0.596              1.974              4.510
 Vibration     2          0.604              1.948              3.429
 Vibration     3          0.611              1.925              2.979
 Vibration     4          0.619              1.898              2.625
 Vibration     5          0.634              1.853              2.225
 Vibration     6          0.654              1.791              1.858
 Vibration     7          0.670              1.742              1.645
 Vibration     8          0.727              1.574              1.164
 Vibration     9          0.748              1.518              1.050
 Vibration    10          0.784              1.422              0.885
 Vibration    11          0.803              1.376              0.817
 Vibration    12          0.845              1.274              0.685
 Vibration    13          0.912              1.126              0.531
 Vibration    14          0.924              1.100              0.507
 Vibration    15          0.962              1.025              0.444

 Optimization completed.
    -- Stationary point found.
 Normal termination of Gaussian 09 at Tue Jan 28 12:50:00 2020.
