 Gaussian 09, Revision D.01,
 Gaussian 09:  ES64L-G09RevD.01 24-Apr-2013

 -----------------------------
 # b3lyp 6-31G(2df,p) opt Freq
 -----------------------------

 -----
 titel
 -----
 Symbolic Z-matrix:
 Charge =  0 Multiplicity = 1

 SCF Done:  E(RB3LYP) =  -423.121363406     A.U. after   14 cycles
 Optimization completed.
    -- Stationary point found.
 Normal termination of Gaussian 09 at Mon Jan 27 16:26:52 2020.

 ----------------------------------------------------------------------
 #N Geom=AllCheck Guess=TCheck SCRF=Check GenChk RB3LYP/6-31G(2df,p) Fr
 eq
 ----------------------------------------------------------------------

 Structure from the checkpoint file:  "/scratch/puck/g09_969d1eb7-64b2-448f-9ff7-1aaa0529978c/Gau-37164.chk"
 -----
 titel
 -----
 Charge =  0 Multiplicity = 1

                         Standard orientation:
 ---------------------------------------------------------------------
 Center     Atomic      Atomic             Coordinates (Angstroms)
 Number     Number       Type             X           Y           Z
 ---------------------------------------------------------------------
      1          8           0       -1.160349    1.120823   -1.009146
      2          6           0       -1.154049    0.066035   -0.075482
      3          6           0       -2.345754    0.059483    0.831814
      4          6           0       -2.208018   -1.003444   -0.242114
      5          6           0        0.207834   -0.303657    0.462221
      6          6           0        1.104426    0.923215    0.878959
      7          6           0        2.108024    0.502791   -0.202066
      8          8           0        2.510910   -0.842023    0.085234
      9          6           0        1.273954   -0.641303   -0.604344
     10          1           0       -0.766659    0.798247   -1.827205
     11          1           0       -2.206654   -0.227908    1.868022
     12          1           0       -3.079640    0.839283    0.665901
     13          1           0       -1.975479   -2.019381    0.059229
     14          1           0       -2.858742   -0.919060   -1.105216
     15          1           0        0.108838   -1.087105    1.218681
     16          1           0        0.607590    1.867326    0.649379
     17          1           0        1.493077    0.932322    1.899455
     18          1           0        2.799645    1.112328   -0.772114
     19          1           0        1.155042   -1.145165   -1.558759
 ---------------------------------------------------------------------

 SCF Done:  E(RB3LYP) =  -423.121363406     A.U. after    1 cycles

 The electronic state is 1-A.
 Alpha  occ. eigenvalues --  -19.14890 -19.14676 -10.24263 -10.23575 -10.23541
 Alpha  occ. eigenvalues --  -10.19536 -10.18655 -10.18563 -10.18378  -1.07569
 Alpha  occ. eigenvalues --   -1.03191  -0.85092  -0.79772  -0.67683  -0.63468
 Alpha  occ. eigenvalues --   -0.60771  -0.58919  -0.55749  -0.53206  -0.49354
 Alpha  occ. eigenvalues --   -0.47516  -0.45610  -0.43579  -0.42552  -0.39453
 Alpha  occ. eigenvalues --   -0.37346  -0.35866  -0.35103  -0.34175  -0.32714
 Alpha  occ. eigenvalues --   -0.29923  -0.28043  -0.25870  -0.24944
 Alpha virt. eigenvalues --    0.06466   0.09359   0.09548   0.11316   0.12100
 Alpha virt. eigenvalues --    0.13087   0.13521   0.14260   0.15303   0.16263
 Alpha virt. eigenvalues --    0.17126   0.17609   0.20335   0.21767   0.22098

 Mulliken charges:
               1
     1  O   -0.467544
     2  C    0.393265
     3  C   -0.299843
     4  C   -0.330331
     5  C   -0.062415
     6  C   -0.279220
     7  C    0.038737
     8  O   -0.248950
     9  C   -0.006423
    10  H    0.283163
    11  H    0.115995
    12  H    0.124681
    13  H    0.114326
    14  H    0.114947
    15  H    0.079953
    16  H    0.126170
    17  H    0.105160
    18  H    0.101858
    19  H    0.096469
 Sum of Mulliken charges =   0.00000

 Dipole moment (field-independent basis, Debye):
    X=             -0.8995    Y=              0.0379    Z=             -0.9875  Tot=              1.3362
 Quadrupole moment (field-independent basis, Debye-Ang):
   XX=            -58.2784   YY=            -54.8387   ZZ=            -48.5548
   XY=              5.3386   XZ=             -1.7443   YZ=              0.9235

  Exact polarizability:  84.844   4.661  69.968  -2.211   3.206  69.600
 Approx polarizability: 111.374   3.295 110.524  -0.794   3.485 104.842

                      1                      2                      3
                      A                      A                      A
 Frequencies --     77.1178               120.1535               177.3630
 Red. masses --      3.5249                 3.6087                 3.3076
 Frc consts  --      0.0124                 0.0307                 0.0613
 IR Inten    --      0.9203                 1.2977                 4.9023

                      4                      5                      6
                      A                      A                      A
 Frequencies --    290.7855               296.6737               314.6215
 Red. masses --      2.3086                 1.3357                 3.4378
 Frc consts  --      0.1150                 0.0693                 0.2005
 IR Inten    --     23.8174                67.5735                 0.2160

                      7                      8                      9
                      A                      A                      A
 Frequencies --    361.6541               447.4670               479.2709
 Red. masses --      2.1291                 2.8914                 4.1286
 Frc consts  --      0.1641                 0.3411                 0.5587
 IR Inten    --     32.0549                 3.5070                13.3751

                     10                     11                     12
                      A                      A                      A
 Frequencies --    522.4620               732.7644               766.5333
 Red. masses --      3.3078                 2.5114                 2.4035
 Frc consts  --      0.5320                 0.7945                 0.8321
 IR Inten    --      7.8098                 1.2262                 1.7602

                     13                     14                     15
                      A                      A                      A
 Frequencies --    779.1544               842.8533               849.0536
 Red. masses --      1.4447                 1.8261                 3.3027
 Frc consts  --      0.5168                 0.7643                 1.4028
 IR Inten    --      0.8072                24.2303                 8.4038

                     16                     17                     18
                      A                      A                      A
 Frequencies --    878.1538               898.7484               929.5447
 Red. masses --      2.2611                 1.8431                 1.9664
 Frc consts  --      1.0273                 0.8772                 1.0010
 IR Inten    --      9.0537                 5.0823                20.1552

                     19                     20                     21
                      A                      A                      A
 Frequencies --    936.9328               954.3899               980.5104
 Red. masses --      2.2091                 2.5320                 2.0140
 Frc consts  --      1.1426                 1.3588                 1.1408
 IR Inten    --      3.0355                 1.1302                 9.5297

                     22                     23                     24
                      A                      A                      A
 Frequencies --    992.1299              1015.6703              1039.4344
 Red. masses --      2.1305                 2.1879                 1.9842
 Frc consts  --      1.2356                 1.3298                 1.2631
 IR Inten    --     27.0185                 1.6354                 6.9968

                     25                     26                     27
                      A                      A                      A
 Frequencies --   1052.6361              1071.4230              1078.5816
 Red. masses --      1.5256                 1.4847                 1.4367
 Frc consts  --      0.9960                 1.0042                 0.9848
 IR Inten    --     10.7462                 1.7810                 0.9102

                     28                     29                     30
                      A                      A                      A
 Frequencies --   1160.0691              1188.9365              1207.9055
 Red. masses --      1.3772                 1.2696                 1.4266
 Frc consts  --      1.0920                 1.0574                 1.2264
 IR Inten    --      3.4832                 0.1058                12.7068

                     31                     32                     33
                      A                      A                      A
 Frequencies --   1229.3126              1234.8847              1244.5034
 Red. masses --      1.3930                 1.3659                 1.7684
 Frc consts  --      1.2403                 1.2272                 1.6137
 IR Inten    --     27.6495                 6.1740                20.5394

                     34                     35                     36
                      A                      A                      A
 Frequencies --   1276.2247              1295.9432              1322.5203
 Red. masses --      1.5624                 1.6004                 2.3654
 Frc consts  --      1.4993                 1.5837                 2.4375
 IR Inten    --     10.3529                62.1030                 1.9317

                     37                     38                     39
                      A                      A                      A
 Frequencies --   1386.5474              1404.5506              1451.6249
 Red. masses --      3.5037                 1.7688                 1.0915
 Frc consts  --      3.9687                 2.0559                 1.3552
 IR Inten    --     13.2903                11.7427                 2.2098

                     40                     41                     42
                      A                      A                      A
 Frequencies --   1463.8464              1498.2912              3070.3215
 Red. masses --      1.1245                 1.5751                 1.0778
 Frc consts  --      1.4197                 2.0833                 5.9860
 IR Inten    --      3.0241                 7.8225                20.1449

                     43                     44                     45
                      A                      A                      A
 Frequencies --   3076.7048              3131.3708              3140.2175
 Red. masses --      1.0658                 1.0525                 1.0591
 Frc consts  --      5.9440                 6.0802                 6.1533
 IR Inten    --     23.5487                11.4338                 6.3642

                     46                     47                     48
                      A                      A                      A
 Frequencies --   3140.8552              3159.8539              3188.3355
 Red. masses --      1.1043                 1.0896                 1.0981
 Frc consts  --      6.4186                 6.4096                 6.5770
 IR Inten    --     11.2774                19.2610                23.8678

                     49                     50                     51
                      A                      A                      A
 Frequencies --   3217.9593              3234.0510              3798.1472
 Red. masses --      1.1184                 1.1163                 1.0660
 Frc consts  --      6.8237                 6.8788                 9.0604
 IR Inten    --      1.6718                10.1032                14.6787

 - Thermochemistry -
 -------------------
 Temperature   298.150 Kelvin.  Pressure   1.00000 Atm.
 Atom     1 has atomic number  8 and mass  15.99491

 Molecular mass:   126.06808 amu.
 Principal axes and moments of inertia in atomic units:
                           1         2         3
     Eigenvalues --   487.644721603.757481669.34477
           X            0.99964   0.02641  -0.00428
           Y           -0.02575   0.99318   0.11375
           Z            0.00725  -0.11360   0.99350
 This molecule is an asymmetric top.
 Rotational symmetry number  1.
 Warning -- assumption of classical behavior for rotation
           may cause significant error
 Rotational temperatures (Kelvin)      0.17762     0.05401     0.05188
 Rotational constants (GHZ):           3.70093     1.12532     1.08111
 Zero-point vibrational energy     415158.4 (Joules/Mol)
                                   99.22523 (Kcal/Mol)
 Warning -- explicit consideration of  10 degrees of freedom as
           vibrations may cause significant error
 Vibrational temperatures:    110.96   172.87   255.19   418.38   426.85
          (Kelvin)            452.67   520.34   643.80   689.56   751.71
                             1054.28  1102.87  1121.03  1212.68  1221.60
                             1263.47  1293.10  1337.41  1348.04  1373.15
                             1410.73  1427.45  1461.32  1495.51  1514.51
                             1541.54  1551.84  1669.08  1710.61  1737.90
                             1768.70  1776.72  1790.56  1836.20  1864.57
                             1902.81  1994.93  2020.83  2088.56  2106.15
                             2155.70  4417.50  4426.69  4505.34  4518.07
                             4518.98  4546.32  4587.30  4629.92  4653.07
                             5464.68

 Zero-point correction=                           0.158125 (Hartree/Particle)
 Thermal correction to Energy=                    0.166401
 Thermal correction to Enthalpy=                  0.167346
 Thermal correction to Gibbs Free Energy=         0.125218
 Sum of electronic and zero-point Energies=           -422.963238
 Sum of electronic and thermal Energies=              -422.954962
 Sum of electronic and thermal Enthalpies=            -422.954018
 Sum of electronic and thermal Free Energies=         -422.996146

                     E (Thermal)             CV                S
                      KCal/Mol        Cal/Mol-Kelvin    Cal/Mol-Kelvin
 Total                  104.418             32.364             88.665
 Electronic               0.000              0.000              0.000
 Translational            0.889              2.981             40.409
 Rotational               0.889              2.981             28.659
 Vibrational            102.641             26.402             19.598
 Vibration     1          0.599              1.964              3.963
 Vibration     2          0.609              1.932              3.098
 Vibration     3          0.628              1.870              2.356
 Vibration     4          0.687              1.691              1.469
 Vibration     5          0.690              1.680              1.436
 Vibration     6          0.702              1.646              1.338
 Vibration     7          0.736              1.551              1.115
 Vibration     8          0.807              1.366              0.803
 Vibration     9          0.836              1.296              0.712
 Vibration    10          0.877              1.200              0.604

 Optimization completed.
    -- Stationary point found.
 Normal termination of Gaussian 09 at Mon Jan 27 17:19:23 2020.
