 Gaussian 09, Revision D.01,
 Gaussian 09:  ES64L-G09RevD.01 24-Apr-2013

 -----------------------------
 # b3lyp 6-31G(2df,p) opt Freq
 -----------------------------

 -----
 titel
 -----
 Symbolic Z-matrix:
 Charge =  0 Multiplicity = 1

 SCF Done:  E(RB3LYP) =  -423.193664123     A.U. after   14 cycles
 Optimization completed.
    -- Stationary point found.
 Normal termination of Gaussian 09 at Mon Jan 27 16:51:18 2020.

 ----------------------------------------------------------------------
 #N Geom=AllCheck Guess=TCheck SCRF=Check GenChk RB3LYP/6-31G(2df,p) Fr
 eq
 ----------------------------------------------------------------------

 Structure from the checkpoint file:  "/scratch/puck/g09_f418bb5b-9791-4538-aeb8-73f2e2da964b/Gau-61376.chk"
 -----
 titel
 -----
 Charge =  0 Multiplicity = 1

                         Standard orientation:
 ---------------------------------------------------------------------
 Center     Atomic      Atomic             Coordinates (Angstroms)
 Number     Number       Type             X           Y           Z
 ---------------------------------------------------------------------
      1          6           0       -1.157994   -1.176776   -1.443924
      2          6           0       -0.756203   -0.302916   -0.261654
      3          6           0       -1.731787    0.857992    0.166086
      4          6           0       -0.502340    1.784392    0.349187
      5          6           0        0.342235    0.793336   -0.487492
      6          6           0        1.770376    0.470517   -0.096935
      7          8           0        2.467491   -0.279400   -0.733391
      8          6           0       -0.491650   -1.138439    0.967279
      9          8           0        0.433214   -0.988285    1.727002
     10          1           0       -0.311710   -1.783400   -1.782027
     11          1           0       -1.980972   -1.851446   -1.181237
     12          1           0       -1.488307   -0.557769   -2.283345
     13          1           0       -2.363258    1.153505   -0.676170
     14          1           0       -2.371091    0.681609    1.035477
     15          1           0       -0.591841    2.806053   -0.023695
     16          1           0       -0.164233    1.815418    1.388689
     17          1           0        0.347577    1.061533   -1.548890
     18          1           0        2.151925    0.998897    0.803057
     19          1           0       -1.269556   -1.911556    1.163966
 ---------------------------------------------------------------------

 SCF Done:  E(RB3LYP) =  -423.193664123     A.U. after    1 cycles

 The electronic state is 1-A.
 Alpha  occ. eigenvalues --  -19.15400 -19.12731 -10.28036 -10.26253 -10.21991
 Alpha  occ. eigenvalues --  -10.20671 -10.20159 -10.19765 -10.19427  -1.06063
 Alpha  occ. eigenvalues --   -1.03486  -0.87380  -0.75824  -0.70561  -0.66325
 Alpha  occ. eigenvalues --   -0.61363  -0.58878  -0.54669  -0.49465  -0.47990
 Alpha  occ. eigenvalues --   -0.46227  -0.43786  -0.43483  -0.42911  -0.42212
 Alpha  occ. eigenvalues --   -0.40098  -0.38825  -0.37243  -0.35995  -0.35114
 Alpha  occ. eigenvalues --   -0.32416  -0.32045  -0.26338  -0.23880
 Alpha virt. eigenvalues --   -0.03427  -0.01230   0.07675   0.09947   0.10209
 Alpha virt. eigenvalues --    0.11831   0.12726   0.14229   0.14863   0.15734
 Alpha virt. eigenvalues --    0.16848   0.17134   0.18625   0.20719   0.21838

 Mulliken charges:
               1
     1  C   -0.481204
     2  C    0.218285
     3  C   -0.264641
     4  C   -0.253921
     5  C   -0.087842
     6  C    0.140369
     7  O   -0.269404
     8  C    0.125008
     9  O   -0.253868
    10  H    0.148817
    11  H    0.122056
    12  H    0.124376
    13  H    0.112640
    14  H    0.110796
    15  H    0.107777
    16  H    0.125430
    17  H    0.103750
    18  H    0.081172
    19  H    0.090403
 Sum of Mulliken charges =   0.00000

 Dipole moment (field-independent basis, Debye):
    X=             -3.8740    Y=              1.3821    Z=             -0.7399  Tot=              4.1791
 Quadrupole moment (field-independent basis, Debye-Ang):
   XX=            -58.6389   YY=            -50.8178   ZZ=            -55.9496
   XY=              4.1458   XZ=              1.2907   YZ=              0.6947

  Exact polarizability:  82.467   1.350  75.189   1.797   2.078  72.029
 Approx polarizability: 122.171  -2.308 108.051   3.336   3.496 112.100

                      1                      2                      3
                      A                      A                      A
 Frequencies --     59.0636               102.3300               131.6181
 Red. masses --      4.7534                 4.5852                 4.0580
 Frc consts  --      0.0098                 0.0283                 0.0414
 IR Inten    --      5.7591                 1.9721                 4.1759

                      4                      5                      6
                      A                      A                      A
 Frequencies --    187.4376               217.8675               232.3459
 Red. masses --      2.4756                 1.5062                 1.7739
 Frc consts  --      0.0512                 0.0421                 0.0564
 IR Inten    --      5.1686                 8.1752                 7.4226

                      7                      8                      9
                      A                      A                      A
 Frequencies --    304.6733               327.6689               354.9066
 Red. masses --      2.0562                 2.4069                 2.4439
 Frc consts  --      0.1125                 0.1523                 0.1814
 IR Inten    --      2.5141                 0.4287                 3.9841

                     10                     11                     12
                      A                      A                      A
 Frequencies --    405.1232               478.8452               595.0725
 Red. masses --      2.9909                 5.0293                 3.8703
 Frc consts  --      0.2892                 0.6794                 0.8075
 IR Inten    --      1.8873                 2.2358                 3.2668

                     13                     14                     15
                      A                      A                      A
 Frequencies --    657.9861               722.3900               812.8977
 Red. masses --      2.4806                 2.7677                 1.5283
 Frc consts  --      0.6328                 0.8510                 0.5950
 IR Inten    --      7.9785                16.5001                 8.6330

                     16                     17                     18
                      A                      A                      A
 Frequencies --    863.5847               902.5671               929.9476
 Red. masses --      2.3848                 1.8767                 1.7281
 Frc consts  --      1.0479                 0.9008                 0.8805
 IR Inten    --      9.4911                 2.8741                17.0290

                     19                     20                     21
                      A                      A                      A
 Frequencies --    955.8279               979.6244              1010.6823
 Red. masses --      2.2434                 1.4176                 1.5381
 Frc consts  --      1.2076                 0.8015                 0.9257
 IR Inten    --      2.4514                 0.3559                 1.9286

                     22                     23                     24
                      A                      A                      A
 Frequencies --   1034.3097              1084.6523              1118.8411
 Red. masses --      2.0189                 2.8845                 2.1441
 Frc consts  --      1.2725                 1.9994                 1.5813
 IR Inten    --      9.4543                11.6919                21.8852

                     25                     26                     27
                      A                      A                      A
 Frequencies --   1157.8003              1175.2039              1200.9378
 Red. masses --      1.8750                 2.0333                 1.9312
 Frc consts  --      1.4809                 1.6545                 1.6410
 IR Inten    --      0.5420                 3.2731                 9.0378

                     28                     29                     30
                      A                      A                      A
 Frequencies --   1238.0430              1261.9240              1267.4548
 Red. masses --      1.5526                 1.5624                 1.3894
 Frc consts  --      1.4021                 1.4659                 1.3151
 IR Inten    --      6.8505                 6.1959                 0.7736

                     31                     32                     33
                      A                      A                      A
 Frequencies --   1304.5326              1325.9676              1405.4183
 Red. masses --      1.8676                 1.5110                 1.2549
 Frc consts  --      1.8726                 1.5652                 1.4604
 IR Inten    --      2.0817                 1.4494                 5.7183

                     34                     35                     36
                      A                      A                      A
 Frequencies --   1415.5269              1421.2997              1482.8505
 Red. masses --      1.2143                 1.2097                 1.0767
 Frc consts  --      1.4335                 1.4398                 1.3949
 IR Inten    --      6.9741                 2.3058                 1.9427

                     37                     38                     39
                      A                      A                      A
 Frequencies --   1489.4355              1497.1988              1501.7196
 Red. masses --      1.0631                 1.0777                 1.0885
 Frc consts  --      1.3895                 1.4233                 1.4462
 IR Inten    --      7.8392                 3.1507                 4.7615

                     40                     41                     42
                      A                      A                      A
 Frequencies --   1809.0803              1817.8179              2873.7607
 Red. masses --     10.8341                10.7130                 1.0829
 Frc consts  --     20.8910                20.8575                 5.2690
 IR Inten    --     92.2348               199.0639               107.9261

                     43                     44                     45
                      A                      A                      A
 Frequencies --   2896.3317              3029.8860              3054.9437
 Red. masses --      1.0844                 1.0356                 1.0586
 Frc consts  --      5.3597                 5.6011                 5.8209
 IR Inten    --     95.7985                19.4058                33.0910

                     46                     47                     48
                      A                      A                      A
 Frequencies --   3062.4400              3067.5765              3098.9604
 Red. masses --      1.0830                 1.0599                 1.1002
 Frc consts  --      5.9843                 5.8763                 6.2250
 IR Inten    --      4.8000                26.1121                17.3364

                     49                     50                     51
                      A                      A                      A
 Frequencies --   3104.6240              3110.5126              3125.9697
 Red. masses --      1.1078                 1.1024                 1.1073
 Frc consts  --      6.2909                 6.2844                 6.3753
 IR Inten    --     11.7519                10.1057                29.3567

 - Thermochemistry -
 -------------------
 Temperature   298.150 Kelvin.  Pressure   1.00000 Atm.
 Atom     1 has atomic number  6 and mass  12.00000

 Molecular mass:   126.06808 amu.
 Principal axes and moments of inertia in atomic units:
                           1         2         3
     Eigenvalues --   888.166441222.167561297.87279
           X            0.99848   0.01978   0.05148
           Y           -0.03416   0.95470   0.29560
           Z           -0.04330  -0.29691   0.95392
 This molecule is an asymmetric top.
 Rotational symmetry number  1.
 Warning -- assumption of classical behavior for rotation
           may cause significant error
 Rotational temperatures (Kelvin)      0.09752     0.07087     0.06674
 Rotational constants (GHZ):           2.03199     1.47667     1.39054
 Zero-point vibrational energy     410722.7 (Joules/Mol)
                                   98.16509 (Kcal/Mol)
 Warning -- explicit consideration of  12 degrees of freedom as
           vibrations may cause significant error
 Vibrational temperatures:     84.98   147.23   189.37   269.68   313.46
          (Kelvin)            334.29   438.36   471.44   510.63   582.88
                              688.95   856.18   946.69  1039.36  1169.58
                             1242.50  1298.59  1337.99  1375.22  1409.46
                             1454.14  1488.14  1560.57  1609.76  1665.81
                             1690.85  1727.88  1781.27  1815.62  1823.58
                             1876.93  1907.77  2022.08  2036.62  2044.93
                             2133.49  2142.96  2154.13  2160.64  2602.86
                             2615.43  4134.70  4167.17  4359.32  4395.38
                             4406.16  4413.55  4458.71  4466.86  4475.33
                             4497.57

 Zero-point correction=                           0.156436 (Hartree/Particle)
 Thermal correction to Energy=                    0.165815
 Thermal correction to Enthalpy=                  0.166759
 Thermal correction to Gibbs Free Energy=         0.122031
 Sum of electronic and zero-point Energies=           -423.037228
 Sum of electronic and thermal Energies=              -423.027849
 Sum of electronic and thermal Enthalpies=            -423.026905
 Sum of electronic and thermal Free Energies=         -423.071633

                     E (Thermal)             CV                S
                      KCal/Mol        Cal/Mol-Kelvin    Cal/Mol-Kelvin
 Total                  104.050             33.961             94.137
 Electronic               0.000              0.000              0.000
 Translational            0.889              2.981             40.409
 Rotational               0.889              2.981             28.734
 Vibrational            102.273             27.999             24.994
 Vibration     1          0.596              1.974              4.488
 Vibration     2          0.604              1.947              3.409
 Vibration     3          0.612              1.922              2.922
 Vibration     4          0.632              1.857              2.253
 Vibration     5          0.646              1.814              1.977
 Vibration     6          0.653              1.791              1.861
 Vibration     7          0.696              1.665              1.391
 Vibration     8          0.711              1.620              1.272
 Vibration     9          0.731              1.565              1.144
 Vibration    10          0.770              1.459              0.944
 Vibration    11          0.835              1.297              0.713
 Vibration    12          0.953              1.042              0.458

 Normal termination of Gaussian 09 at Mon Jan 27 17:32:40 2020.
