 Gaussian 09, Revision D.01,
 Gaussian 09:  ES64L-G09RevD.01 24-Apr-2013

 -----------------------------
 # b3lyp 6-31G(2df,p) opt Freq
 -----------------------------

 -----
 titel
 -----
 Symbolic Z-matrix:
 Charge =  0 Multiplicity = 1

 SCF Done:  E(RB3LYP) =  -423.186823948     A.U. after   13 cycles
 Optimization completed.
    -- Stationary point found.
 Normal termination of Gaussian 09 at Mon Jan 27 17:59:23 2020.

 ----------------------------------------------------------------------
 #N Geom=AllCheck Guess=TCheck SCRF=Check GenChk RB3LYP/6-31G(2df,p) Fr
 eq
 ----------------------------------------------------------------------

 Structure from the checkpoint file:  "/scratch/puck/g09_3bdcfa6b-723b-4437-9f46-0ba35ce9c436/Gau-87966.chk"
 -----
 titel
 -----
 Charge =  0 Multiplicity = 1

                         Standard orientation:
 ---------------------------------------------------------------------
 Center     Atomic      Atomic             Coordinates (Angstroms)
 Number     Number       Type             X           Y           Z
 ---------------------------------------------------------------------
      1          6           0        2.518191    0.586021   -0.008455
      2          6           0        1.076422    0.151317   -0.047099
      3          6           0        0.664821   -1.000150   -1.005493
      4          6           0       -0.764427   -1.120535   -0.501402
      5          6           0       -0.671312   -0.701070    0.957258
      6          8           0        0.671603   -0.369987    1.244366
      7          6           0       -1.199657    0.275036   -0.071316
      8          8           0       -2.528265    0.651323   -0.187510
      9          6           0       -0.021354    1.207488   -0.332961
     10          1           0        2.665639    1.371570    0.738354
     11          1           0        3.164633   -0.257924    0.250056
     12          1           0        2.827879    0.973139   -0.983592
     13          1           0        0.738410   -0.711080   -2.057732
     14          1           0        1.260386   -1.901650   -0.833259
     15          1           0       -1.481115   -1.853455   -0.845538
     16          1           0       -1.236495   -1.130582    1.772618
     17          1           0       -2.739604    1.238728    0.546952
     18          1           0        0.011527    1.587369   -1.357759
     19          1           0        0.025935    2.044554    0.371852
 ---------------------------------------------------------------------

 SCF Done:  E(RB3LYP) =  -423.186823948     A.U. after    1 cycles

 The electronic state is 1-A.
 Alpha  occ. eigenvalues --  -19.14842 -19.13629 -10.23801 -10.23319 -10.22336
 Alpha  occ. eigenvalues --  -10.18375 -10.18190 -10.17985 -10.17784  -1.05369
 Alpha  occ. eigenvalues --   -1.02777  -0.84687  -0.78209  -0.71354  -0.69068
 Alpha  occ. eigenvalues --   -0.59063  -0.56609  -0.55077  -0.51964  -0.48337
 Alpha  occ. eigenvalues --   -0.46039  -0.43855  -0.42632  -0.41560  -0.39466
 Alpha  occ. eigenvalues --   -0.37826  -0.37417  -0.36826  -0.34978  -0.33384
 Alpha  occ. eigenvalues --   -0.30879  -0.28935  -0.26317  -0.21808
 Alpha virt. eigenvalues --    0.07581   0.08459   0.12108   0.12639   0.13863
 Alpha virt. eigenvalues --    0.14692   0.15682   0.16241   0.17123   0.17277
 Alpha virt. eigenvalues --    0.18377   0.19973   0.21008   0.21770   0.22031

 Mulliken charges:
               1
     1  C   -0.479925
     2  C    0.365097
     3  C   -0.251392
     4  C   -0.152261
     5  C    0.003303
     6  O   -0.289174
     7  C    0.352693
     8  O   -0.474302
     9  C   -0.326601
    10  H    0.126004
    11  H    0.127114
    12  H    0.119141
    13  H    0.100439
    14  H    0.102371
    15  H    0.095791
    16  H    0.102405
    17  H    0.283739
    18  H    0.103530
    19  H    0.092027
 Sum of Mulliken charges =   0.00000

 Dipole moment (field-independent basis, Debye):
    X=              0.1715    Y=              0.7245    Z=             -0.1353  Tot=              0.7567
 Quadrupole moment (field-independent basis, Debye-Ang):
   XX=            -53.3114   YY=            -50.4792   ZZ=            -53.6841
   XY=             -0.2643   XZ=             -5.8929   YZ=              1.7934

  Exact polarizability:  81.441   0.565  71.656  -3.254   1.631  66.864
 Approx polarizability: 108.876  -1.593 106.063  -1.263   1.430 107.578

                      1                      2                      3
                      A                      A                      A
 Frequencies --    201.2070               234.8457               249.6052
 Red. masses --      1.0326                 2.8364                 2.4354
 Frc consts  --      0.0246                 0.0922                 0.0894
 IR Inten    --      0.2663                 7.6396                 6.8779

                      4                      5                      6
                      A                      A                      A
 Frequencies --    292.1178               342.1684               371.1860
 Red. masses --      1.4858                 1.9603                 3.5371
 Frc consts  --      0.0747                 0.1352                 0.2871
 IR Inten    --     42.1997                38.6303                13.7581

                      7                      8                      9
                      A                      A                      A
 Frequencies --    436.4392               471.5630               553.6631
 Red. masses --      1.8306                 2.0918                 4.5287
 Frc consts  --      0.2054                 0.2741                 0.8179
 IR Inten    --      1.3801                 2.3727                 3.8938

                     10                     11                     12
                      A                      A                      A
 Frequencies --    558.5067               640.9638               672.6746
 Red. masses --      4.3628                 3.9320                 4.7030
 Frc consts  --      0.8018                 0.9518                 1.2538
 IR Inten    --      7.5126                 0.9450                 2.8489

                     13                     14                     15
                      A                      A                      A
 Frequencies --    734.0412               797.7571               852.8671
 Red. masses --      3.6176                 3.5444                 2.9654
 Frc consts  --      1.1485                 1.3290                 1.2708
 IR Inten    --      4.9534                 1.8833                33.3924

                     16                     17                     18
                      A                      A                      A
 Frequencies --    872.1743               881.8914               919.5159
 Red. masses --      1.7994                 1.7781                 2.1753
 Frc consts  --      0.8065                 0.8148                 1.0836
 IR Inten    --      1.6042                 5.8102                10.2420

                     19                     20                     21
                      A                      A                      A
 Frequencies --    959.5497               975.0424               992.1786
 Red. masses --      2.4356                 1.5996                 1.3903
 Frc consts  --      1.3212                 0.8960                 0.8064
 IR Inten    --      3.7874                 2.2626                 0.3121

                     22                     23                     24
                      A                      A                      A
 Frequencies --   1003.7546              1045.4971              1066.0714
 Red. masses --      1.8238                 1.5798                 3.3430
 Frc consts  --      1.0827                 1.0174                 2.2385
 IR Inten    --      2.9816                13.0056                48.9647

                     25                     26                     27
                      A                      A                      A
 Frequencies --   1101.8559              1129.4041              1157.5718
 Red. masses --      1.5775                 1.5411                 1.9662
 Frc consts  --      1.1284                 1.1582                 1.5523
 IR Inten    --     39.0060                 2.0707                 8.9142

                     28                     29                     30
                      A                      A                      A
 Frequencies --   1175.4131              1197.5079              1220.4365
 Red. masses --      1.9315                 1.4404                 1.8254
 Frc consts  --      1.5723                 1.2170                 1.6019
 IR Inten    --      6.2410                 1.5195                 9.7951

                     31                     32                     33
                      A                      A                      A
 Frequencies --   1243.1669              1289.7870              1305.4041
 Red. masses --      2.2617                 1.9237                 2.7419
 Frc consts  --      2.0594                 1.8854                 2.7529
 IR Inten    --     33.4087                 3.8972                49.0625

                     34                     35                     36
                      A                      A                      A
 Frequencies --   1323.4393              1354.4395              1416.6821
 Red. masses --      1.5112                 2.3021                 1.5813
 Frc consts  --      1.5595                 2.4882                 1.8699
 IR Inten    --     91.6108                10.0431                15.7786

                     37                     38                     39
                      A                      A                      A
 Frequencies --   1442.0928              1476.2506              1483.1826
 Red. masses --      2.4134                 1.1445                 1.0523
 Frc consts  --      2.9571                 1.4696                 1.3638
 IR Inten    --     12.4873                 1.2505                 2.9331

                     40                     41                     42
                      A                      A                      A
 Frequencies --   1495.9280              1499.8257              3042.1288
 Red. masses --      1.0514                 1.2076                 1.0373
 Frc consts  --      1.3862                 1.6005                 5.6559
 IR Inten    --      2.8133                 2.5793                13.7664

                     43                     44                     45
                      A                      A                      A
 Frequencies --   3046.3561              3055.4649              3102.2179
 Red. masses --      1.0567                 1.0579                 1.1063
 Frc consts  --      5.7780                 5.8189                 6.2731
 IR Inten    --     37.7442                24.8627                 6.6028

                     46                     47                     48
                      A                      A                      A
 Frequencies --   3106.4446              3115.3145              3118.1568
 Red. masses --      1.1061                 1.1018                 1.1014
 Frc consts  --      6.2887                 6.3001                 6.3096
 IR Inten    --     20.9859                19.5619                24.4631

                     49                     50                     51
                      A                      A                      A
 Frequencies --   3212.4249              3221.9677              3788.9946
 Red. masses --      1.0913                 1.0961                 1.0660
 Frc consts  --      6.6355                 6.7042                 9.0168
 IR Inten    --      3.9056                12.1516                18.4750

 - Thermochemistry -
 -------------------
 Temperature   298.150 Kelvin.  Pressure   1.00000 Atm.
 Atom     1 has atomic number  6 and mass  12.00000

 Molecular mass:   126.06808 amu.
 Principal axes and moments of inertia in atomic units:
                           1         2         3
     Eigenvalues --   536.544621208.882821278.99667
           X            0.99952   0.02099  -0.02287
           Y           -0.01886   0.99579   0.08971
           Z            0.02466  -0.08923   0.99571
 This molecule is an asymmetric top.
 Rotational symmetry number  1.
 Warning -- assumption of classical behavior for rotation
           may cause significant error
 Rotational temperatures (Kelvin)      0.16143     0.07165     0.06772
 Rotational constants (GHZ):           3.36364     1.49290     1.41106
 Zero-point vibrational energy     420171.2 (Joules/Mol)
                                  100.42333 (Kcal/Mol)
 Warning -- explicit consideration of  10 degrees of freedom as
           vibrations may cause significant error
 Vibrational temperatures:    289.49   337.89   359.13   420.29   492.30
          (Kelvin)            534.05   627.94   678.47   796.60   803.57
                              922.20   967.83  1056.12  1147.79  1227.08
                             1254.86  1268.84  1322.98  1380.58  1402.87
                             1427.52  1444.18  1504.24  1533.84  1585.32
                             1624.96  1665.49  1691.16  1722.94  1755.93
                             1788.64  1855.71  1878.18  1904.13  1948.73
                             2038.29  2074.85  2123.99  2133.97  2152.30
                             2157.91  4376.94  4383.02  4396.13  4463.39
                             4469.48  4482.24  4486.33  4621.96  4635.69
                             5451.51

 Zero-point correction=                           0.160035 (Hartree/Particle)
 Thermal correction to Energy=                    0.167552
 Thermal correction to Enthalpy=                  0.168496
 Thermal correction to Gibbs Free Energy=         0.128797
 Sum of electronic and zero-point Energies=           -423.026789
 Sum of electronic and thermal Energies=              -423.019272
 Sum of electronic and thermal Enthalpies=            -423.018328
 Sum of electronic and thermal Free Energies=         -423.058027

                     E (Thermal)             CV                S
                      KCal/Mol        Cal/Mol-Kelvin    Cal/Mol-Kelvin
 Total                  105.140             31.331             83.553
 Electronic               0.000              0.000              0.000
 Translational            0.889              2.981             40.409
 Rotational               0.889              2.981             28.208
 Vibrational            103.363             25.370             14.937
 Vibration     1          0.638              1.838              2.122
 Vibration     2          0.655              1.788              1.842
 Vibration     3          0.662              1.763              1.733
 Vibration     4          0.687              1.688              1.462
 Vibration     5          0.721              1.591              1.202
 Vibration     6          0.743              1.531              1.075
 Vibration     7          0.797              1.391              0.838
 Vibration     8          0.829              1.313              0.733
 Vibration     9          0.909              1.132              0.537
 Vibration    10          0.914              1.121              0.527

 Optimization completed.
    -- Stationary point found.
 Normal termination of Gaussian 09 at Mon Jan 27 18:49:06 2020.
