 Gaussian 09, Revision D.01,
 Gaussian 09:  ES64L-G09RevD.01 24-Apr-2013

 -----------------------------
 # b3lyp 6-31G(2df,p) opt Freq
 -----------------------------

 -----
 titel
 -----
 Symbolic Z-matrix:
 Charge =  0 Multiplicity = 1

 SCF Done:  E(RB3LYP) =  -423.167436442     A.U. after   13 cycles
 Optimization completed.
    -- Stationary point found.
 Normal termination of Gaussian 09 at Mon Jan 27 18:12:16 2020.

 ----------------------------------------------------------------------
 #N Geom=AllCheck Guess=TCheck SCRF=Check GenChk RB3LYP/6-31G(2df,p) Fr
 eq
 ----------------------------------------------------------------------

 Structure from the checkpoint file:  "/scratch/puck/g09_ee7228e9-9bdd-4d4a-b670-97233cb59efa/Gau-53141.chk"
 -----
 titel
 -----
 Charge =  0 Multiplicity = 1

                         Standard orientation:
 ---------------------------------------------------------------------
 Center     Atomic      Atomic             Coordinates (Angstroms)
 Number     Number       Type             X           Y           Z
 ---------------------------------------------------------------------
      1          8           0       -2.256895    0.095917    0.569023
      2          6           0       -0.967585    0.046189   -0.000407
      3          6           0       -0.658386   -1.237643   -0.847004
      4          6           0        0.586038   -1.486343    0.024102
      5          8           0        1.713840   -0.678923   -0.386860
      6          6           0        1.382420    0.374373    0.563519
      7          6           0        0.933279    1.660196   -0.125579
      8          6           0       -0.507660    1.386844   -0.634806
      9          6           0        0.131226   -0.391792    1.020294
     10          1           0       -2.889889    0.263978   -0.137728
     11          1           0       -1.428006   -1.993228   -0.660177
     12          1           0       -0.490576   -1.126687   -1.921751
     13          1           0        0.876808   -2.509275    0.271684
     14          1           0        2.197880    0.515645    1.280978
     15          1           0        0.936046    2.477335    0.604542
     16          1           0        1.628939    1.934134   -0.923612
     17          1           0       -1.191090    2.176345   -0.309301
     18          1           0       -0.553355    1.342684   -1.726930
     19          1           0       -0.138309   -0.527829    2.064285
 ---------------------------------------------------------------------

 SCF Done:  E(RB3LYP) =  -423.167436442     A.U. after    1 cycles

 The electronic state is 1-A.
 Alpha  occ. eigenvalues --  -19.13916 -19.12693 -10.23721 -10.22924 -10.22895
 Alpha  occ. eigenvalues --  -10.18191 -10.18067 -10.17930 -10.17593  -1.03757
 Alpha  occ. eigenvalues --   -1.02052  -0.82679  -0.77673  -0.70063  -0.65388
 Alpha  occ. eigenvalues --   -0.62135  -0.57100  -0.53192  -0.50671  -0.48058
 Alpha  occ. eigenvalues --   -0.45350  -0.44853  -0.44105  -0.42588  -0.40119
 Alpha  occ. eigenvalues --   -0.38056  -0.35779  -0.34401  -0.32989  -0.31521
 Alpha  occ. eigenvalues --   -0.29433  -0.28501  -0.25891  -0.24168
 Alpha virt. eigenvalues --    0.06548   0.08754   0.09161   0.11490   0.12748
 Alpha virt. eigenvalues --    0.13154   0.14306   0.15336   0.16818   0.17516
 Alpha virt. eigenvalues --    0.18363   0.19305   0.20229   0.21269   0.21922

 Mulliken charges:
               1
     1  O   -0.492614
     2  C    0.424623
     3  C   -0.308750
     4  C    0.122337
     5  O   -0.322194
     6  C    0.125361
     7  C   -0.225584
     8  C   -0.287517
     9  C   -0.157037
    10  H    0.275408
    11  H    0.102542
    12  H    0.097125
    13  H    0.076519
    14  H    0.071857
    15  H    0.102126
    16  H    0.112080
    17  H    0.101848
    18  H    0.100338
    19  H    0.081533
 Sum of Mulliken charges =   0.00000

 Dipole moment (field-independent basis, Debye):
    X=             -1.1485    Y=              0.6256    Z=             -0.3038  Tot=              1.3427
 Quadrupole moment (field-independent basis, Debye-Ang):
   XX=            -54.4985   YY=            -51.1076   ZZ=            -52.8832
   XY=              1.3153   XZ=              5.8045   YZ=             -0.6943

  Exact polarizability:  75.963   2.166  77.645   3.722   0.717  66.501
 Approx polarizability: 108.902   1.419 107.280   0.931   2.501 103.149

                      1                      2                      3
                      A                      A                      A
 Frequencies --     57.7890               248.3081               267.9907
 Red. masses --      2.1186                 1.2822                 2.4208
 Frc consts  --      0.0042                 0.0466                 0.1024
 IR Inten    --      0.8180                57.2921                18.9168

                      4                      5                      6
                      A                      A                      A
 Frequencies --    313.1025               353.3622               399.7278
 Red. masses --      2.3552                 3.9115                 2.8016
 Frc consts  --      0.1360                 0.2878                 0.2637
 IR Inten    --     23.2207                 0.9514                 8.8170

                      7                      8                      9
                      A                      A                      A
 Frequencies --    426.6685               561.0174               637.8702
 Red. masses --      2.6588                 3.8466                 3.9788
 Frc consts  --      0.2852                 0.7133                 0.9538
 IR Inten    --     12.8328                 0.4145                 0.7450

                     10                     11                     12
                      A                      A                      A
 Frequencies --    668.1511               772.5940               782.0151
 Red. masses --      3.7955                 3.4995                 1.6268
 Frc consts  --      0.9983                 1.2307                 0.5862
 IR Inten    --      2.2650                 0.2934                 3.9147

                     13                     14                     15
                      A                      A                      A
 Frequencies --    829.9424               856.2493               863.6256
 Red. masses --      2.1911                 1.6350                 2.7168
 Frc consts  --      0.8892                 0.7063                 1.1939
 IR Inten    --      6.5907                 7.0170                 4.5722

                     16                     17                     18
                      A                      A                      A
 Frequencies --    901.4549               931.6198               939.4661
 Red. masses --      2.4735                 2.2535                 1.9317
 Frc consts  --      1.1843                 1.1524                 1.0045
 IR Inten    --     11.2203                 3.7880                 1.1357

                     19                     20                     21
                      A                      A                      A
 Frequencies --    973.5093               985.1162               993.2420
 Red. masses --      3.1849                 2.2407                 2.9881
 Frc consts  --      1.7784                 1.2812                 1.7368
 IR Inten    --      5.2249                 7.0325                81.6424

                     22                     23                     24
                      A                      A                      A
 Frequencies --   1043.9365              1055.1265              1097.2181
 Red. masses --      1.7315                 2.7383                 1.9091
 Frc consts  --      1.1118                 1.7962                 1.3541
 IR Inten    --      3.8119                48.3271                20.9161

                     25                     26                     27
                      A                      A                      A
 Frequencies --   1125.9897              1167.2357              1180.0330
 Red. masses --      1.7957                 1.8995                 1.9853
 Frc consts  --      1.3414                 1.5247                 1.6288
 IR Inten    --     37.4627                 1.1091                 9.7740

                     28                     29                     30
                      A                      A                      A
 Frequencies --   1199.8027              1220.7893              1238.5838
 Red. masses --      1.7789                 1.5423                 1.4593
 Frc consts  --      1.5087                 1.3543                 1.3190
 IR Inten    --     18.6042                 0.5745                 9.5227

                     31                     32                     33
                      A                      A                      A
 Frequencies --   1254.2396              1275.2447              1280.8953
 Red. masses --      1.9170                 1.3308                 1.3821
 Frc consts  --      1.7768                 1.2751                 1.3360
 IR Inten    --     11.0287                28.8309                33.4797

                     34                     35                     36
                      A                      A                      A
 Frequencies --   1304.7327              1313.8406              1339.9781
 Red. masses --      1.8546                 1.3579                 1.6254
 Frc consts  --      1.8602                 1.3810                 1.7195
 IR Inten    --      8.0173                13.7442                20.6870

                     37                     38                     39
                      A                      A                      A
 Frequencies --   1356.6394              1386.5474              1452.7635
 Red. masses --      1.3998                 1.7232                 1.1226
 Frc consts  --      1.5179                 1.9519                 1.3959
 IR Inten    --      0.5848                 5.5584                 2.3772

                     40                     41                     42
                      A                      A                      A
 Frequencies --   1470.9647              1496.6726              3037.6770
 Red. masses --      1.0826                 1.0955                 1.0719
 Frc consts  --      1.3802                 1.4458                 5.8276
 IR Inten    --      1.6680                 3.1646                 6.7119

                     43                     44                     45
                      A                      A                      A
 Frequencies --   3046.1303              3049.2587              3056.4193
 Red. masses --      1.0575                 1.0680                 1.0710
 Frc consts  --      5.7812                 5.8506                 5.8946
 IR Inten    --     11.0202                89.5911                37.2107

                     46                     47                     48
                      A                      A                      A
 Frequencies --   3085.9465              3086.9427              3104.3679
 Red. masses --      1.0899                 1.1012                 1.1042
 Frc consts  --      6.1154                 6.1828                 6.2699
 IR Inten    --     62.0553                 4.1273                24.3256

                     49                     50                     51
                      A                      A                      A
 Frequencies --   3112.3067              3153.5029              3799.3715
 Red. masses --      1.1081                 1.0923                 1.0659
 Frc consts  --      6.3241                 6.3998                 9.0659
 IR Inten    --     27.4951                16.0722                17.7094

 - Thermochemistry -
 -------------------
 Temperature   298.150 Kelvin.  Pressure   1.00000 Atm.
 Atom     1 has atomic number  8 and mass  15.99491

 Molecular mass:   126.06808 amu.
 Principal axes and moments of inertia in atomic units:
                           1         2         3
     Eigenvalues --   687.41079 927.026041244.20421
           X            0.99782   0.05627   0.03445
           Y           -0.05598   0.99839  -0.00941
           Z           -0.03493   0.00746   0.99936
 This molecule is an asymmetric top.
 Rotational symmetry number  1.
 Warning -- assumption of classical behavior for rotation
           may cause significant error
 Rotational temperatures (Kelvin)      0.12600     0.09343     0.06961
 Rotational constants (GHZ):           2.62542     1.94681     1.45052
 Zero-point vibrational energy     422018.5 (Joules/Mol)
                                  100.86484 (Kcal/Mol)
 Warning -- explicit consideration of   8 degrees of freedom as
           vibrations may cause significant error
 Vibrational temperatures:     83.15   357.26   385.58   450.48   508.41
          (Kelvin)            575.12   613.88   807.18   917.75   961.32
                             1111.59  1125.14  1194.10  1231.95  1242.56
                             1296.99  1340.39  1351.68  1400.66  1417.36
                             1429.05  1501.99  1518.09  1578.65  1620.05
                             1679.39  1697.80  1726.25  1756.44  1782.04
                             1804.57  1834.79  1842.92  1877.22  1890.32
                             1927.93  1951.90  1994.93  2090.20  2116.39
                             2153.38  4370.53  4382.70  4387.20  4397.50
                             4439.98  4441.42  4466.49  4477.91  4537.18
                             5466.44

 Zero-point correction=                           0.160738 (Hartree/Particle)
 Thermal correction to Energy=                    0.168071
 Thermal correction to Enthalpy=                  0.169016
 Thermal correction to Gibbs Free Energy=         0.128907
 Sum of electronic and zero-point Energies=           -423.006698
 Sum of electronic and thermal Energies=              -422.999365
 Sum of electronic and thermal Enthalpies=            -422.998421
 Sum of electronic and thermal Free Energies=         -423.038529

                     E (Thermal)             CV                S
                      KCal/Mol        Cal/Mol-Kelvin    Cal/Mol-Kelvin
 Total                  105.466             29.783             84.415
 Electronic               0.000              0.000              0.000
 Translational            0.889              2.981             40.409
 Rotational               0.889              2.981             28.163
 Vibrational            103.689             23.821             15.844
 Vibration     1          0.596              1.974              4.531
 Vibration     2          0.662              1.766              1.743
 Vibration     3          0.673              1.732              1.609
 Vibration     4          0.701              1.649              1.346
 Vibration     5          0.730              1.568              1.151
 Vibration     6          0.766              1.471              0.964
 Vibration     7          0.788              1.412              0.870
 Vibration     8          0.917              1.116              0.522

 Normal termination of Gaussian 09 at Mon Jan 27 19:00:13 2020.
