 Gaussian 09, Revision D.01,
 Gaussian 09:  ES64L-G09RevD.01 24-Apr-2013

 -----------------------------
 # b3lyp 6-31G(2df,p) opt Freq
 -----------------------------

 -----
 titel
 -----
 Symbolic Z-matrix:
 Charge =  0 Multiplicity = 1

 SCF Done:  E(RB3LYP) =  -423.171358336     A.U. after   14 cycles
 Optimization completed.
    -- Stationary point found.
 Normal termination of Gaussian 09 at Tue Jan 28 02:43:30 2020.

 ----------------------------------------------------------------------
 #N Geom=AllCheck Guess=TCheck SCRF=Check GenChk RB3LYP/6-31G(2df,p) Fr
 eq
 ----------------------------------------------------------------------

 Structure from the checkpoint file:  "/scratch/puck/g09_a93211d2-2e7e-48d9-8c06-5d63ada598f8/Gau-172443.chk"
 -----
 titel
 -----
 Charge =  0 Multiplicity = 1

                         Standard orientation:
 ---------------------------------------------------------------------
 Center     Atomic      Atomic             Coordinates (Angstroms)
 Number     Number       Type             X           Y           Z
 ---------------------------------------------------------------------
      1          6           0       -2.617671   -0.789862    0.140118
      2          6           0       -1.296600   -0.513081   -0.563770
      3          6           0       -0.066928   -1.436727   -0.236590
      4          6           0        0.691291   -0.201722    0.241294
      5          8           0       -0.090055    0.422264    1.279870
      6          6           0       -0.474800    0.697625   -0.059250
      7          6           0       -0.571536    2.123336   -0.499645
      8          6           0        2.127500    0.110278    0.177239
      9          8           0        2.941186   -0.591849   -0.374888
     10          1           0       -2.474899   -0.808317    1.224258
     11          1           0       -3.364558   -0.023705   -0.094946
     12          1           0       -3.026700   -1.757636   -0.167640
     13          1           0       -1.437559   -0.443801   -1.647122
     14          1           0       -0.223004   -2.197784    0.531469
     15          1           0        0.383186   -1.890965   -1.120305
     16          1           0        0.236860    2.721794   -0.073436
     17          1           0       -0.530700    2.195952   -1.590609
     18          1           0       -1.523338    2.555600   -0.169701
     19          1           0        2.404130    1.066461    0.671800
 ---------------------------------------------------------------------

 SCF Done:  E(RB3LYP) =  -423.171358336     A.U. after    1 cycles

 The electronic state is 1-A.
 Alpha  occ. eigenvalues --  -19.16891 -19.13965 -10.27287 -10.25986 -10.24790
 Alpha  occ. eigenvalues --  -10.20493 -10.19965 -10.19458 -10.18159  -1.09620
 Alpha  occ. eigenvalues --   -1.04499  -0.82268  -0.75765  -0.73368  -0.68167
 Alpha  occ. eigenvalues --   -0.62955  -0.57535  -0.52757  -0.50842  -0.49046
 Alpha  occ. eigenvalues --   -0.45231  -0.44947  -0.43107  -0.42879  -0.41109
 Alpha  occ. eigenvalues --   -0.40620  -0.39062  -0.38432  -0.35387  -0.34562
 Alpha  occ. eigenvalues --   -0.33346  -0.30217  -0.26263  -0.25449
 Alpha virt. eigenvalues --   -0.03686   0.08040   0.09775   0.10408   0.12280
 Alpha virt. eigenvalues --    0.12500   0.13614   0.14264   0.15453   0.15910
 Alpha virt. eigenvalues --    0.16474   0.18146   0.18564   0.19781   0.20011

 Mulliken charges:
               1
     1  C   -0.410775
     2  C   -0.028416
     3  C   -0.325932
     4  C    0.254785
     5  O   -0.307299
     6  C    0.325676
     7  C   -0.500294
     8  C    0.061748
     9  O   -0.262624
    10  H    0.134809
    11  H    0.115648
    12  H    0.120494
    13  H    0.082484
    14  H    0.114127
    15  H    0.129526
    16  H    0.139788
    17  H    0.134336
    18  H    0.139002
    19  H    0.082919
 Sum of Mulliken charges =   0.00000

 Dipole moment (field-independent basis, Debye):
    X=             -2.6071    Y=              1.1964    Z=             -0.9280  Tot=              3.0149
 Quadrupole moment (field-independent basis, Debye-Ang):
   XX=            -60.3880   YY=            -50.4898   ZZ=            -54.6287
   XY=              3.1149   XZ=              3.3325   YZ=             -1.4221

  Exact polarizability:  94.925  -3.237  78.557   0.266   2.133  61.603
 Approx polarizability: 133.845 -15.068 112.430  -4.074   7.396 102.679

                      1                      2                      3
                      A                      A                      A
 Frequencies --     96.1219               135.9844               163.1212
 Red. masses --      4.6858                 3.0986                 2.9779
 Frc consts  --      0.0255                 0.0338                 0.0467
 IR Inten    --      3.3981                 0.9976                 6.2537

                      4                      5                      6
                      A                      A                      A
 Frequencies --    183.6837               208.4507               228.3773
 Red. masses --      1.1413                 2.3303                 1.0528
 Frc consts  --      0.0227                 0.0597                 0.0324
 IR Inten    --      0.6172                 3.3560                 0.1217

                      7                      8                      9
                      A                      A                      A
 Frequencies --    278.1770               306.0450               388.2492
 Red. masses --      2.9020                 2.2341                 2.4714
 Frc consts  --      0.1323                 0.1233                 0.2195
 IR Inten    --      4.0726                 3.2707                 3.2900

                     10                     11                     12
                      A                      A                      A
 Frequencies --    464.9824               490.6240               587.8396
 Red. masses --      2.7558                 8.1353                 3.5444
 Frc consts  --      0.3510                 1.1538                 0.7216
 IR Inten    --     12.8062                 2.7437                 3.6747

                     13                     14                     15
                      A                      A                      A
 Frequencies --    618.7458               702.2064               770.2092
 Red. masses --      3.8889                 3.7778                 3.5478
 Frc consts  --      0.8772                 1.0975                 1.2400
 IR Inten    --     14.3972                 2.4751                12.9972

                     16                     17                     18
                      A                      A                      A
 Frequencies --    794.0970               835.0579               891.2667
 Red. masses --      3.0305                 3.5357                 2.2798
 Frc consts  --      1.1259                 1.4527                 1.0670
 IR Inten    --      6.6067                25.2175                11.9621

                     19                     20                     21
                      A                      A                      A
 Frequencies --    916.3042              1003.6008              1027.2915
 Red. masses --      1.4534                 1.4250                 1.6328
 Frc consts  --      0.7190                 0.8457                 1.0152
 IR Inten    --      4.5406                 0.2130                 4.8560

                     22                     23                     24
                      A                      A                      A
 Frequencies --   1069.4514              1082.9469              1105.7714
 Red. masses --      1.7967                 2.3495                 1.9405
 Frc consts  --      1.2107                 1.6234                 1.3980
 IR Inten    --      2.1118                 9.5227                21.9360

                     25                     26                     27
                      A                      A                      A
 Frequencies --   1119.4121              1182.2750              1206.6589
 Red. masses --      1.7874                 1.7131                 2.0353
 Frc consts  --      1.3196                 1.4108                 1.7460
 IR Inten    --      2.8240                13.5095                15.4109

                     28                     29                     30
                      A                      A                      A
 Frequencies --   1226.5126              1248.9844              1320.0765
 Red. masses --      1.4230                 2.2754                 3.2396
 Frc consts  --      1.2613                 2.0913                 3.3261
 IR Inten    --      1.8221                10.5792                 9.3379

                     31                     32                     33
                      A                      A                      A
 Frequencies --   1348.0530              1390.2656              1405.8051
 Red. masses --      1.7636                 1.3474                 1.2510
 Frc consts  --      1.8883                 1.5344                 1.4566
 IR Inten    --      5.0264                 7.7353                 2.8930

                     34                     35                     36
                      A                      A                      A
 Frequencies --   1407.8602              1455.9050              1478.2530
 Red. masses --      1.2917                 1.8153                 1.0907
 Frc consts  --      1.5085                 2.2671                 1.4043
 IR Inten    --     12.4484                25.4866                 8.5341

                     37                     38                     39
                      A                      A                      A
 Frequencies --   1482.0617              1493.6250              1496.6447
 Red. masses --      1.1909                 1.0782                 1.2324
 Frc consts  --      1.5412                 1.4171                 1.6265
 IR Inten    --     15.6118                 2.7016                 5.5716

                     40                     41                     42
                      A                      A                      A
 Frequencies --   1503.7136              1801.3514              2900.5452
 Red. masses --      1.0618                10.5140                 1.0835
 Frc consts  --      1.4145                20.1009                 5.3707
 IR Inten    --      5.0664               237.2595                87.6992

                     43                     44                     45
                      A                      A                      A
 Frequencies --   3033.8675              3036.9536              3058.1859
 Red. masses --      1.0361                 1.0378                 1.0846
 Frc consts  --      5.6186                 5.6396                 5.9762
 IR Inten    --     22.7386                18.6754                17.1330

                     46                     47                     48
                      A                      A                      A
 Frequencies --   3075.4568              3097.7146              3100.3109
 Red. masses --      1.0602                 1.1004                 1.0984
 Frc consts  --      5.9085                 6.2214                 6.2202
 IR Inten    --     17.2522                21.7419                12.6107

                     49                     50                     51
                      A                      A                      A
 Frequencies --   3117.9082              3129.9495              3139.7851
 Red. masses --      1.1013                 1.1014                 1.1063
 Frc consts  --      6.3076                 6.3575                 6.4256
 IR Inten    --     16.7580                10.7954                11.9965

 - Thermochemistry -
 -------------------
 Temperature   298.150 Kelvin.  Pressure   1.00000 Atm.
 Atom     1 has atomic number  6 and mass  12.00000

 Molecular mass:   126.06808 amu.
 Principal axes and moments of inertia in atomic units:
                           1         2         3
     Eigenvalues --   652.985051395.290151719.55519
           X            0.99957   0.02818   0.00778
           Y           -0.02797   0.99927  -0.02618
           Z           -0.00851   0.02595   0.99963
 This molecule is an asymmetric top.
 Rotational symmetry number  1.
 Warning -- assumption of classical behavior for rotation
           may cause significant error
 Rotational temperatures (Kelvin)      0.13264     0.06208     0.05037
 Rotational constants (GHZ):           2.76383     1.29345     1.04954
 Zero-point vibrational energy     410359.4 (Joules/Mol)
                                   98.07826 (Kcal/Mol)
 Warning -- explicit consideration of  13 degrees of freedom as
           vibrations may cause significant error
 Vibrational temperatures:    138.30   195.65   234.69   264.28   299.91
          (Kelvin)            328.58   400.23   440.33   558.60   669.01
                              705.90   845.77   890.24  1010.32  1108.16
                             1142.53  1201.46  1282.33  1318.36  1443.96
                             1478.04  1538.70  1558.12  1590.96  1610.58
                             1701.03  1736.11  1764.68  1797.01  1899.29
                             1939.55  2000.28  2022.64  2025.59  2094.72
                             2126.87  2132.35  2148.99  2153.34  2163.51
                             2591.74  4173.23  4365.05  4369.49  4400.04
                             4424.89  4456.91  4460.65  4485.97  4503.29
                             4517.44

 Zero-point correction=                           0.156298 (Hartree/Particle)
 Thermal correction to Energy=                    0.165558
 Thermal correction to Enthalpy=                  0.166502
 Thermal correction to Gibbs Free Energy=         0.122494
 Sum of electronic and zero-point Energies=           -423.015061
 Sum of electronic and thermal Energies=              -423.005800
 Sum of electronic and thermal Enthalpies=            -423.004856
 Sum of electronic and thermal Free Energies=         -423.048864

                     E (Thermal)             CV                S
                      KCal/Mol        Cal/Mol-Kelvin    Cal/Mol-Kelvin
 Total                  103.889             34.223             92.623
 Electronic               0.000              0.000              0.000
 Translational            0.889              2.981             40.409
 Rotational               0.889              2.981             28.840
 Vibrational            102.112             28.261             23.374
 Vibration     1          0.603              1.952              3.531
 Vibration     2          0.614              1.917              2.860
 Vibration     3          0.623              1.888              2.513
 Vibration     4          0.631              1.862              2.291
 Vibration     5          0.642              1.828              2.057
 Vibration     6          0.651              1.798              1.892
 Vibration     7          0.679              1.714              1.545
 Vibration     8          0.696              1.662              1.384
 Vibration     9          0.756              1.495              1.007
 Vibration    10          0.822              1.328              0.752
 Vibration    11          0.846              1.271              0.682
 Vibration    12          0.945              1.058              0.471
 Vibration    13          0.979              0.992              0.419

 Optimization completed.
    -- Stationary point found.
 Normal termination of Gaussian 09 at Tue Jan 28 03:17:13 2020.
