 Gaussian 09, Revision D.01,
 Gaussian 09:  ES64L-G09RevD.01 24-Apr-2013

 -----------------------------
 # b3lyp 6-31G(2df,p) opt Freq
 -----------------------------

 -----
 titel
 -----
 Symbolic Z-matrix:
 Charge =  0 Multiplicity = 1

 SCF Done:  E(RB3LYP) =  -423.134972929     A.U. after   12 cycles
 Optimization completed.
    -- Stationary point found.
 Normal termination of Gaussian 09 at Mon Jan 27 22:06:37 2020.

 ----------------------------------------------------------------------
 #N Geom=AllCheck Guess=TCheck SCRF=Check GenChk RB3LYP/6-31G(2df,p) Fr
 eq
 ----------------------------------------------------------------------

 Structure from the checkpoint file:  "/scratch/puck/g09_ec1b6870-fbb6-40ad-8125-73e7d0aae7ed/Gau-85631.chk"
 -----
 titel
 -----
 Charge =  0 Multiplicity = 1

                         Standard orientation:
 ---------------------------------------------------------------------
 Center     Atomic      Atomic             Coordinates (Angstroms)
 Number     Number       Type             X           Y           Z
 ---------------------------------------------------------------------
      1          8           0       -1.591111    1.617636    0.014681
      2          6           0       -0.301192    1.071805    0.009866
      3          6           0       -0.009606   -0.060068   -1.031679
      4          6           0        1.453332   -0.448365   -0.768242
      5          6           0        2.369654    0.465965    0.005614
      6          6           0        1.453215   -0.460470    0.766607
      7          6           0       -0.008555   -0.075611    1.034526
      8          6           0       -0.695800   -1.037342   -0.015173
      9          8           0       -2.115096   -1.014807   -0.095599
     10          1           0       -2.212137    0.877556   -0.042318
     11          1           0        0.371086    1.928261    0.018089
     12          1           0       -0.352242    0.017738   -2.063638
     13          1           0        1.882654   -1.256488   -1.349643
     14          1           0        3.411411    0.160059    0.002723
     15          1           0        2.247562    1.541735    0.014423
     16          1           0        1.884262   -1.277920    1.333854
     17          1           0       -0.349045   -0.009102    2.069299
     18          1           0       -0.333288   -2.073341   -0.023333
     19          1           0       -2.466894   -1.466614    0.678772
 ---------------------------------------------------------------------

 SCF Done:  E(RB3LYP) =  -423.134972929     A.U. after    1 cycles

 The electronic state is 1-A.
 Alpha  occ. eigenvalues --  -19.15997 -19.11635 -10.24051 -10.22499 -10.19280
 Alpha  occ. eigenvalues --  -10.19247 -10.19019 -10.18979 -10.18864  -1.04359
 Alpha  occ. eigenvalues --   -1.00231  -0.90329  -0.78939  -0.68448  -0.65366
 Alpha  occ. eigenvalues --   -0.61041  -0.55874  -0.54573  -0.52279  -0.51461
 Alpha  occ. eigenvalues --   -0.49059  -0.44684  -0.42439  -0.40577  -0.38142
 Alpha  occ. eigenvalues --   -0.37820  -0.36545  -0.35637  -0.34060  -0.32116
 Alpha  occ. eigenvalues --   -0.28815  -0.27397  -0.25134  -0.23712
 Alpha virt. eigenvalues --    0.06294   0.09397   0.11162   0.11628   0.12890
 Alpha virt. eigenvalues --    0.13302   0.14169   0.14969   0.17402   0.17726
 Alpha virt. eigenvalues --    0.18705   0.19079   0.21598   0.21944   0.22659

 Mulliken charges:
               1
     1  O   -0.473294
     2  C    0.181863
     3  C   -0.107822
     4  C   -0.041776
     5  C   -0.314304
     6  C   -0.041314
     7  C   -0.141918
     8  C    0.137748
     9  O   -0.456577
    10  H    0.283067
    11  H    0.073881
    12  H    0.070879
    13  H    0.090163
    14  H    0.109778
    15  H    0.122856
    16  H    0.087732
    17  H    0.059959
    18  H    0.068287
    19  H    0.290791
 Sum of Mulliken charges =   0.00000

 Dipole moment (field-independent basis, Debye):
    X=              0.7979    Y=             -2.5351    Z=              1.0183  Tot=              2.8461
 Quadrupole moment (field-independent basis, Debye-Ang):
   XX=            -51.3774   YY=            -54.5285   ZZ=            -52.5694
   XY=              4.2732   XZ=             -3.1747   YZ=             -2.0869

  Exact polarizability:  85.741   1.649  70.043  -1.134  -0.864  65.991
 Approx polarizability: 118.110   2.482 107.019  -0.753  -1.223 105.955

                      1                      2                      3
                      A                      A                      A
 Frequencies --    246.0313               277.7381               299.0346
 Red. masses --      2.6819                 3.1627                 4.0981
 Frc consts  --      0.0956                 0.1437                 0.2159
 IR Inten    --     12.2604                 1.7026                 2.0777

                      4                      5                      6
                      A                      A                      A
 Frequencies --    317.5642               338.7900               390.2902
 Red. masses --      2.4437                 1.7670                 2.6958
 Frc consts  --      0.1452                 0.1195                 0.2419
 IR Inten    --     17.0002                57.5278                 3.4692

                      7                      8                      9
                      A                      A                      A
 Frequencies --    444.3457               503.9131               578.4532
 Red. masses --      5.2507                 3.5570                 4.0520
 Frc consts  --      0.6108                 0.5322                 0.7988
 IR Inten    --      5.6285                 0.4993                 4.7320

                     10                     11                     12
                      A                      A                      A
 Frequencies --    616.6846               617.5894               791.1818
 Red. masses --      3.7568                 1.1006                 2.1981
 Frc consts  --      0.8418                 0.2473                 0.8107
 IR Inten    --      4.8224                93.4137                 8.3977

                     13                     14                     15
                      A                      A                      A
 Frequencies --    796.9090               864.7648               873.9393
 Red. masses --      1.6882                 2.6187                 2.3733
 Frc consts  --      0.6317                 1.1538                 1.0680
 IR Inten    --     12.5872                 0.1128                 3.0769

                     16                     17                     18
                      A                      A                      A
 Frequencies --    882.2726               900.3041               913.1447
 Red. masses --      2.2783                 2.1345                 2.6507
 Frc consts  --      1.0449                 1.0194                 1.3022
 IR Inten    --      7.2500                 3.6447                 4.7536

                     19                     20                     21
                      A                      A                      A
 Frequencies --    929.7631              1017.2889              1025.0615
 Red. masses --      3.0519                 1.8610                 1.1483
 Frc consts  --      1.5544                 1.1347                 0.7109
 IR Inten    --     14.0635                 6.0368                 0.7305

                     22                     23                     24
                      A                      A                      A
 Frequencies --   1034.0272              1044.4572              1084.9889
 Red. masses --      1.9148                 2.7905                 1.4792
 Frc consts  --      1.2063                 1.7935                 1.0260
 IR Inten    --      6.8761                 5.5976                 1.8875

                     25                     26                     27
                      A                      A                      A
 Frequencies --   1089.0696              1096.5760              1104.5413
 Red. masses --      2.7071                 1.4854                 1.3792
 Frc consts  --      1.8918                 1.0524                 0.9914
 IR Inten    --     50.8782                18.8079                 5.4627

                     28                     29                     30
                      A                      A                      A
 Frequencies --   1150.5844              1175.1876              1198.9498
 Red. masses --      3.0298                 1.2580                 2.0325
 Frc consts  --      2.3632                 1.0236                 1.7214
 IR Inten    --    123.5582                 7.9488                29.1209

                     31                     32                     33
                      A                      A                      A
 Frequencies --   1217.3393              1232.7441              1234.5514
 Red. masses --      1.4791                 1.5131                 1.6358
 Frc consts  --      1.2914                 1.3547                 1.4689
 IR Inten    --      1.0098                24.0848                 6.9000

                     34                     35                     36
                      A                      A                      A
 Frequencies --   1262.2072              1294.5405              1327.7256
 Red. masses --      1.8037                 1.3163                 1.4513
 Frc consts  --      1.6931                 1.2996                 1.5074
 IR Inten    --     44.0966                41.1071                 7.4769

                     37                     38                     39
                      A                      A                      A
 Frequencies --   1349.3598              1369.2887              1422.3622
 Red. masses --      1.4793                 1.8699                 1.3463
 Frc consts  --      1.5870                 2.0657                 1.6048
 IR Inten    --      3.4707                 1.8927                 7.3194

                     40                     41                     42
                      A                      A                      A
 Frequencies --   1479.9470              1522.2301              3017.8503
 Red. masses --      1.2485                 1.1580                 1.0864
 Frc consts  --      1.6112                 1.5810                 5.8297
 IR Inten    --     43.0201                42.1110                60.6430

                     43                     44                     45
                      A                      A                      A
 Frequencies --   3100.4614              3113.2838              3119.6310
 Red. masses --      1.0880                 1.0835                 1.0895
 Frc consts  --      6.1622                 6.1876                 6.2472
 IR Inten    --     41.2170                30.2048                18.7107

                     46                     47                     48
                      A                      A                      A
 Frequencies --   3138.8864              3163.6750              3172.8326
 Red. masses --      1.0597                 1.0888                 1.0936
 Frc consts  --      6.1517                 6.4204                 6.4866
 IR Inten    --     32.2200                20.4374                16.5992

                     49                     50                     51
                      A                      A                      A
 Frequencies --   3215.1615              3720.6564              3811.7688
 Red. masses --      1.1123                 1.0647                 1.0661
 Frc consts  --      6.7743                 8.6836                 9.1263
 IR Inten    --     14.2762               116.2902                31.6679

 - Thermochemistry -
 -------------------
 Temperature   298.150 Kelvin.  Pressure   1.00000 Atm.
 Atom     1 has atomic number  8 and mass  15.99491

 Molecular mass:   126.06808 amu.
 Principal axes and moments of inertia in atomic units:
                           1         2         3
     Eigenvalues --   578.246011160.746241363.48820
           X            0.99988   0.01362  -0.00707
           Y           -0.01374   0.99975  -0.01772
           Z            0.00683   0.01781   0.99982
 This molecule is an asymmetric top.
 Rotational symmetry number  1.
 Warning -- assumption of classical behavior for rotation
           may cause significant error
 Rotational temperatures (Kelvin)      0.14979     0.07462     0.06352
 Rotational constants (GHZ):           3.12106     1.55481     1.32362
 Zero-point vibrational energy     424016.1 (Joules/Mol)
                                  101.34227 (Kcal/Mol)
 Warning -- explicit consideration of  11 degrees of freedom as
           vibrations may cause significant error
 Vibrational temperatures:    353.98   399.60   430.24   456.90   487.44
          (Kelvin)            561.54   639.31   725.02   832.26   887.27
                              888.57  1138.33  1146.57  1244.20  1257.40
                             1269.39  1295.34  1313.81  1337.72  1463.65
                             1474.83  1487.73  1502.74  1561.06  1566.93
                             1577.73  1589.19  1655.43  1690.83  1725.02
                             1751.48  1773.64  1776.24  1816.03  1862.55
                             1910.30  1941.43  1970.10  2046.46  2129.31
                             2190.15  4342.01  4460.87  4479.32  4488.45
                             4516.15  4551.82  4564.99  4625.89  5353.19
                             5484.28

 Zero-point correction=                           0.161499 (Hartree/Particle)
 Thermal correction to Energy=                    0.168645
 Thermal correction to Enthalpy=                  0.169589
 Thermal correction to Gibbs Free Energy=         0.130598
 Sum of electronic and zero-point Energies=           -422.973474
 Sum of electronic and thermal Energies=              -422.966328
 Sum of electronic and thermal Enthalpies=            -422.965384
 Sum of electronic and thermal Free Energies=         -423.004375

                     E (Thermal)             CV                S
                      KCal/Mol        Cal/Mol-Kelvin    Cal/Mol-Kelvin
 Total                  105.826             30.606             82.063
 Electronic               0.000              0.000              0.000
 Translational            0.889              2.981             40.409
 Rotational               0.889              2.981             28.306
 Vibrational            104.049             24.644             13.348
 Vibration     1          0.661              1.769              1.759
 Vibration     2          0.679              1.715              1.548
 Vibration     3          0.692              1.676              1.422
 Vibration     4          0.704              1.640              1.323
 Vibration     5          0.719              1.598              1.218
 Vibration     6          0.758              1.491              0.999
 Vibration     7          0.804              1.373              0.813
 Vibration     8          0.859              1.241              0.648
 Vibration     9          0.935              1.078              0.488
 Vibration    10          0.976              0.997              0.422
 Vibration    11          0.977              0.995              0.420

 Optimization completed.
    -- Stationary point found.
 Normal termination of Gaussian 09 at Mon Jan 27 23:11:15 2020.
