 Gaussian 09, Revision D.01,
 Gaussian 09:  ES64L-G09RevD.01 24-Apr-2013

 -----------------------------
 # b3lyp 6-31G(2df,p) opt Freq
 -----------------------------

 -----
 titel
 -----
 Symbolic Z-matrix:
 Charge =  0 Multiplicity = 1

 SCF Done:  E(RB3LYP) =  -423.191896068     A.U. after   13 cycles
 Optimization completed.
    -- Stationary point found.
 Normal termination of Gaussian 09 at Mon Jan 27 11:29:23 2020.

 ----------------------------------------------------------------------
 #N Geom=AllCheck Guess=TCheck SCRF=Check GenChk RB3LYP/6-31G(2df,p) Fr
 eq
 ----------------------------------------------------------------------

 Structure from the checkpoint file:  "/scratch/puck/g09_c9173107-8911-495e-b999-87156c2d2c75/Gau-61267.chk"
 -----
 titel
 -----
 Charge =  0 Multiplicity = 1

                         Standard orientation:
 ---------------------------------------------------------------------
 Center     Atomic      Atomic             Coordinates (Angstroms)
 Number     Number       Type             X           Y           Z
 ---------------------------------------------------------------------
      1          6           0       -1.273988   -1.213854   -0.443762
      2          6           0       -2.259575   -0.072076   -0.430052
      3          6           0       -1.765618    1.016319    0.162625
      4          6           0       -0.347943    0.791814    0.619544
      5          8           0        0.535116    1.374025   -0.345600
      6          6           0        1.857459    0.880860   -0.206644
      7          6           0        1.869333   -0.622889   -0.428523
      8          8           0        1.054592   -1.276215    0.533234
      9          6           0       -0.257285   -0.756257    0.633948
     10          1           0       -1.719865   -2.184477   -0.204966
     11          1           0       -0.801214   -1.314655   -1.429273
     12          1           0       -3.248685   -0.146184   -0.869323
     13          1           0       -2.268402    1.970171    0.266049
     14          1           0       -0.117127    1.217253    1.608480
     15          1           0        2.467411    1.394012   -0.956524
     16          1           0        2.258688    1.112302    0.794289
     17          1           0        1.525068   -0.839165   -1.452105
     18          1           0        2.875470   -1.036317   -0.307796
     19          1           0       -0.623310   -1.098920    1.607287
 ---------------------------------------------------------------------

 SCF Done:  E(RB3LYP) =  -423.191896068     A.U. after    1 cycles

 The electronic state is 1-A.
 Alpha  occ. eigenvalues --  -19.14032 -19.13697 -10.23035 -10.22974 -10.22609
 Alpha  occ. eigenvalues --  -10.22545 -10.18934 -10.18410 -10.18072  -1.04885
 Alpha  occ. eigenvalues --   -1.01249  -0.84210  -0.74823  -0.71101  -0.67435
 Alpha  occ. eigenvalues --   -0.63673  -0.54920  -0.54411  -0.51022  -0.49947
 Alpha  occ. eigenvalues --   -0.47816  -0.46496  -0.43191  -0.41291  -0.40899
 Alpha  occ. eigenvalues --   -0.37556  -0.36528  -0.35956  -0.35479  -0.35152
 Alpha  occ. eigenvalues --   -0.29129  -0.27187  -0.25514  -0.23163
 Alpha virt. eigenvalues --    0.00980   0.09388   0.10661   0.11421   0.12768
 Alpha virt. eigenvalues --    0.14034   0.15315   0.15999   0.16480   0.17279
 Alpha virt. eigenvalues --    0.18061   0.19653   0.20253   0.20464   0.22378

 Mulliken charges:
               1
     1  C   -0.297393
     2  C   -0.052476
     3  C   -0.088962
     4  C    0.052376
     5  O   -0.274910
     6  C   -0.077732
     7  C   -0.084235
     8  O   -0.272009
     9  C    0.113769
    10  H    0.107402
    11  H    0.118476
    12  H    0.098598
    13  H    0.099919
    14  H    0.065405
    15  H    0.106369
    16  H    0.090672
    17  H    0.095416
    18  H    0.106325
    19  H    0.092992
 Sum of Mulliken charges =   0.00000

 Dipole moment (field-independent basis, Debye):
    X=             -0.2098    Y=             -0.1009    Z=             -0.1259  Tot=              0.2647
 Quadrupole moment (field-independent basis, Debye-Ang):
   XX=            -47.8611   YY=            -56.0054   ZZ=            -52.9168
   XY=              1.5711   XZ=             -1.2259   YZ=              2.7063

  Exact polarizability:  89.393   2.732  75.054   1.181   6.028  63.437
 Approx polarizability: 116.717   5.439 116.283   3.549   9.759 101.471

                      1                      2                      3
                      A                      A                      A
 Frequencies --    127.4502               172.1431               274.4043
 Red. masses --      2.8402                 3.1921                 2.7777
 Frc consts  --      0.0272                 0.0557                 0.1232
 IR Inten    --      0.3683                 4.6342                 3.1581

                      4                      5                      6
                      A                      A                      A
 Frequencies --    331.4365               399.5486               424.2113
 Red. masses --      2.3547                 3.7714                 4.2669
 Frc consts  --      0.1524                 0.3547                 0.4524
 IR Inten    --      2.7643                 2.1502                 0.7279

                      7                      8                      9
                      A                      A                      A
 Frequencies --    470.9353               521.7858               609.3093
 Red. masses --      2.4369                 3.3996                 3.1431
 Frc consts  --      0.3184                 0.5453                 0.6875
 IR Inten    --      5.6934                 3.3341                 5.0966

                     10                     11                     12
                      A                      A                      A
 Frequencies --    698.2701               745.0522               781.8814
 Red. masses --      2.0777                 1.5374                 4.2239
 Frc consts  --      0.5969                 0.5028                 1.5214
 IR Inten    --      5.1927                17.7359                 3.7145

                     13                     14                     15
                      A                      A                      A
 Frequencies --    824.5244               883.8623               920.5367
 Red. masses --      3.5541                 2.6425                 2.4500
 Frc consts  --      1.4236                 1.2163                 1.2232
 IR Inten    --      5.2842                13.1798                30.5438

                     16                     17                     18
                      A                      A                      A
 Frequencies --    927.4045               969.9701               976.1553
 Red. masses --      2.2241                 2.0780                 1.3217
 Frc consts  --      1.1271                 1.1519                 0.7420
 IR Inten    --     21.5347                 6.4153                 3.1008

                     19                     20                     21
                      A                      A                      A
 Frequencies --   1005.9059              1032.4664              1060.8090
 Red. masses --      1.9064                 2.8465                 2.2464
 Frc consts  --      1.1365                 1.7878                 1.4894
 IR Inten    --      5.5029                 7.1931                 6.0250

                     22                     23                     24
                      A                      A                      A
 Frequencies --   1091.7591              1116.8934              1132.2952
 Red. masses --      2.8733                 3.9665                 1.7621
 Frc consts  --      2.0178                 2.9153                 1.3310
 IR Inten    --     23.0220                37.8963                10.8311

                     25                     26                     27
                      A                      A                      A
 Frequencies --   1137.7497              1153.0194              1183.9712
 Red. masses --      1.3808                 3.0743                 1.7392
 Frc consts  --      1.0531                 2.4081                 1.4364
 IR Inten    --      1.9014               145.8630                38.8044

                     28                     29                     30
                      A                      A                      A
 Frequencies --   1265.5737              1281.2793              1299.5177
 Red. masses --      1.1423                 1.5699                 1.2197
 Frc consts  --      1.0780                 1.5185                 1.2136
 IR Inten    --      2.6106                19.9692                17.0816

                     31                     32                     33
                      A                      A                      A
 Frequencies --   1316.5083              1325.1630              1359.0878
 Red. masses --      1.3058                 1.4400                 1.2764
 Frc consts  --      1.3335                 1.4899                 1.3891
 IR Inten    --      4.6275                 7.8690                 2.7163

                     34                     35                     36
                      A                      A                      A
 Frequencies --   1378.6730              1383.3464              1403.6502
 Red. masses --      1.3776                 1.4926                 1.3401
 Frc consts  --      1.5428                 1.6829                 1.5557
 IR Inten    --     31.5666                 2.0768                 4.5928

                     37                     38                     39
                      A                      A                      A
 Frequencies --   1416.9687              1478.1263              1484.2759
 Red. masses --      1.4331                 1.1015                 1.0981
 Frc consts  --      1.6953                 1.4180                 1.4253
 IR Inten    --      3.6703                 1.7277                 3.0228

                     40                     41                     42
                      A                      A                      A
 Frequencies --   1492.9713              1676.8379              2968.9042
 Red. masses --      1.0911                 6.1799                 1.0700
 Frc consts  --      1.4329                10.2380                 5.5569
 IR Inten    --      3.8335                 2.2554                31.1142

                     43                     44                     45
                      A                      A                      A
 Frequencies --   2981.9737              2988.1462              3031.1058
 Red. masses --      1.0828                 1.0671                 1.0649
 Frc consts  --      5.6728                 5.6140                 5.7644
 IR Inten    --     45.6089                77.0062                19.5989

                     46                     47                     48
                      A                      A                      A
 Frequencies --   3054.5997              3079.0934              3082.6645
 Red. masses --      1.0856                 1.0967                 1.0981
 Frc consts  --      5.9683                 6.1260                 6.1483
 IR Inten    --     23.8942                39.6378                33.3602

                     49                     50                     51
                      A                      A                      A
 Frequencies --   3084.0992              3184.2203              3214.0417
 Red. masses --      1.0917                 1.0866                 1.1024
 Frc consts  --      6.1180                 6.4913                 6.7097
 IR Inten    --     42.4483                 9.3541                19.3857

 - Thermochemistry -
 -------------------
 Temperature   298.150 Kelvin.  Pressure   1.00000 Atm.
 Atom     1 has atomic number  6 and mass  12.00000

 Molecular mass:   126.06808 amu.
 Principal axes and moments of inertia in atomic units:
                           1         2         3
     Eigenvalues --   600.911201082.819921432.09515
           X            0.99973   0.02273  -0.00429
           Y           -0.02253   0.99882   0.04307
           Z            0.00526  -0.04296   0.99906
 This molecule is an asymmetric top.
 Rotational symmetry number  1.
 Warning -- assumption of classical behavior for rotation
           may cause significant error
 Rotational temperatures (Kelvin)      0.14414     0.07999     0.06048
 Rotational constants (GHZ):           3.00334     1.66670     1.26021
 Zero-point vibrational energy     425898.0 (Joules/Mol)
                                  101.79206 (Kcal/Mol)
 Warning -- explicit consideration of   9 degrees of freedom as
           vibrations may cause significant error
 Vibrational temperatures:    183.37   247.68   394.81   476.86   574.86
          (Kelvin)            610.34   677.57   750.73   876.66  1004.65
                             1071.96  1124.95  1186.31  1271.68  1324.45
                             1334.33  1395.57  1404.47  1447.27  1485.49
                             1526.27  1570.80  1606.96  1629.12  1636.97
                             1658.94  1703.47  1820.88  1843.47  1869.71
                             1894.16  1906.61  1955.42  1983.60  1990.32
                             2019.54  2038.70  2126.69  2135.54  2148.05
                             2412.59  4271.59  4290.39  4299.27  4361.08
                             4394.88  4430.12  4435.26  4437.33  4581.38
                             4624.28

 Zero-point correction=                           0.162216 (Hartree/Particle)
 Thermal correction to Energy=                    0.169324
 Thermal correction to Enthalpy=                  0.170268
 Thermal correction to Gibbs Free Energy=         0.130831
 Sum of electronic and zero-point Energies=           -423.029680
 Sum of electronic and thermal Energies=              -423.022572
 Sum of electronic and thermal Enthalpies=            -423.021628
 Sum of electronic and thermal Free Energies=         -423.061065

                     E (Thermal)             CV                S
                      KCal/Mol        Cal/Mol-Kelvin    Cal/Mol-Kelvin
 Total                  106.252             28.775             83.002
 Electronic               0.000              0.000              0.000
 Translational            0.889              2.981             40.409
 Rotational               0.889              2.981             28.323
 Vibrational            104.475             22.813             14.269
 Vibration     1          0.611              1.926              2.984
 Vibration     2          0.626              1.877              2.412
 Vibration     3          0.677              1.721              1.568
 Vibration     4          0.714              1.613              1.253
 Vibration     5          0.766              1.471              0.964
 Vibration     6          0.786              1.418              0.878
 Vibration     7          0.828              1.315              0.735
 Vibration     8          0.877              1.202              0.606
 Vibration     9          0.968              1.012              0.434

 Optimization completed.
    -- Stationary point found.
 Normal termination of Gaussian 09 at Mon Jan 27 13:40:30 2020.
