 Gaussian 09, Revision D.01,
 Gaussian 09:  ES64L-G09RevD.01 24-Apr-2013

 -----------------------------
 # b3lyp 6-31G(2df,p) opt Freq
 -----------------------------

 -----
 titel
 -----
 Symbolic Z-matrix:
 Charge =  0 Multiplicity = 1

 SCF Done:  E(RB3LYP) =  -423.171888738     A.U. after   13 cycles
 Optimization completed.
    -- Stationary point found.
 Normal termination of Gaussian 09 at Tue Jan 28 11:43:41 2020.

 ----------------------------------------------------------------------
 #N Geom=AllCheck Guess=TCheck SCRF=Check GenChk RB3LYP/6-31G(2df,p) Fr
 eq
 ----------------------------------------------------------------------

 Structure from the checkpoint file:  "/scratch/puck/g09_90c1e8ea-5b30-48fd-881a-362b793ed32e/Gau-26443.chk"
 -----
 titel
 -----
 Charge =  0 Multiplicity = 1

                         Standard orientation:
 ---------------------------------------------------------------------
 Center     Atomic      Atomic             Coordinates (Angstroms)
 Number     Number       Type             X           Y           Z
 ---------------------------------------------------------------------
      1          8           0       -2.591036   -0.138455   -0.377718
      2          6           0       -1.522452    0.780505   -0.467493
      3          6           0       -0.516042    0.655096    0.695377
      4          6           0        0.687370    1.594990    0.454275
      5          6           0        1.737633    1.003935   -0.454717
      6          6           0        1.940857   -0.308581   -0.578732
      7          6           0        1.145006   -1.277184    0.214700
      8          8           0       -0.163978   -1.651176   -0.277469
      9          6           0       -0.073432   -0.799822    0.880295
     10          1           0       -2.220582   -1.001129   -0.597583
     11          1           0       -0.985188    0.680191   -1.420886
     12          1           0       -1.966138    1.782046   -0.441855
     13          1           0       -1.031414    0.961225    1.611822
     14          1           0        0.327064    2.540490    0.030384
     15          1           0        1.157263    1.868248    1.409669
     16          1           0        2.356993    1.700613   -1.014277
     17          1           0        2.710394   -0.698110   -1.238476
     18          1           0        1.688220   -2.119404    0.641778
     19          1           0       -0.390144   -1.290749    1.798692
 ---------------------------------------------------------------------

 SCF Done:  E(RB3LYP) =  -423.171888738     A.U. after    1 cycles

 The electronic state is 1-A.
 Alpha  occ. eigenvalues --  -19.15393 -19.12105 -10.24180 -10.23756 -10.21935
 Alpha  occ. eigenvalues --  -10.19817 -10.19612 -10.19268 -10.18942  -1.06944
 Alpha  occ. eigenvalues --   -1.00427  -0.82677  -0.76718  -0.70078  -0.66375
 Alpha  occ. eigenvalues --   -0.63276  -0.59032  -0.53157  -0.50382  -0.49850
 Alpha  occ. eigenvalues --   -0.47160  -0.45796  -0.43112  -0.41811  -0.41232
 Alpha  occ. eigenvalues --   -0.39303  -0.37715  -0.35277  -0.33623  -0.32306
 Alpha  occ. eigenvalues --   -0.30131  -0.27529  -0.26204  -0.24729
 Alpha virt. eigenvalues --   -0.00552   0.08432   0.08526   0.11183   0.11886
 Alpha virt. eigenvalues --    0.12655   0.14277   0.14837   0.15788   0.17487
 Alpha virt. eigenvalues --    0.18359   0.18641   0.19806   0.21889   0.23493

 Mulliken charges:
               1
     1  O   -0.432243
     2  C   -0.058982
     3  C   -0.047293
     4  C   -0.291448
     5  C   -0.050691
     6  C   -0.077811
     7  C    0.020126
     8  O   -0.274479
     9  C    0.017012
    10  H    0.299126
    11  H    0.098310
    12  H    0.101901
    13  H    0.080056
    14  H    0.109905
    15  H    0.117773
    16  H    0.098953
    17  H    0.095539
    18  H    0.096643
    19  H    0.097604
 Sum of Mulliken charges =   0.00000

 Dipole moment (field-independent basis, Debye):
    X=              2.5931    Y=              0.9358    Z=              0.9260  Tot=              2.9082
 Quadrupole moment (field-independent basis, Debye-Ang):
   XX=            -58.1395   YY=            -50.7419   ZZ=            -51.7933
   XY=             -0.5878   XZ=             -1.4349   YZ=             -1.1338

  Exact polarizability:  78.362  -2.385  83.955  -6.603  -0.021  62.414
 Approx polarizability: 109.401  -2.593 132.577  -8.361   5.384  96.660

                      1                      2                      3
                      A                      A                      A
 Frequencies --     76.3050               147.2024               201.6220
 Red. masses --      3.8884                 2.9405                 3.7485
 Frc consts  --      0.0133                 0.0375                 0.0898
 IR Inten    --      1.1874                 2.8675                 1.2748

                      4                      5                      6
                      A                      A                      A
 Frequencies --    260.1522               306.3653               360.3493
 Red. masses --      2.4018                 3.3349                 5.2138
 Frc consts  --      0.0958                 0.1844                 0.3989
 IR Inten    --      1.1421                 7.7679                 3.4843

                      7                      8                      9
                      A                      A                      A
 Frequencies --    479.1702               486.7255               513.5679
 Red. masses --      1.8526                 1.5345                 3.0432
 Frc consts  --      0.2506                 0.2142                 0.4729
 IR Inten    --     35.0956                50.4156                38.2931

                     10                     11                     12
                      A                      A                      A
 Frequencies --    557.6403               608.7201               718.9305
 Red. masses --      4.7784                 2.8773                 1.9191
 Frc consts  --      0.8755                 0.6282                 0.5844
 IR Inten    --      1.2249                 8.3668                11.0791

                     13                     14                     15
                      A                      A                      A
 Frequencies --    762.0843               825.7798               851.6162
 Red. masses --      3.1238                 3.3778                 2.1577
 Frc consts  --      1.0689                 1.3571                 0.9220
 IR Inten    --     16.2685                10.4171                 7.1199

                     16                     17                     18
                      A                      A                      A
 Frequencies --    885.2341               890.7631               951.9507
 Red. masses --      2.8082                 2.6284                 2.8217
 Frc consts  --      1.2966                 1.2288                 1.5065
 IR Inten    --     20.7759                12.1308                 2.4586

                     19                     20                     21
                      A                      A                      A
 Frequencies --    978.2570              1000.0168              1011.6585
 Red. masses --      3.4142                 1.3158                 1.9267
 Frc consts  --      1.9251                 0.7753                 1.1618
 IR Inten    --     17.3940                 3.2433                13.1045

                     22                     23                     24
                      A                      A                      A
 Frequencies --   1049.0049              1079.6309              1091.6360
 Red. masses --      1.4935                 2.1249                 5.0889
 Frc consts  --      0.9683                 1.4593                 3.5730
 IR Inten    --      3.4882                48.9029                76.3048

                     25                     26                     27
                      A                      A                      A
 Frequencies --   1107.7104              1158.5722              1191.1452
 Red. masses --      1.5691                 1.3034                 1.1240
 Frc consts  --      1.1344                 1.0308                 0.9396
 IR Inten    --     11.1840                 1.2492                 5.7950

                     28                     29                     30
                      A                      A                      A
 Frequencies --   1205.0597              1249.0137              1288.3625
 Red. masses --      1.1744                 1.2461                 1.4981
 Frc consts  --      1.0048                 1.1453                 1.4651
 IR Inten    --      5.1740                 4.6801                 1.4552

                     31                     32                     33
                      A                      A                      A
 Frequencies --   1294.0774              1339.5417              1361.8787
 Red. masses --      1.2882                 1.3935                 1.2705
 Frc consts  --      1.2710                 1.4733                 1.3883
 IR Inten    --      2.3013                 0.7554                 1.2461

                     34                     35                     36
                      A                      A                      A
 Frequencies --   1385.4365              1407.4182              1421.0240
 Red. masses --      1.4593                 1.2924                 1.5457
 Frc consts  --      1.6503                 1.5083                 1.8390
 IR Inten    --      9.2959                 7.1532                 1.2326

                     37                     38                     39
                      A                      A                      A
 Frequencies --   1428.0527              1463.2992              1475.5440
 Red. masses --      1.2329                 2.8944                 1.1414
 Frc consts  --      1.4813                 3.6516                 1.4642
 IR Inten    --     55.7913                 9.4617                12.2397

                     40                     41                     42
                      A                      A                      A
 Frequencies --   1499.5161              1709.6089              3006.0802
 Red. masses --      1.0847                 6.5820                 1.0638
 Frc consts  --      1.4370                11.3345                 5.6640
 IR Inten    --      1.9835                 5.0647                23.4824

                     43                     44                     45
                      A                      A                      A
 Frequencies --   3009.2134              3045.0681              3048.3319
 Red. masses --      1.0658                 1.0899                 1.0888
 Frc consts  --      5.6863                 5.9543                 5.9608
 IR Inten    --     31.2767                11.2832                21.9567

                     46                     47                     48
                      A                      A                      A
 Frequencies --   3070.9365              3113.4299              3127.1287
 Red. masses --      1.0998                 1.0855                 1.0915
 Frc consts  --      6.1106                 6.1997                 6.2887
 IR Inten    --     52.7168                16.6239                46.1779

                     49                     50                     51
                      A                      A                      A
 Frequencies --   3153.8779              3179.8926              3799.8583
 Red. masses --      1.0848                 1.0969                 1.0654
 Frc consts  --      6.3577                 6.5348                 9.0633
 IR Inten    --      8.6340                24.9867                33.1900

 - Thermochemistry -
 -------------------
 Temperature   298.150 Kelvin.  Pressure   1.00000 Atm.
 Atom     1 has atomic number  8 and mass  15.99491

 Molecular mass:   126.06808 amu.
 Principal axes and moments of inertia in atomic units:
                           1         2         3
     Eigenvalues --   702.414081122.484351509.19527
           X            0.99994  -0.00734  -0.00775
           Y            0.00724   0.99989  -0.01284
           Z            0.00785   0.01278   0.99989
 This molecule is an asymmetric top.
 Rotational symmetry number  1.
 Warning -- assumption of classical behavior for rotation
           may cause significant error
 Rotational temperatures (Kelvin)      0.12331     0.07716     0.05739
 Rotational constants (GHZ):           2.56934     1.60781     1.19583
 Zero-point vibrational energy     422481.9 (Joules/Mol)
                                  100.97560 (Kcal/Mol)
 Warning -- explicit consideration of  11 degrees of freedom as
           vibrations may cause significant error
 Vibrational temperatures:    109.79   211.79   290.09   374.30   440.79
          (Kelvin)            518.46   689.42   700.29   738.91   802.32
                              875.81  1034.38  1096.47  1188.11  1225.28
                             1273.65  1281.61  1369.64  1407.49  1438.80
                             1455.55  1509.28  1553.35  1570.62  1593.75
                             1666.92  1713.79  1733.81  1797.05  1853.66
                             1861.89  1927.30  1959.44  1993.33  2024.96
                             2044.53  2054.65  2105.36  2122.98  2157.47
                             2459.74  4325.07  4329.58  4381.17  4385.86
                             4418.39  4479.53  4499.24  4537.72  4575.15
                             5467.14

 Zero-point correction=                           0.160915 (Hartree/Particle)
 Thermal correction to Energy=                    0.168862
 Thermal correction to Enthalpy=                  0.169806
 Thermal correction to Gibbs Free Energy=         0.128392
 Sum of electronic and zero-point Energies=           -423.010974
 Sum of electronic and thermal Energies=              -423.003027
 Sum of electronic and thermal Enthalpies=            -423.002083
 Sum of electronic and thermal Free Energies=         -423.043497

                     E (Thermal)             CV                S
                      KCal/Mol        Cal/Mol-Kelvin    Cal/Mol-Kelvin
 Total                  105.962             31.108             87.163
 Electronic               0.000              0.000              0.000
 Translational            0.889              2.981             40.409
 Rotational               0.889              2.981             28.566
 Vibrational            104.185             25.147             18.188
 Vibration     1          0.599              1.965              3.984
 Vibration     2          0.617              1.906              2.708
 Vibration     3          0.639              1.838              2.118
 Vibration     4          0.668              1.746              1.661
 Vibration     5          0.697              1.662              1.382
 Vibration     6          0.735              1.554              1.121
 Vibration     7          0.836              1.296              0.712
 Vibration     8          0.843              1.279              0.692
 Vibration     9          0.869              1.220              0.625
 Vibration    10          0.913              1.123              0.529
 Vibration    11          0.968              1.013              0.435

 Optimization completed.
    -- Stationary point found.
 Normal termination of Gaussian 09 at Tue Jan 28 12:28:17 2020.
