 Gaussian 09, Revision D.01,
 Gaussian 09:  ES64L-G09RevD.01 24-Apr-2013

 -----------------------------
 # b3lyp 6-31G(2df,p) opt Freq
 -----------------------------

 -----
 titel
 -----
 Symbolic Z-matrix:
 Charge =  0 Multiplicity = 1

 SCF Done:  E(RB3LYP) =  -423.212760126     A.U. after   14 cycles
 Optimization completed.
    -- Stationary point found.
 Normal termination of Gaussian 09 at Tue Jan 28 08:48:13 2020.

 ----------------------------------------------------------------------
 #N Geom=AllCheck Guess=TCheck SCRF=Check GenChk RB3LYP/6-31G(2df,p) Fr
 eq
 ----------------------------------------------------------------------

 Structure from the checkpoint file:  "/scratch/puck/g09_2747192b-3737-48b4-811c-a924994a3375/Gau-129539.chk"
 -----
 titel
 -----
 Charge =  0 Multiplicity = 1

                         Standard orientation:
 ---------------------------------------------------------------------
 Center     Atomic      Atomic             Coordinates (Angstroms)
 Number     Number       Type             X           Y           Z
 ---------------------------------------------------------------------
      1          6           0        0.499581    1.385856    1.499917
      2          6           0        0.317657    0.539697    0.222020
      3          6           0        1.707328    0.152713   -0.329544
      4          8           0        1.648474   -0.772886   -1.399011
      5          6           0       -0.583905    1.206425   -0.790001
      6          6           0       -1.751380    0.583093   -0.951113
      7          6           0       -1.866060   -0.653928   -0.101038
      8          6           0       -0.479117   -0.745132    0.545705
      9          8           0       -0.042597   -1.684500    1.163354
     10          1           0       -0.464179    1.709111    1.903391
     11          1           0        1.020903    0.806866    2.268535
     12          1           0        1.088987    2.283656    1.283710
     13          1           0        2.199122    1.050670   -0.720444
     14          1           0        2.319544   -0.231864    0.497522
     15          1           0        1.477057   -1.639490   -1.015765
     16          1           0       -0.287336    2.113544   -1.305983
     17          1           0       -2.543531    0.907736   -1.615648
     18          1           0       -2.639369   -0.582577    0.676495
     19          1           0       -2.082839   -1.570900   -0.662225
 ---------------------------------------------------------------------

 SCF Done:  E(RB3LYP) =  -423.212760126     A.U. after    1 cycles

 The electronic state is 1-A.
 Alpha  occ. eigenvalues --  -19.13898 -19.13540 -10.27237 -10.23028 -10.20166
 Alpha  occ. eigenvalues --  -10.19759 -10.19171 -10.18832 -10.18766  -1.04961
 Alpha  occ. eigenvalues --   -1.01682  -0.85419  -0.77345  -0.69826  -0.67876
 Alpha  occ. eigenvalues --   -0.63757  -0.56020  -0.52627  -0.49778  -0.48027
 Alpha  occ. eigenvalues --   -0.46762  -0.45007  -0.42314  -0.41683  -0.40924
 Alpha  occ. eigenvalues --   -0.39547  -0.38920  -0.37443  -0.35955  -0.34929
 Alpha  occ. eigenvalues --   -0.32715  -0.27427  -0.25254  -0.24346
 Alpha virt. eigenvalues --   -0.02315   0.01150   0.08416   0.09834   0.11473
 Alpha virt. eigenvalues --    0.12352   0.14196   0.15996   0.17044   0.17462
 Alpha virt. eigenvalues --    0.17798   0.18809   0.20193   0.21208   0.21695

 Mulliken charges:
               1
     1  C   -0.435909
     2  C    0.098458
     3  C   -0.092142
     4  O   -0.429048
     5  C   -0.079244
     6  C   -0.090362
     7  C   -0.373780
     8  C    0.378834
     9  O   -0.337291
    10  H    0.123128
    11  H    0.134976
    12  H    0.120796
    13  H    0.108424
    14  H    0.103966
    15  H    0.293343
    16  H    0.099844
    17  H    0.103017
    18  H    0.136187
    19  H    0.136804
 Sum of Mulliken charges =   0.00000

 Dipole moment (field-independent basis, Debye):
    X=             -1.1633    Y=              1.6193    Z=              0.1531  Tot=              1.9997
 Quadrupole moment (field-independent basis, Debye-Ang):
   XX=            -50.4539   YY=            -53.1430   ZZ=            -57.3972
   XY=              1.2866   XZ=              2.8449   YZ=              2.3946

  Exact polarizability:  84.455   6.659  76.113   6.631  -2.976  67.572
 Approx polarizability: 123.733  11.394 117.560   9.395  -8.095 100.609

                      1                      2                      3
                      A                      A                      A
 Frequencies --     47.1800                82.7588               169.2751
 Red. masses --      3.8715                 3.3516                 4.9881
 Frc consts  --      0.0051                 0.0135                 0.0842
 IR Inten    --      7.3364                 2.4146                 0.8366

                      4                      5                      6
                      A                      A                      A
 Frequencies --    208.7022               218.9241               249.6605
 Red. masses --      1.1067                 2.1900                 2.7403
 Frc consts  --      0.0284                 0.0618                 0.1006
 IR Inten    --      0.1953                 0.9538                 1.4019

                      7                      8                      9
                      A                      A                      A
 Frequencies --    292.7547               394.2781               414.1803
 Red. masses --      2.6356                 1.0838                 3.2321
 Frc consts  --      0.1331                 0.0993                 0.3267
 IR Inten    --     11.2103               112.9966                 2.1057

                     10                     11                     12
                      A                      A                      A
 Frequencies --    483.5647               493.2314               601.3702
 Red. masses --      2.2988                 3.5113                 4.7865
 Frc consts  --      0.3167                 0.5033                 1.0199
 IR Inten    --      0.7475                11.4955                 3.6820

                     13                     14                     15
                      A                      A                      A
 Frequencies --    624.9430               683.0050               736.1117
 Red. masses --      3.0578                 4.2416                 1.5885
 Frc consts  --      0.7036                 1.1658                 0.5071
 IR Inten    --      0.8882                 0.5733                27.6467

                     16                     17                     18
                      A                      A                      A
 Frequencies --    752.0021               876.4916               930.6341
 Red. masses --      3.0163                 2.3609                 2.1441
 Frc consts  --      1.0050                 1.0686                 1.0941
 IR Inten    --     19.5755                 7.3703                 7.0796

                     19                     20                     21
                      A                      A                      A
 Frequencies --    937.8235               971.0963               977.4844
 Red. masses --      1.6481                 2.0579                 1.2656
 Frc consts  --      0.8540                 1.1434                 0.7125
 IR Inten    --     14.2751                 2.4097                 3.8523

                     22                     23                     24
                      A                      A                      A
 Frequencies --    996.3131              1050.9773              1076.8637
 Red. masses --      1.6364                 2.6237                 4.2096
 Frc consts  --      0.9570                 1.7075                 2.8762
 IR Inten    --      9.2939                23.8952                85.3510

                     25                     26                     27
                      A                      A                      A
 Frequencies --   1108.1907              1135.6895              1163.8779
 Red. masses --      2.3853                 1.3081                 1.5474
 Frc consts  --      1.7260                 0.9941                 1.2350
 IR Inten    --      9.9875                 9.5234                19.3472

                     28                     29                     30
                      A                      A                      A
 Frequencies --   1171.4088              1224.9692              1281.1164
 Red. masses --      1.3875                 2.7929                 1.8995
 Frc consts  --      1.1217                 2.4692                 1.8368
 IR Inten    --      8.3234                10.0154                17.5042

                     31                     32                     33
                      A                      A                      A
 Frequencies --   1294.0234              1369.4595              1388.1784
 Red. masses --      1.8313                 1.5472                 1.2437
 Frc consts  --      1.8067                 1.7096                 1.4121
 IR Inten    --      4.6078                 2.7875                 2.1937

                     34                     35                     36
                      A                      A                      A
 Frequencies --   1409.3290              1419.0502              1441.2530
 Red. masses --      1.2089                 1.3199                 1.0893
 Frc consts  --      1.4147                 1.5659                 1.3331
 IR Inten    --     24.2139                17.6578                 6.9458

                     37                     38                     39
                      A                      A                      A
 Frequencies --   1485.6641              1494.1355              1497.8256
 Red. masses --      1.0754                 1.0651                 1.0541
 Frc consts  --      1.3985                 1.4009                 1.3933
 IR Inten    --      0.0839                 7.9353                 4.9451

                     40                     41                     42
                      A                      A                      A
 Frequencies --   1680.2053              1834.5077              3009.2733
 Red. masses --      6.5963                12.4578                 1.0610
 Frc consts  --     10.9718                24.7019                 5.6610
 IR Inten    --      0.0091               160.5252                38.8695

                     43                     44                     45
                      A                      A                      A
 Frequencies --   3020.3552              3031.8025              3058.2426
 Red. masses --      1.0646                 1.0349                 1.0951
 Frc consts  --      5.7218                 5.6044                 6.0345
 IR Inten    --     13.3587                28.1121                 7.5452

                     46                     47                     48
                      A                      A                      A
 Frequencies --   3069.8010              3101.9714              3114.7290
 Red. masses --      1.1023                 1.1011                 1.1025
 Frc consts  --      6.1204                 6.2425                 6.3017
 IR Inten    --     22.0683                17.6801                18.5953

                     49                     50                     51
                      A                      A                      A
 Frequencies --   3181.7121              3208.0672              3816.2218
 Red. masses --      1.0858                 1.1021                 1.0661
 Frc consts  --      6.4764                 6.6829                 9.1476
 IR Inten    --      4.6660                16.9521                24.3922

 - Thermochemistry -
 -------------------
 Temperature   298.150 Kelvin.  Pressure   1.00000 Atm.
 Atom     1 has atomic number  6 and mass  12.00000

 Molecular mass:   126.06808 amu.
 Principal axes and moments of inertia in atomic units:
                           1         2         3
     Eigenvalues --   916.937641145.850191210.62037
           X            0.99697   0.03083   0.07145
           Y           -0.05195   0.94729   0.31614
           Z           -0.05793  -0.31889   0.94602
 This molecule is an asymmetric top.
 Rotational symmetry number  1.
 Warning -- assumption of classical behavior for rotation
           may cause significant error
 Rotational temperatures (Kelvin)      0.09446     0.07559     0.07154
 Rotational constants (GHZ):           1.96823     1.57502     1.49076
 Zero-point vibrational energy     414390.5 (Joules/Mol)
                                   99.04171 (Kcal/Mol)
 Warning -- explicit consideration of  12 degrees of freedom as
           vibrations may cause significant error
 Vibrational temperatures:     67.88   119.07   243.55   300.28   314.98
          (Kelvin)            359.21   421.21   567.28   595.91   695.74
                              709.65   865.24   899.15   982.69  1059.10
                             1081.96  1261.07  1338.97  1349.32  1397.19
                             1406.38  1433.47  1512.12  1549.36  1594.44
                             1634.00  1674.56  1685.39  1762.46  1843.24
                             1861.81  1970.34  1997.28  2027.71  2041.69
                             2073.64  2137.54  2149.73  2155.03  2417.44
                             2639.44  4329.67  4345.61  4362.08  4400.12
                             4416.75  4463.04  4481.39  4577.77  4615.69
                             5490.69

 Zero-point correction=                           0.157833 (Hartree/Particle)
 Thermal correction to Energy=                    0.167083
 Thermal correction to Enthalpy=                  0.168027
 Thermal correction to Gibbs Free Energy=         0.123504
 Sum of electronic and zero-point Energies=           -423.054927
 Sum of electronic and thermal Energies=              -423.045677
 Sum of electronic and thermal Enthalpies=            -423.044733
 Sum of electronic and thermal Free Energies=         -423.089256

                     E (Thermal)             CV                S
                      KCal/Mol        Cal/Mol-Kelvin    Cal/Mol-Kelvin
 Total                  104.846             34.262             93.707
 Electronic               0.000              0.000              0.000
 Translational            0.889              2.981             40.409
 Rotational               0.889              2.981             28.633
 Vibrational            103.069             28.301             24.665
 Vibration     1          0.595              1.979              4.932
 Vibration     2          0.600              1.961              3.824
 Vibration     3          0.625              1.880              2.444
 Vibration     4          0.642              1.827              2.055
 Vibration     5          0.647              1.812              1.968
 Vibration     6          0.662              1.763              1.733
 Vibration     7          0.688              1.687              1.458
 Vibration     8          0.761              1.482              0.984
 Vibration     9          0.778              1.439              0.912
 Vibration    10          0.840              1.287              0.701
 Vibration    11          0.849              1.265              0.675
 Vibration    12          0.960              1.029              0.447

 Optimization completed.
    -- Stationary point found.
 Normal termination of Gaussian 09 at Tue Jan 28 09:32:24 2020.
