 Gaussian 09, Revision D.01,
 Gaussian 09:  ES64L-G09RevD.01 24-Apr-2013

 -----------------------------
 # b3lyp 6-31G(2df,p) opt Freq
 -----------------------------

 -----
 titel
 -----
 Symbolic Z-matrix:
 Charge =  0 Multiplicity = 1

 SCF Done:  E(RB3LYP) =  -423.211443462     A.U. after   14 cycles
 Optimization completed.
    -- Stationary point found.
 Normal termination of Gaussian 09 at Tue Jan 28 00:44:39 2020.

 ----------------------------------------------------------------------
 #N Geom=AllCheck Guess=TCheck SCRF=Check GenChk RB3LYP/6-31G(2df,p) Fr
 eq
 ----------------------------------------------------------------------

 Structure from the checkpoint file:  "/scratch/puck/g09_cbfc6f92-f2c8-4596-a5e2-27e52068c036/Gau-37522.chk"
 -----
 titel
 -----
 Charge =  0 Multiplicity = 1

                         Standard orientation:
 ---------------------------------------------------------------------
 Center     Atomic      Atomic             Coordinates (Angstroms)
 Number     Number       Type             X           Y           Z
 ---------------------------------------------------------------------
      1          6           0        2.008831   -1.474388   -0.321401
      2          6           0        1.231849   -0.499365    0.533430
      3          8           0        1.604434    0.900719    0.243489
      4          6           0        0.314790    1.222730   -0.091918
      5          8           0       -0.107099    2.279894   -0.442531
      6          6           0       -0.228646   -0.178857    0.163438
      7          6           0       -1.061693   -0.849698   -0.961577
      8          6           0       -2.342874   -0.518256   -0.149355
      9          6           0       -1.453064   -0.314588    1.105958
     10          1           0        3.079647   -1.396735   -0.112626
     11          1           0        1.694041   -2.500898   -0.106085
     12          1           0        1.849180   -1.277671   -1.385456
     13          1           0        1.381899   -0.687432    1.601437
     14          1           0       -0.970642   -0.431008   -1.965781
     15          1           0       -0.867487   -1.925586   -1.004779
     16          1           0       -2.788769    0.422989   -0.477484
     17          1           0       -3.119754   -1.283231   -0.099223
     18          1           0       -1.672719    0.532299    1.759353
     19          1           0       -1.379249   -1.223098    1.711530
 ---------------------------------------------------------------------

 SCF Done:  E(RB3LYP) =  -423.211443462     A.U. after    1 cycles

 The electronic state is 1-A.
 Alpha  occ. eigenvalues --  -19.17345 -19.12810 -10.29873 -10.25291 -10.21172
 Alpha  occ. eigenvalues --  -10.19927 -10.19887 -10.19393 -10.19312  -1.09812
 Alpha  occ. eigenvalues --   -1.02515  -0.86100  -0.77110  -0.70483  -0.67658
 Alpha  occ. eigenvalues --   -0.62176  -0.59560  -0.52439  -0.50800  -0.49747
 Alpha  occ. eigenvalues --   -0.46699  -0.45415  -0.42733  -0.41576  -0.40523
 Alpha  occ. eigenvalues --   -0.39633  -0.38345  -0.36957  -0.36135  -0.34261
 Alpha  occ. eigenvalues --   -0.32237  -0.30695  -0.29458  -0.26271
 Alpha virt. eigenvalues --    0.01240   0.07592   0.08155   0.09383   0.10883
 Alpha virt. eigenvalues --    0.11740   0.13505   0.14323   0.15571   0.16587
 Alpha virt. eigenvalues --    0.17558   0.18364   0.19143   0.19663   0.20848

 Mulliken charges:
               1
     1  C   -0.407141
     2  C    0.069400
     3  O   -0.273336
     4  C    0.439395
     5  O   -0.341546
     6  C    0.110472
     7  C   -0.280788
     8  C   -0.208682
     9  C   -0.284019
    10  H    0.137617
    11  H    0.125515
    12  H    0.131270
    13  H    0.095020
    14  H    0.119327
    15  H    0.107870
    16  H    0.129737
    17  H    0.102787
    18  H    0.119989
    19  H    0.107115
 Sum of Mulliken charges =   0.00000

 Dipole moment (field-independent basis, Debye):
    X=             -0.5174    Y=             -4.1008    Z=              0.7603  Tot=              4.2026
 Quadrupole moment (field-independent basis, Debye-Ang):
   XX=            -52.6985   YY=            -59.6133   ZZ=            -51.5204
   XY=             -2.0775   XZ=             -0.2039   YZ=              1.1818

  Exact polarizability:  81.989  -3.671  77.121   1.090  -1.770  65.799
 Approx polarizability: 110.728  -6.292 117.911   4.159  -6.658  98.750

                      1                      2                      3
                      A                      A                      A
 Frequencies --     98.1487               105.6961               167.0267
 Red. masses --      4.3133                 2.6375                 2.5146
 Frc consts  --      0.0245                 0.0174                 0.0413
 IR Inten    --      0.0844                 1.2385                 0.8381

                      4                      5                      6
                      A                      A                      A
 Frequencies --    197.4581               219.0092               263.8246
 Red. masses --      3.0730                 1.0718                 2.5458
 Frc consts  --      0.0706                 0.0303                 0.1044
 IR Inten    --      1.6060                 0.0756                 1.6874

                      7                      8                      9
                      A                      A                      A
 Frequencies --    307.4305               473.0071               507.0846
 Red. masses --      3.3392                 3.2792                 4.0379
 Frc consts  --      0.1859                 0.4323                 0.6117
 IR Inten    --      2.0668                 1.7702                 1.0502

                     10                     11                     12
                      A                      A                      A
 Frequencies --    561.7832               697.0807               727.6611
 Red. masses --      3.2943                 1.7000                 3.4059
 Frc consts  --      0.6126                 0.4867                 1.0625
 IR Inten    --      1.6495                 3.5532                 3.1773

                     13                     14                     15
                      A                      A                      A
 Frequencies --    749.1729               799.7760               831.6910
 Red. masses --      3.9797                 1.4067                 2.2552
 Frc consts  --      1.3160                 0.5301                 0.9191
 IR Inten    --      2.0431                 0.1005                 0.1171

                     16                     17                     18
                      A                      A                      A
 Frequencies --    861.7077               892.1431               939.5597
 Red. masses --      4.7513                 2.3578                 2.4691
 Frc consts  --      2.0787                 1.1057                 1.2842
 IR Inten    --     57.4578                 2.4294                 1.4977

                     19                     20                     21
                      A                      A                      A
 Frequencies --    960.7895               984.8352              1046.9988
 Red. masses --      2.6660                 1.8192                 2.2475
 Frc consts  --      1.4500                 1.0396                 1.4516
 IR Inten    --      2.3064                 1.0478                74.7470

                     22                     23                     24
                      A                      A                      A
 Frequencies --   1066.1311              1081.8108              1133.3634
 Red. masses --      1.1952                 2.6497                 2.5729
 Frc consts  --      0.8004                 1.8270                 1.9472
 IR Inten    --      3.3947                 8.6350               101.0691

                     25                     26                     27
                      A                      A                      A
 Frequencies --   1157.9206              1187.8543              1208.6626
 Red. masses --      2.5130                 2.3008                 1.8822
 Frc consts  --      1.9852                 1.9128                 1.6201
 IR Inten    --      2.6120                11.2125                 9.1166

                     28                     29                     30
                      A                      A                      A
 Frequencies --   1220.4629              1256.0764              1267.8172
 Red. masses --      1.6053                 1.2437                 1.4334
 Frc consts  --      1.4088                 1.1561                 1.3575
 IR Inten    --      0.7489                 0.3586                 1.0863

                     31                     32                     33
                      A                      A                      A
 Frequencies --   1280.7026              1299.0793              1332.2249
 Red. masses --      1.3504                 1.7945                 2.2456
 Frc consts  --      1.3050                 1.7843                 2.3482
 IR Inten    --      0.9297                 8.3437                46.0565

                     34                     35                     36
                      A                      A                      A
 Frequencies --   1380.6650              1412.1662              1470.1640
 Red. masses --      1.3989                 1.3250                 1.0869
 Frc consts  --      1.5711                 1.5569                 1.3841
 IR Inten    --     13.6336                13.2094                 1.4038

                     37                     38                     39
                      A                      A                      A
 Frequencies --   1481.6070              1483.7460              1493.1938
 Red. masses --      1.0843                 1.0555                 1.0514
 Frc consts  --      1.4024                 1.3691                 1.3811
 IR Inten    --      1.5410                 1.9552                 4.2864

                     40                     41                     42
                      A                      A                      A
 Frequencies --   1501.6384              1922.9637              3040.5328
 Red. masses --      1.1315                12.7216                 1.0355
 Frc consts  --      1.5033                27.7162                 5.6401
 IR Inten    --      0.4635               375.9830                 7.8500

                     43                     44                     45
                      A                      A                      A
 Frequencies --   3054.4115              3058.3490              3060.4640
 Red. masses --      1.0611                 1.0707                 1.0729
 Frc consts  --      5.8326                 5.9004                 5.9208
 IR Inten    --     20.5815                27.7806                25.0981

                     46                     47                     48
                      A                      A                      A
 Frequencies --   3075.1942              3110.4926              3112.6135
 Red. masses --      1.0592                 1.1060                 1.1013
 Frc consts  --      5.9016                 6.3049                 6.2865
 IR Inten    --     33.6408                 9.4344                12.0454

                     49                     50                     51
                      A                      A                      A
 Frequencies --   3116.6424              3122.6680              3135.3660
 Red. masses --      1.1063                 1.1026                 1.1084
 Frc consts  --      6.3315                 6.3343                 6.4199
 IR Inten    --     12.5423                21.0153                32.3206

 - Thermochemistry -
 -------------------
 Temperature   298.150 Kelvin.  Pressure   1.00000 Atm.
 Atom     1 has atomic number  6 and mass  12.00000

 Molecular mass:   126.06808 amu.
 Principal axes and moments of inertia in atomic units:
                           1         2         3
     Eigenvalues --   801.120381098.860271536.50719
           X            0.99749  -0.07017  -0.00909
           Y            0.07035   0.99728   0.02178
           Z            0.00754  -0.02236   0.99972
 This molecule is an asymmetric top.
 Rotational symmetry number  1.
 Warning -- assumption of classical behavior for rotation
           may cause significant error
 Rotational temperatures (Kelvin)      0.10812     0.07882     0.05637
 Rotational constants (GHZ):           2.25277     1.64238     1.17457
 Zero-point vibrational energy     418195.7 (Joules/Mol)
                                   99.95118 (Kcal/Mol)
 Warning -- explicit consideration of  10 degrees of freedom as
           vibrations may cause significant error
 Vibrational temperatures:    141.21   152.07   240.31   284.10   315.10
          (Kelvin)            379.58   442.32   680.55   729.58   808.28
                             1002.94  1046.94  1077.89  1150.70  1196.62
                             1239.80  1283.59  1351.82  1382.36  1416.96
                             1506.40  1533.92  1556.48  1630.66  1665.99
                             1709.06  1738.99  1755.97  1807.21  1824.10
                             1842.64  1869.08  1916.77  1986.47  2031.79
                             2115.24  2131.70  2134.78  2148.37  2160.52
                             2766.71  4374.64  4394.61  4400.28  4403.32
                             4424.51  4475.30  4478.35  4484.15  4492.82
                             4511.09

 Zero-point correction=                           0.159282 (Hartree/Particle)
 Thermal correction to Energy=                    0.167795
 Thermal correction to Enthalpy=                  0.168739
 Thermal correction to Gibbs Free Energy=         0.125984
 Sum of electronic and zero-point Energies=           -423.052161
 Sum of electronic and thermal Energies=              -423.043649
 Sum of electronic and thermal Enthalpies=            -423.042705
 Sum of electronic and thermal Free Energies=         -423.085459

                     E (Thermal)             CV                S
                      KCal/Mol        Cal/Mol-Kelvin    Cal/Mol-Kelvin
 Total                  105.293             31.809             89.984
 Electronic               0.000              0.000              0.000
 Translational            0.889              2.981             40.409
 Rotational               0.889              2.981             28.694
 Vibrational            103.515             25.847             20.882
 Vibration     1          0.604              1.950              3.491
 Vibration     2          0.605              1.945              3.346
 Vibration     3          0.624              1.883              2.469
 Vibration     4          0.637              1.843              2.157
 Vibration     5          0.647              1.812              1.967
 Vibration     6          0.670              1.739              1.636
 Vibration     7          0.697              1.660              1.376
 Vibration     8          0.830              1.310              0.729
 Vibration     9          0.862              1.234              0.641
 Vibration    10          0.917              1.114              0.520

 Optimization completed.
    -- Stationary point found.
 Normal termination of Gaussian 09 at Tue Jan 28 02:54:41 2020.
