 Gaussian 09, Revision D.01,
 Gaussian 09:  ES64L-G09RevD.01 24-Apr-2013

 -----------------------------
 # b3lyp 6-31G(2df,p) opt Freq
 -----------------------------

 -----
 titel
 -----
 Symbolic Z-matrix:
 Charge =  0 Multiplicity = 1

 SCF Done:  E(RB3LYP) =  -423.181429487     A.U. after   14 cycles
 Optimization completed.
    -- Stationary point found.
 Normal termination of Gaussian 09 at Mon Jan 27 13:16:48 2020.

 ----------------------------------------------------------------------
 #N Geom=AllCheck Guess=TCheck SCRF=Check GenChk RB3LYP/6-31G(2df,p) Fr
 eq
 ----------------------------------------------------------------------

 Structure from the checkpoint file:  "/scratch/puck/g09_424ce51e-7d95-46ab-8453-69f4f58424c1/Gau-100881.chk"
 -----
 titel
 -----
 Charge =  0 Multiplicity = 1

                         Standard orientation:
 ---------------------------------------------------------------------
 Center     Atomic      Atomic             Coordinates (Angstroms)
 Number     Number       Type             X           Y           Z
 ---------------------------------------------------------------------
      1          8           0       -2.744974    0.435529    0.441850
      2          6           0       -1.972233   -0.444509    0.166010
      3          6           0       -0.767645   -0.295874   -0.769314
      4          6           0       -0.162536    1.127362   -0.740038
      5          6           0        1.092118    1.142406    0.143636
      6          6           0        2.110104    0.112052   -0.425699
      7          6           0        1.264775   -0.951180    0.320213
      8          6           0        0.894850    0.161888    1.338672
      9          8           0        0.154032   -1.345983   -0.482676
     10          1           0       -2.082877   -1.480073    0.558321
     11          1           0       -1.166584   -0.514151   -1.770644
     12          1           0        0.095550    1.456165   -1.751777
     13          1           0       -0.934019    1.803830   -0.358782
     14          1           0        1.431568    2.159765    0.347602
     15          1           0        2.189966    0.005011   -1.510671
     16          1           0        3.104330    0.224465    0.014531
     17          1           0        1.728316   -1.876700    0.665267
     18          1           0       -0.075016    0.118791    1.841266
     19          1           0        1.679703    0.273664    2.090604
 ---------------------------------------------------------------------

 SCF Done:  E(RB3LYP) =  -423.181429487     A.U. after    1 cycles

 The electronic state is 1-A.
 Alpha  occ. eigenvalues --  -19.14824 -19.14593 -10.27032 -10.24465 -10.24032
 Alpha  occ. eigenvalues --  -10.19931 -10.19041 -10.18825 -10.18317  -1.05535
 Alpha  occ. eigenvalues --   -1.04043  -0.85170  -0.78166  -0.68019  -0.66477
 Alpha  occ. eigenvalues --   -0.62948  -0.58318  -0.52696  -0.51786  -0.49573
 Alpha  occ. eigenvalues --   -0.46629  -0.45052  -0.43190  -0.41760  -0.41136
 Alpha  occ. eigenvalues --   -0.39742  -0.38229  -0.37654  -0.35239  -0.32271
 Alpha  occ. eigenvalues --   -0.31755  -0.28694  -0.27680  -0.23940
 Alpha virt. eigenvalues --   -0.02727   0.08292   0.09981   0.11676   0.12360
 Alpha virt. eigenvalues --    0.12829   0.13950   0.14744   0.15923   0.16959
 Alpha virt. eigenvalues --    0.17373   0.18424   0.19801   0.20709   0.22130

 Mulliken charges:
               1
     1  O   -0.243425
     2  C    0.139670
     3  C    0.018423
     4  C   -0.250207
     5  C   -0.017323
     6  C   -0.227299
     7  C    0.130000
     8  C   -0.264258
     9  O   -0.286028
    10  H    0.092157
    11  H    0.113391
    12  H    0.103673
    13  H    0.131336
    14  H    0.068842
    15  H    0.096291
    16  H    0.099611
    17  H    0.078637
    18  H    0.109850
    19  H    0.106659
 Sum of Mulliken charges =   0.00000

 Dipole moment (field-independent basis, Debye):
    X=              2.1388    Y=             -0.0008    Z=             -0.2687  Tot=              2.1556
 Quadrupole moment (field-independent basis, Debye-Ang):
   XX=            -57.8107   YY=            -54.7425   ZZ=            -51.5823
   XY=              3.3100   XZ=              3.4498   YZ=             -1.6924

  Exact polarizability:  83.412  -0.961  71.382  -0.391  -2.222  68.524
 Approx polarizability: 114.265  -6.649 111.053  -2.514   0.256 103.318

                      1                      2                      3
                      A                      A                      A
 Frequencies --     85.7731               127.8734               198.5179
 Red. masses --      5.4669                 2.5521                 4.2373
 Frc consts  --      0.0237                 0.0246                 0.0984
 IR Inten    --      4.4454                 7.3028                 3.3744

                      4                      5                      6
                      A                      A                      A
 Frequencies --    331.4635               363.0427               436.7540
 Red. masses --      2.7180                 2.8395                 2.1983
 Frc consts  --      0.1759                 0.2205                 0.2471
 IR Inten    --      1.6339                10.7332                 0.7253

                      7                      8                      9
                      A                      A                      A
 Frequencies --    469.0710               472.6020               588.2864
 Red. masses --      3.2678                 2.5064                 4.1764
 Frc consts  --      0.4236                 0.3298                 0.8516
 IR Inten    --      0.1344                 5.4090                 3.7275

                     10                     11                     12
                      A                      A                      A
 Frequencies --    641.9589               776.9116               807.5445
 Red. masses --      3.5636                 3.6085                 1.8225
 Frc consts  --      0.8653                 1.2833                 0.7002
 IR Inten    --      4.0956                 9.0327                 1.8302

                     13                     14                     15
                      A                      A                      A
 Frequencies --    837.3197               864.2322               870.0897
 Red. masses --      2.5639                 2.2807                 2.6944
 Frc consts  --      1.0591                 1.0036                 1.2018
 IR Inten    --     10.3006                 0.4652                10.2206

                     16                     17                     18
                      A                      A                      A
 Frequencies --    904.7256               934.7379               947.7492
 Red. masses --      1.9460                 2.4640                 1.9487
 Frc consts  --      0.9385                 1.2684                 1.0313
 IR Inten    --      8.7388                 8.7700                12.1398

                     19                     20                     21
                      A                      A                      A
 Frequencies --    986.8167               999.8852              1051.8429
 Red. masses --      1.7155                 2.5829                 1.3508
 Frc consts  --      0.9842                 1.5215                 0.8805
 IR Inten    --      6.8455                 7.4930                 2.0626

                     22                     23                     24
                      A                      A                      A
 Frequencies --   1075.4456              1100.6961              1106.0754
 Red. masses --      1.9720                 1.4531                 1.7365
 Frc consts  --      1.3438                 1.0373                 1.2517
 IR Inten    --     55.4564                 1.6808                 2.6460

                     25                     26                     27
                      A                      A                      A
 Frequencies --   1130.0050              1140.1718              1198.5850
 Red. masses --      2.5393                 1.6462                 1.7971
 Frc consts  --      1.9104                 1.2609                 1.5211
 IR Inten    --      8.3796                 0.2667                61.8043

                     28                     29                     30
                      A                      A                      A
 Frequencies --   1223.9413              1245.7302              1261.2292
 Red. masses --      1.2886                 1.3761                 1.7245
 Frc consts  --      1.1373                 1.2582                 1.6162
 IR Inten    --     15.7996                 1.2315                 7.3784

                     31                     32                     33
                      A                      A                      A
 Frequencies --   1287.0875              1294.0319              1334.7227
 Red. masses --      1.6344                 1.4585                 1.3925
 Frc consts  --      1.5952                 1.4390                 1.4616
 IR Inten    --      3.2405                 6.6037                 0.4267

                     34                     35                     36
                      A                      A                      A
 Frequencies --   1340.0639              1356.8521              1382.9822
 Red. masses --      1.5061                 1.3624                 1.3128
 Frc consts  --      1.5935                 1.4778                 1.4794
 IR Inten    --     10.2176                 5.7959                 2.2442

                     37                     38                     39
                      A                      A                      A
 Frequencies --   1394.8912              1472.6679              1495.3703
 Red. masses --      1.2863                 1.0960                 1.0893
 Frc consts  --      1.4746                 1.4005                 1.4352
 IR Inten    --      8.1150                 3.5177                 4.9723

                     40                     41                     42
                      A                      A                      A
 Frequencies --   1509.9653              1830.7067              2893.2498
 Red. masses --      1.1139                10.8230                 1.0848
 Frc consts  --      1.4963                21.3715                 5.3501
 IR Inten    --      3.9419               123.9741                88.9852

                     43                     44                     45
                      A                      A                      A
 Frequencies --   3003.1862              3047.8546              3055.6896
 Red. masses --      1.0823                 1.0608                 1.0569
 Frc consts  --      5.7513                 5.8061                 5.8145
 IR Inten    --     24.4118                24.5055                38.4132

                     46                     47                     48
                      A                      A                      A
 Frequencies --   3062.9702              3087.3332              3093.0664
 Red. masses --      1.0591                 1.0890                 1.1020
 Frc consts  --      5.8540                 6.1158                 6.2119
 IR Inten    --     13.9447                47.2034                11.4040

                     49                     50                     51
                      A                      A                      A
 Frequencies --   3100.6335              3115.8959              3118.7321
 Red. masses --      1.0911                 1.1092                 1.1065
 Frc consts  --      6.1803                 6.3451                 6.3412
 IR Inten    --     40.0138                11.2110                51.4906

 - Thermochemistry -
 -------------------
 Temperature   298.150 Kelvin.  Pressure   1.00000 Atm.
 Atom     1 has atomic number  8 and mass  15.99491

 Molecular mass:   126.06808 amu.
 Principal axes and moments of inertia in atomic units:
                           1         2         3
     Eigenvalues --   561.461391298.219701408.89687
           X            0.99980   0.01673   0.01057
           Y           -0.01572   0.99588  -0.08934
           Z           -0.01202   0.08916   0.99594
 This molecule is an asymmetric top.
 Rotational symmetry number  1.
 Warning -- assumption of classical behavior for rotation
           may cause significant error
 Rotational temperatures (Kelvin)      0.15426     0.06672     0.06148
 Rotational constants (GHZ):           3.21436     1.39017     1.28096
 Zero-point vibrational energy     421426.6 (Joules/Mol)
                                  100.72338 (Kcal/Mol)
 Warning -- explicit consideration of   9 degrees of freedom as
           vibrations may cause significant error
 Vibrational temperatures:    123.41   183.98   285.62   476.90   522.34
          (Kelvin)            628.39   674.89   679.97   846.41   923.63
                             1117.80  1161.88  1204.71  1243.44  1251.86
                             1301.70  1344.88  1363.60  1419.81  1438.61
                             1513.37  1547.32  1583.65  1591.39  1625.82
                             1640.45  1724.49  1760.98  1792.33  1814.63
                             1851.83  1861.82  1920.37  1928.05  1952.21
                             1989.80  2006.93  2118.84  2151.50  2172.50
                             2633.98  4162.74  4320.91  4385.18  4396.45
                             4406.93  4441.98  4450.23  4461.11  4483.07
                             4487.15

 Zero-point correction=                           0.160513 (Hartree/Particle)
 Thermal correction to Energy=                    0.168022
 Thermal correction to Enthalpy=                  0.168966
 Thermal correction to Gibbs Free Energy=         0.128369
 Sum of electronic and zero-point Energies=           -423.020917
 Sum of electronic and thermal Energies=              -423.013408
 Sum of electronic and thermal Enthalpies=            -423.012463
 Sum of electronic and thermal Free Energies=         -423.053061

                     E (Thermal)             CV                S
                      KCal/Mol        Cal/Mol-Kelvin    Cal/Mol-Kelvin
 Total                  105.435             29.624             85.445
 Electronic               0.000              0.000              0.000
 Translational            0.889              2.981             40.409
 Rotational               0.889              2.981             28.420
 Vibrational            103.658             23.662             16.616
 Vibration     1          0.601              1.959              3.754
 Vibration     2          0.611              1.925              2.978
 Vibration     3          0.637              1.842              2.147
 Vibration     4          0.714              1.613              1.253
 Vibration     5          0.737              1.548              1.109
 Vibration     6          0.797              1.390              0.837
 Vibration     7          0.826              1.319              0.740
 Vibration     8          0.829              1.311              0.730
 Vibration     9          0.945              1.057              0.470

 Optimization completed.
    -- Stationary point found.
 Normal termination of Gaussian 09 at Mon Jan 27 14:01:44 2020.
