 Gaussian 09, Revision D.01,
 Gaussian 09:  ES64L-G09RevD.01 24-Apr-2013

 -----------------------------
 # b3lyp 6-31G(2df,p) opt Freq
 -----------------------------

 -----
 titel
 -----
 Symbolic Z-matrix:
 Charge =  0 Multiplicity = 1

 SCF Done:  E(RB3LYP) =  -423.149870190     A.U. after   12 cycles
 Optimization completed.
    -- Stationary point found.
 Normal termination of Gaussian 09 at Mon Jan 27 18:48:50 2020.

 ----------------------------------------------------------------------
 #N Geom=AllCheck Guess=TCheck SCRF=Check GenChk RB3LYP/6-31G(2df,p) Fr
 eq
 ----------------------------------------------------------------------

 Structure from the checkpoint file:  "/scratch/puck/g09_703fe0b8-3994-42d2-aa49-258e3e254c6a/Gau-116413.chk"
 -----
 titel
 -----
 Charge =  0 Multiplicity = 1

                         Standard orientation:
 ---------------------------------------------------------------------
 Center     Atomic      Atomic             Coordinates (Angstroms)
 Number     Number       Type             X           Y           Z
 ---------------------------------------------------------------------
      1          8           0       -2.348947   -0.328519    0.089531
      2          6           0       -1.027615    0.110320    0.011796
      3          6           0       -0.774031    1.622552    0.008930
      4          6           0        0.773908    1.622598   -0.008930
      5          6           0        1.027594    0.110382   -0.011796
      6          8           0        2.348953   -0.328374   -0.089533
      7          6           0        0.006921   -0.591726   -0.946866
      8          6           0        0.000109   -1.819365   -0.000002
      9          6           0       -0.006894   -0.591727    0.946864
     10          1           0       -2.828899    0.027965   -0.665638
     11          1           0       -1.208648    2.107659   -0.872695
     12          1           0       -1.200767    2.100199    0.895861
     13          1           0        1.200617    2.100270   -0.895859
     14          1           0        1.208495    2.107730    0.872696
     15          1           0        2.828865    0.028076    0.665677
     16          1           0        0.014191   -0.571578   -2.039157
     17          1           0       -0.905849   -2.425962   -0.002957
     18          1           0        0.906157   -2.425833    0.002953
     19          1           0       -0.014168   -0.571582    2.039156
 ---------------------------------------------------------------------

 SCF Done:  E(RB3LYP) =  -423.149870190     A.U. after    1 cycles

 The electronic state is 1-A.
 Alpha  occ. eigenvalues --  -19.14188 -19.14188 -10.23698 -10.23697 -10.18621
 Alpha  occ. eigenvalues --  -10.18619 -10.18079 -10.18059 -10.17338  -1.03350
 Alpha  occ. eigenvalues --   -1.02548  -0.90536  -0.77443  -0.67109  -0.63176
 Alpha  occ. eigenvalues --   -0.63067  -0.58523  -0.54905  -0.49581  -0.48448
 Alpha  occ. eigenvalues --   -0.45953  -0.44026  -0.43203  -0.42846  -0.38761
 Alpha  occ. eigenvalues --   -0.36129  -0.34821  -0.33563  -0.33261  -0.31607
 Alpha  occ. eigenvalues --   -0.29578  -0.28716  -0.25941  -0.25205
 Alpha virt. eigenvalues --    0.07603   0.07736   0.10110   0.12588   0.14064
 Alpha virt. eigenvalues --    0.14741   0.15404   0.17025   0.17321   0.17772
 Alpha virt. eigenvalues --    0.18898   0.19463   0.20013   0.21066   0.22990

 Mulliken charges:
               1
     1  O   -0.487571
     2  C    0.455526
     3  C   -0.307684
     4  C   -0.307685
     5  C    0.455536
     6  O   -0.487571
     7  C   -0.170336
     8  C   -0.257786
     9  C   -0.170338
    10  H    0.279674
    11  H    0.090149
    12  H    0.105165
    13  H    0.105164
    14  H    0.090148
    15  H    0.279675
    16  H    0.061375
    17  H    0.102589
    18  H    0.102596
    19  H    0.061374
 Sum of Mulliken charges =   0.00000

 Dipole moment (field-independent basis, Debye):
    X=              0.0000    Y=              1.6986    Z=              0.0001  Tot=              1.6986
 Quadrupole moment (field-independent basis, Debye-Ang):
   XX=            -52.4273   YY=            -54.0659   ZZ=            -50.7344
   XY=             -0.0004   XZ=              7.3600   YZ=              0.0001

  Exact polarizability:  78.462  -0.001  78.126   2.648   0.000  67.080
 Approx polarizability: 113.226   0.000 107.128   2.384   0.000 108.492

                      1                      2                      3
                      A                      A                      A
 Frequencies --    217.2639               229.8685               275.3554
 Red. masses --      1.7736                 2.2535                 1.1687
 Frc consts  --      0.0493                 0.0702                 0.0522
 IR Inten    --      0.3039                17.4932                80.6588

                      4                      5                      6
                      A                      A                      A
 Frequencies --    291.3767               336.9025               346.5509
 Red. masses --      1.4160                 4.2527                 3.0648
 Frc consts  --      0.0708                 0.2844                 0.2169
 IR Inten    --     36.5645                48.2231                18.2510

                      7                      8                      9
                      A                      A                      A
 Frequencies --    384.6861               460.3219               482.0179
 Red. masses --      2.4625                 2.5832                 3.0292
 Frc consts  --      0.2147                 0.3225                 0.4147
 IR Inten    --      3.8132                 6.6306                 1.3594

                     10                     11                     12
                      A                      A                      A
 Frequencies --    589.9232               669.9652               688.4400
 Red. masses --      9.1779                 4.0768                 4.2687
 Frc consts  --      1.8818                 1.0781                 1.1920
 IR Inten    --      0.2333                 5.5157                 2.1207

                     13                     14                     15
                      A                      A                      A
 Frequencies --    708.1222               710.7153               823.8890
 Red. masses --      3.2654                 2.8524                 1.3849
 Frc consts  --      0.9647                 0.8489                 0.5539
 IR Inten    --      0.0860                 0.1464                 0.1118

                     16                     17                     18
                      A                      A                      A
 Frequencies --    858.8885               915.9523               946.4009
 Red. masses --      2.0784                 2.0770                 1.9772
 Frc consts  --      0.9033                 1.0267                 1.0434
 IR Inten    --      2.1820                 0.2562                11.4136

                     19                     20                     21
                      A                      A                      A
 Frequencies --    983.5487               999.0032              1009.7739
 Red. masses --      2.4668                 1.4280                 1.1510
 Frc consts  --      1.4060                 0.8397                 0.6915
 IR Inten    --      0.6523                 5.9225                 0.0554

                     22                     23                     24
                      A                      A                      A
 Frequencies --   1028.6808              1091.5390              1093.8384
 Red. masses --      3.9670                 1.7204                 1.5499
 Frc consts  --      2.4733                 1.2077                 1.0926
 IR Inten    --      2.3039                 4.8945                80.7349

                     25                     26                     27
                      A                      A                      A
 Frequencies --   1109.7349              1139.3144              1147.3773
 Red. masses --      1.8990                 1.4559                 2.3268
 Frc consts  --      1.3779                 1.1134                 1.8048
 IR Inten    --     68.1457                 0.0002                 8.4626

                     28                     29                     30
                      A                      A                      A
 Frequencies --   1161.7907              1185.6929              1221.7535
 Red. masses --      2.8012                 1.6054                 1.4525
 Frc consts  --      2.2277                 1.3298                 1.2774
 IR Inten    --      2.2399                51.3203                48.6552

                     31                     32                     33
                      A                      A                      A
 Frequencies --   1226.6339              1238.8403              1252.9551
 Red. masses --      1.2919                 1.4985                 2.2895
 Frc consts  --      1.1452                 1.3550                 2.1176
 IR Inten    --      0.0699                 8.7463                97.7270

                     34                     35                     36
                      A                      A                      A
 Frequencies --   1268.2437              1298.8286              1323.7156
 Red. masses --      1.8291                 2.7052                 1.8739
 Frc consts  --      1.7334                 2.6888                 1.9346
 IR Inten    --      4.8227                53.8760                91.2800

                     37                     38                     39
                      A                      A                      A
 Frequencies --   1378.6479              1398.1748              1485.3221
 Red. masses --      1.7995                 2.1114                 1.0843
 Frc consts  --      2.0151                 2.4319                 1.4094
 IR Inten    --      6.9892                 6.5112                 0.0947

                     40                     41                     42
                      A                      A                      A
 Frequencies --   1497.3951              1510.3510              3034.2427
 Red. masses --      1.1402                 1.1347                 1.0595
 Frc consts  --      1.5063                 1.5251                 5.7474
 IR Inten    --      1.1651                 1.0446                45.3615

                     43                     44                     45
                      A                      A                      A
 Frequencies --   3041.6833              3077.9131              3078.7720
 Red. masses --      1.0665                 1.0703                 1.0918
 Frc consts  --      5.8134                 5.9740                 6.0975
 IR Inten    --     39.6396                13.3871                19.7553

                     46                     47                     48
                      A                      A                      A
 Frequencies --   3082.6605              3094.3683              3095.3971
 Red. masses --      1.0895                 1.0818                 1.1033
 Frc consts  --      6.1002                 6.1030                 6.2285
 IR Inten    --     99.8612                13.0849                46.3913

                     49                     50                     51
                      A                      A                      A
 Frequencies --   3151.4353              3804.6599              3805.1083
 Red. masses --      1.1119                 1.0659                 1.0658
 Frc consts  --      6.5064                 9.0910                 9.0920
 IR Inten    --     18.2613                 0.9957                41.6233

 - Thermochemistry -
 -------------------
 Temperature   298.150 Kelvin.  Pressure   1.00000 Atm.
 Atom     1 has atomic number  8 and mass  15.99491

 Molecular mass:   126.06808 amu.
 Principal axes and moments of inertia in atomic units:
                           1         2         3
     Eigenvalues --   641.06034 978.717551375.93224
           X            0.99984  -0.00001   0.01770
           Y            0.00001   1.00000   0.00000
           Z           -0.01770   0.00000   0.99984
 This molecule is an asymmetric top.
 Rotational symmetry number  1.
 Warning -- assumption of classical behavior for rotation
           may cause significant error
 Rotational temperatures (Kelvin)      0.13511     0.08850     0.06295
 Rotational constants (GHZ):           2.81524     1.84399     1.31165
 Zero-point vibrational energy     420212.5 (Joules/Mol)
                                  100.43319 (Kcal/Mol)
 Warning -- explicit consideration of  10 degrees of freedom as
           vibrations may cause significant error
 Vibrational temperatures:    312.59   330.73   396.17   419.23   484.73
          (Kelvin)            498.61   553.48   662.30   693.52   848.77
                              963.93   990.51  1018.83  1022.56  1185.39
                             1235.75  1317.85  1361.66  1415.11  1437.34
                             1452.84  1480.04  1570.48  1573.79  1596.66
                             1639.22  1650.82  1671.56  1705.95  1757.83
                             1764.85  1782.41  1802.72  1824.72  1868.72
                             1904.53  1983.56  2011.66  2137.04  2154.41
                             2173.06  4365.59  4376.30  4428.42  4429.66
                             4435.26  4452.10  4453.58  4534.21  5474.05
                             5474.70

 Zero-point correction=                           0.160050 (Hartree/Particle)
 Thermal correction to Energy=                    0.167653
 Thermal correction to Enthalpy=                  0.168598
 Thermal correction to Gibbs Free Energy=         0.128772
 Sum of electronic and zero-point Energies=           -422.989820
 Sum of electronic and thermal Energies=              -422.982217
 Sum of electronic and thermal Enthalpies=            -422.981273
 Sum of electronic and thermal Free Energies=         -423.021098

                     E (Thermal)             CV                S
                      KCal/Mol        Cal/Mol-Kelvin    Cal/Mol-Kelvin
 Total                  105.204             31.698             83.819
 Electronic               0.000              0.000              0.000
 Translational            0.889              2.981             40.409
 Rotational               0.889              2.981             28.248
 Vibrational            103.427             25.736             15.163
 Vibration     1          0.646              1.815              1.982
 Vibration     2          0.652              1.795              1.880
 Vibration     3          0.677              1.719              1.562
 Vibration     4          0.687              1.690              1.466
 Vibration     5          0.718              1.602              1.227
 Vibration     6          0.725              1.582              1.182
 Vibration     7          0.754              1.503              1.021
 Vibration     8          0.818              1.338              0.765
 Vibration     9          0.838              1.290              0.705
 Vibration    10          0.947              1.053              0.467

 Optimization completed.
    -- Stationary point found.
 Normal termination of Gaussian 09 at Mon Jan 27 19:32:12 2020.
