 Gaussian 09, Revision D.01,
 Gaussian 09:  ES64L-G09RevD.01 24-Apr-2013

 -----------------------------
 # b3lyp 6-31G(2df,p) opt Freq
 -----------------------------

 -----
 titel
 -----
 Symbolic Z-matrix:
 Charge =  0 Multiplicity = 1

 SCF Done:  E(RB3LYP) =  -423.227558320     A.U. after   14 cycles
 Optimization completed.
    -- Stationary point found.
 Normal termination of Gaussian 09 at Mon Jan 27 13:05:28 2020.

 ----------------------------------------------------------------------
 #N Geom=AllCheck Guess=TCheck SCRF=Check GenChk RB3LYP/6-31G(2df,p) Fr
 eq
 ----------------------------------------------------------------------

 Structure from the checkpoint file:  "/scratch/puck/g09_2637b7a8-34a9-4c55-acfe-27a9f58f3967/Gau-21083.chk"
 -----
 titel
 -----
 Charge =  0 Multiplicity = 1

                         Standard orientation:
 ---------------------------------------------------------------------
 Center     Atomic      Atomic             Coordinates (Angstroms)
 Number     Number       Type             X           Y           Z
 ---------------------------------------------------------------------
      1          8           0       -2.549989   -0.366734    0.101737
      2          6           0       -1.383598   -0.120120   -0.085652
      3          6           0       -0.859452    1.225515   -0.576091
      4          6           0        0.397494    1.683971    0.208995
      5          6           0        1.355357    0.517209    0.525932
      6          6           0        1.716023   -0.282388   -0.733614
      7          8           0        0.617310   -1.182544   -0.946943
      8          6           0       -0.260792   -1.129957    0.183808
      9          6           0        0.600084   -0.563850    1.322962
     10          1           0       -0.598838    1.090828   -1.633151
     11          1           0       -1.664310    1.961897   -0.526882
     12          1           0        0.921265    2.459164   -0.360875
     13          1           0        0.086269    2.146396    1.153242
     14          1           0        2.244580    0.885312    1.044229
     15          1           0        1.838099    0.347145   -1.622807
     16          1           0        2.639235   -0.861118   -0.595617
     17          1           0       -0.679360   -2.122774    0.359149
     18          1           0        0.009301   -0.163370    2.151556
     19          1           0        1.274491   -1.331539    1.714759
 ---------------------------------------------------------------------

 SCF Done:  E(RB3LYP) =  -423.227558320     A.U. after    1 cycles

 The electronic state is 1-A.
 Alpha  occ. eigenvalues --  -19.14522 -19.12830 -10.26200 -10.23583 -10.23401
 Alpha  occ. eigenvalues --  -10.20416 -10.19937 -10.19767 -10.19199  -1.04683
 Alpha  occ. eigenvalues --   -1.03197  -0.83145  -0.76025  -0.75599  -0.66029
 Alpha  occ. eigenvalues --   -0.62117  -0.57815  -0.54472  -0.51190  -0.48655
 Alpha  occ. eigenvalues --   -0.45253  -0.44502  -0.43524  -0.41676  -0.40816
 Alpha  occ. eigenvalues --   -0.40225  -0.39998  -0.36532  -0.34868  -0.33414
 Alpha  occ. eigenvalues --   -0.33145  -0.31500  -0.27961  -0.22655
 Alpha virt. eigenvalues --   -0.01448   0.07270   0.10511   0.11666   0.12794
 Alpha virt. eigenvalues --    0.13669   0.14291   0.14762   0.15763   0.16598
 Alpha virt. eigenvalues --    0.17261   0.18542   0.19270   0.19734   0.21565

 Mulliken charges:
               1
     1  O   -0.318465
     2  C    0.405696
     3  C   -0.306753
     4  C   -0.226747
     5  C   -0.029333
     6  C   -0.078656
     7  O   -0.277269
     8  C    0.010390
     9  C   -0.250392
    10  H    0.138122
    11  H    0.119601
    12  H    0.105157
    13  H    0.108438
    14  H    0.076370
    15  H    0.103829
    16  H    0.100836
    17  H    0.093725
    18  H    0.115311
    19  H    0.110139
 Sum of Mulliken charges =   0.00000

 Dipole moment (field-independent basis, Debye):
    X=              3.1108    Y=              1.6389    Z=              0.9047  Tot=              3.6306
 Quadrupole moment (field-independent basis, Debye-Ang):
   XX=            -59.7115   YY=            -52.5036   ZZ=            -52.3585
   XY=             -0.9364   XZ=              1.0384   YZ=             -2.4466

  Exact polarizability:  82.975   1.096  72.986  -1.272  -3.283  65.437
 Approx polarizability: 122.736   4.731 104.055  -4.586  -2.432 100.882

                      1                      2                      3
                      A                      A                      A
 Frequencies --    104.1410               179.1546               251.9516
 Red. masses --      5.1415                 2.5530                 3.5594
 Frc consts  --      0.0329                 0.0483                 0.1331
 IR Inten    --      2.8648                 1.2117                 6.3454

                      4                      5                      6
                      A                      A                      A
 Frequencies --    347.8917               383.9875               429.4095
 Red. masses --      2.1401                 2.1120                 5.8087
 Frc consts  --      0.1526                 0.1835                 0.6311
 IR Inten    --      0.7194                 0.4677                 1.9350

                      7                      8                      9
                      A                      A                      A
 Frequencies --    461.8300               508.9519               631.4165
 Red. masses --      4.3404                 2.2626                 3.1709
 Frc consts  --      0.5454                 0.3453                 0.7448
 IR Inten    --     12.5866                 2.4613                 2.0871

                     10                     11                     12
                      A                      A                      A
 Frequencies --    708.3435               748.8350               800.0637
 Red. masses --      4.1300                 3.6615                 2.5931
 Frc consts  --      1.2209                 1.2097                 0.9780
 IR Inten    --      1.1990                 5.7383                 4.9947

                     13                     14                     15
                      A                      A                      A
 Frequencies --    816.2283               891.5811               896.3805
 Red. masses --      2.4313                 2.9318                 2.2870
 Frc consts  --      0.9544                 1.3731                 1.0827
 IR Inten    --      1.4645                10.9474                 3.0299

                     16                     17                     18
                      A                      A                      A
 Frequencies --    935.8695               942.7101               956.6159
 Red. masses --      2.5737                 2.0395                 1.9917
 Frc consts  --      1.3281                 1.0679                 1.0739
 IR Inten    --     12.9013                 6.2090                 2.1586

                     19                     20                     21
                      A                      A                      A
 Frequencies --   1001.2043              1027.6418              1054.4738
 Red. masses --      1.7937                 2.3251                 2.4054
 Frc consts  --      1.0593                 1.4467                 1.5758
 IR Inten    --      3.7573                12.7676                19.9939

                     22                     23                     24
                      A                      A                      A
 Frequencies --   1077.9486              1087.1221              1118.5440
 Red. masses --      2.8758                 1.4501                 1.5222
 Frc consts  --      1.9688                 1.0097                 1.1221
 IR Inten    --     51.5041                 1.3563                24.0259

                     25                     26                     27
                      A                      A                      A
 Frequencies --   1160.5424              1188.8091              1232.0886
 Red. masses --      1.2738                 1.4021                 1.2576
 Frc consts  --      1.0108                 1.1675                 1.1248
 IR Inten    --      4.4666                 5.2878                 8.0389

                     28                     29                     30
                      A                      A                      A
 Frequencies --   1241.1664              1264.0229              1297.9316
 Red. masses --      1.7771                 1.6016                 1.5844
 Frc consts  --      1.6129                 1.5077                 1.5726
 IR Inten    --     10.8039                 2.5127                 6.1819

                     31                     32                     33
                      A                      A                      A
 Frequencies --   1311.5728              1317.9496              1337.4978
 Red. masses --      1.2635                 1.7079                 1.4242
 Frc consts  --      1.2806                 1.7478                 1.5011
 IR Inten    --      0.8207                 5.5895                 1.2907

                     34                     35                     36
                      A                      A                      A
 Frequencies --   1356.2635              1368.6458              1390.6184
 Red. masses --      1.6375                 1.3393                 1.4206
 Frc consts  --      1.7747                 1.4781                 1.6186
 IR Inten    --      3.3114                 2.6986                 2.1345

                     37                     38                     39
                      A                      A                      A
 Frequencies --   1464.1267              1487.7132              1500.2034
 Red. masses --      1.0814                 1.0970                 1.0901
 Frc consts  --      1.3659                 1.4305                 1.4455
 IR Inten    --      6.9052                 6.2152                 3.6108

                     40                     41                     42
                      A                      A                      A
 Frequencies --   1531.5348              1829.0520              3009.7459
 Red. masses --      1.0923                11.6990                 1.0618
 Frc consts  --      1.5095                23.0596                 5.6669
 IR Inten    --      0.0976               191.3148                65.5876

                     43                     44                     45
                      A                      A                      A
 Frequencies --   3032.0545              3040.9823              3052.4096
 Red. masses --      1.0608                 1.0664                 1.0609
 Frc consts  --      5.7459                 5.8105                 5.8237
 IR Inten    --     27.3290                 5.8620                12.5344

                     46                     47                     48
                      A                      A                      A
 Frequencies --   3054.3745              3072.5295              3080.9175
 Red. masses --      1.1034                 1.1009                 1.0859
 Frc consts  --      6.0651                 6.1233                 6.0727
 IR Inten    --     28.8862                35.0693                42.7242

                     49                     50                     51
                      A                      A                      A
 Frequencies --   3102.4347              3105.6150              3114.2469
 Red. masses --      1.0936                 1.1007                 1.0982
 Frc consts  --      6.2020                 6.2546                 6.2754
 IR Inten    --     16.3506                22.0901                16.3358

 - Thermochemistry -
 -------------------
 Temperature   298.150 Kelvin.  Pressure   1.00000 Atm.
 Atom     1 has atomic number  8 and mass  15.99491

 Molecular mass:   126.06808 amu.
 Principal axes and moments of inertia in atomic units:
                           1         2         3
     Eigenvalues --   679.489991050.030381255.79556
           X            0.99990  -0.01019   0.00934
           Y            0.01077   0.99791  -0.06378
           Z           -0.00867   0.06388   0.99792
 This molecule is an asymmetric top.
 Rotational symmetry number  1.
 Warning -- assumption of classical behavior for rotation
           may cause significant error
 Rotational temperatures (Kelvin)      0.12747     0.08249     0.06897
 Rotational constants (GHZ):           2.65602     1.71875     1.43713
 Zero-point vibrational energy     426512.6 (Joules/Mol)
                                  101.93897 (Kcal/Mol)
 Warning -- explicit consideration of   8 degrees of freedom as
           vibrations may cause significant error
 Vibrational temperatures:    149.84   257.76   362.50   500.54   552.47
          (Kelvin)            617.82   664.47   732.27   908.47  1019.15
                             1077.41  1151.11  1174.37  1282.78  1289.69
                             1346.51  1356.35  1376.36  1440.51  1478.55
                             1517.15  1550.93  1564.12  1609.33  1669.76
                             1710.43  1772.70  1785.76  1818.64  1867.43
                             1887.06  1896.23  1924.36  1951.36  1969.17
                             2000.79  2106.55  2140.48  2158.46  2203.53
                             2631.59  4330.35  4362.44  4375.29  4391.73
                             4394.56  4420.68  4432.75  4463.71  4468.28
                             4480.70

 Zero-point correction=                           0.162450 (Hartree/Particle)
 Thermal correction to Energy=                    0.169620
 Thermal correction to Enthalpy=                  0.170564
 Thermal correction to Gibbs Free Energy=         0.130929
 Sum of electronic and zero-point Energies=           -423.065108
 Sum of electronic and thermal Energies=              -423.057939
 Sum of electronic and thermal Enthalpies=            -423.056994
 Sum of electronic and thermal Free Energies=         -423.096629

                     E (Thermal)             CV                S
                      KCal/Mol        Cal/Mol-Kelvin    Cal/Mol-Kelvin
 Total                  106.438             28.840             83.418
 Electronic               0.000              0.000              0.000
 Translational            0.889              2.981             40.409
 Rotational               0.889              2.981             28.284
 Vibrational            104.661             22.879             14.725
 Vibration     1          0.605              1.946              3.375
 Vibration     2          0.629              1.868              2.337
 Vibration     3          0.664              1.759              1.717
 Vibration     4          0.726              1.580              1.176
 Vibration     5          0.753              1.504              1.023
 Vibration     6          0.791              1.406              0.861
 Vibration     7          0.820              1.335              0.761
 Vibration     8          0.864              1.230              0.636

 Normal termination of Gaussian 09 at Mon Jan 27 13:55:49 2020.
