 Gaussian 09, Revision D.01,
 Gaussian 09:  ES64L-G09RevD.01 24-Apr-2013

 -----------------------------
 # b3lyp 6-31G(2df,p) opt Freq
 -----------------------------

 -----
 titel
 -----
 Symbolic Z-matrix:
 Charge =  0 Multiplicity = 1

 SCF Done:  E(RB3LYP) =  -423.089800627     A.U. after   14 cycles
 Optimization completed.
    -- Stationary point found.
 Normal termination of Gaussian 09 at Mon Jan 27 15:34:37 2020.

 ----------------------------------------------------------------------
 #N Geom=AllCheck Guess=TCheck SCRF=Check GenChk RB3LYP/6-31G(2df,p) Fr
 eq
 ----------------------------------------------------------------------

 Structure from the checkpoint file:  "/scratch/puck/g09_1c7ae823-58f3-4d05-add2-918f1952f570/Gau-44835.chk"
 -----
 titel
 -----
 Charge =  0 Multiplicity = 1

                         Standard orientation:
 ---------------------------------------------------------------------
 Center     Atomic      Atomic             Coordinates (Angstroms)
 Number     Number       Type             X           Y           Z
 ---------------------------------------------------------------------
      1          6           0       -2.357306    0.858709    0.405623
      2          6           0       -1.413897    0.014385   -0.449435
      3          8           0       -1.659130   -1.362026   -0.174355
      4          6           0        0.037442    0.340448   -0.209198
      5          6           0        0.835306    1.664839   -0.249649
      6          6           0        1.915836    0.622920    0.122854
      7          6           0        0.912370   -0.215610    0.966812
      8          8           0        1.207452   -1.486013    0.290964
      9          6           0        1.258345   -0.469564   -0.766055
     10          1           0       -2.126059    0.736521    1.468596
     11          1           0       -2.283349    1.919868    0.146504
     12          1           0       -3.387864    0.532370    0.242659
     13          1           0       -1.636770    0.214576   -1.512128
     14          1           0       -0.806453   -1.805784   -0.063759
     15          1           0        0.937356    2.143263   -1.227669
     16          1           0        0.589352    2.407544    0.513901
     17          1           0        2.979787    0.753481    0.315889
     18          1           0        0.730288   -0.228301    2.040595
     19          1           0        1.488561   -0.785989   -1.783171
 ---------------------------------------------------------------------

 SCF Done:  E(RB3LYP) =  -423.089800627     A.U. after    1 cycles

 The electronic state is 1-A.
 Alpha  occ. eigenvalues --  -19.14621 -19.11888 -10.25606 -10.25585 -10.23252
 Alpha  occ. eigenvalues --  -10.21280 -10.21233 -10.20091 -10.17266  -1.07284
 Alpha  occ. eigenvalues --   -1.00235  -0.87946  -0.75395  -0.66779  -0.66342
 Alpha  occ. eigenvalues --   -0.66106  -0.59630  -0.53711  -0.52138  -0.47934
 Alpha  occ. eigenvalues --   -0.46776  -0.46408  -0.43822  -0.39760  -0.39030
 Alpha  occ. eigenvalues --   -0.38326  -0.38081  -0.36465  -0.32027  -0.31838
 Alpha  occ. eigenvalues --   -0.31157  -0.30494  -0.25798  -0.24425
 Alpha virt. eigenvalues --    0.06180   0.09455   0.10514   0.11204   0.11766
 Alpha virt. eigenvalues --    0.13325   0.14291   0.14570   0.15416   0.16070
 Alpha virt. eigenvalues --    0.17062   0.17811   0.18064   0.18465   0.19125

 Mulliken charges:
               1
     1  C   -0.391072
     2  C    0.019007
     3  O   -0.457455
     4  C    0.305408
     5  C   -0.342086
     6  C   -0.099818
     7  C    0.047598
     8  O   -0.335789
     9  C    0.030234
    10  H    0.114344
    11  H    0.109817
    12  H    0.127590
    13  H    0.067794
    14  H    0.294909
    15  H    0.105727
    16  H    0.107929
    17  H    0.090630
    18  H    0.103847
    19  H    0.101384
 Sum of Mulliken charges =   0.00000

 Dipole moment (field-independent basis, Debye):
    X=              1.3769    Y=              2.5115    Z=             -0.2766  Tot=              2.8774
 Quadrupole moment (field-independent basis, Debye-Ang):
   XX=            -55.9167   YY=            -56.9389   ZZ=            -50.0157
   XY=             -1.0714   XZ=             -0.9226   YZ=              0.7106

  Exact polarizability:  81.194  -0.503  74.002  -0.676  -0.141  68.399
 Approx polarizability: 109.253  -0.712 114.088  -0.196  -1.578 108.362

                      1                      2                      3
                      A                      A                      A
 Frequencies --     53.0924               174.6933               187.9142
 Red. masses --      4.2137                 3.3783                 2.2561
 Frc consts  --      0.0070                 0.0607                 0.0469
 IR Inten    --      2.7127                 2.0640                 1.2580

                      4                      5                      6
                      A                      A                      A
 Frequencies --    236.1626               309.6196               392.9631
 Red. masses --      1.3167                 2.6583                 2.7262
 Frc consts  --      0.0433                 0.1501                 0.2480
 IR Inten    --      0.9638                10.0803                 3.8309

                      7                      8                      9
                      A                      A                      A
 Frequencies --    414.7401               436.9703               505.9540
 Red. masses --      3.1618                 1.5269                 1.8512
 Frc consts  --      0.3204                 0.1718                 0.2792
 IR Inten    --      1.9320                38.3037                12.3470

                     10                     11                     12
                      A                      A                      A
 Frequencies --    559.9236               684.9929               751.6928
 Red. masses --      3.3398                 2.8880                 3.0922
 Frc consts  --      0.6169                 0.7984                 1.0294
 IR Inten    --      2.4662                 4.6223                 0.5658

                     13                     14                     15
                      A                      A                      A
 Frequencies --    779.7372               818.2207               856.5340
 Red. masses --      4.4589                 5.0923                 2.0353
 Frc consts  --      1.5973                 2.0086                 0.8798
 IR Inten    --      2.4291                19.8370                 5.0035

                     16                     17                     18
                      A                      A                      A
 Frequencies --    879.7770               886.2530               909.9274
 Red. masses --      2.2041                 2.2364                 2.6885
 Frc consts  --      1.0051                 1.0349                 1.3115
 IR Inten    --      3.4682                21.5369                 8.3997

                     19                     20                     21
                      A                      A                      A
 Frequencies --    929.9180               999.9087              1011.0344
 Red. masses --      2.0559                 1.3268                 1.9125
 Frc consts  --      1.0475                 0.7816                 1.1518
 IR Inten    --     12.3916                 3.6784                14.4689

                     22                     23                     24
                      A                      A                      A
 Frequencies --   1050.4456              1066.3054              1081.6800
 Red. masses --      2.0555                 1.6204                 3.2404
 Frc consts  --      1.3363                 1.0855                 2.2338
 IR Inten    --      4.5528                 1.6359                38.6625

                     25                     26                     27
                      A                      A                      A
 Frequencies --   1091.1584              1134.4550              1142.2765
 Red. masses --      1.8964                 2.0056                 1.8752
 Frc consts  --      1.3303                 1.5208                 1.4416
 IR Inten    --      6.7642                15.5983                 3.7092

                     28                     29                     30
                      A                      A                      A
 Frequencies --   1148.2675              1169.5229              1174.5804
 Red. masses --      2.0062                 1.3560                 1.6947
 Frc consts  --      1.5585                 1.0927                 1.3775
 IR Inten    --      5.7333                 2.2382                 7.5577

                     31                     32                     33
                      A                      A                      A
 Frequencies --   1222.3003              1248.2928              1293.2174
 Red. masses --      1.8480                 1.9976                 1.5613
 Frc consts  --      1.6267                 1.8339                 1.5384
 IR Inten    --     11.2899                 3.3658                11.8124

                     34                     35                     36
                      A                      A                      A
 Frequencies --   1333.3236              1349.9236              1364.3795
 Red. masses --      1.4109                 2.4119                 1.2247
 Frc consts  --      1.4778                 2.5895                 1.3432
 IR Inten    --      8.5436                32.7712                12.7708

                     37                     38                     39
                      A                      A                      A
 Frequencies --   1401.1459              1453.6371              1490.3269
 Red. masses --      1.2852                 1.3427                 1.1056
 Frc consts  --      1.4866                 1.6716                 1.4468
 IR Inten    --      7.0671                78.0820                16.4222

                     40                     41                     42
                      A                      A                      A
 Frequencies --   1496.9378              1516.9655              2945.2420
 Red. masses --      1.1050                 1.1638                 1.0819
 Frc consts  --      1.4589                 1.5779                 5.5297
 IR Inten    --      4.7608                 0.3686                54.4767

                     43                     44                     45
                      A                      A                      A
 Frequencies --   3037.0544              3054.0677              3109.6992
 Red. masses --      1.0348                 1.0553                 1.1020
 Frc consts  --      5.6237                 5.7992                 6.2789
 IR Inten    --     13.7627                38.2078                29.3115

                     46                     47                     48
                      A                      A                      A
 Frequencies --   3110.8811              3120.7324              3121.9348
 Red. masses --      1.1097                 1.1014                 1.0887
 Frc consts  --      6.3271                 6.3198                 6.2520
 IR Inten    --     18.7788                18.8157                30.2342

                     49                     50                     51
                      A                      A                      A
 Frequencies --   3127.5517              3140.1225              3719.9646
 Red. masses --      1.0898                 1.0996                 1.0675
 Frc consts  --      6.2808                 6.3881                 8.7032
 IR Inten    --     52.9464                22.8814               107.9863

 - Thermochemistry -
 -------------------
 Temperature   298.150 Kelvin.  Pressure   1.00000 Atm.
 Atom     1 has atomic number  6 and mass  12.00000

 Molecular mass:   126.06808 amu.
 Principal axes and moments of inertia in atomic units:
                           1         2         3
     Eigenvalues --   626.402181131.556781474.01622
           X            0.99978  -0.01711  -0.01192
           Y            0.01725   0.99979   0.01135
           Z            0.01173  -0.01155   0.99986
 This molecule is an asymmetric top.
 Rotational symmetry number  1.
 Warning -- assumption of classical behavior for rotation
           may cause significant error
 Rotational temperatures (Kelvin)      0.13827     0.07654     0.05876
 Rotational constants (GHZ):           2.88112     1.59492     1.22437
 Zero-point vibrational energy     415680.9 (Joules/Mol)
                                   99.35012 (Kcal/Mol)
 Warning -- explicit consideration of  10 degrees of freedom as
           vibrations may cause significant error
 Vibrational temperatures:     76.39   251.34   270.37   339.78   445.47
          (Kelvin)            565.39   596.72   628.70   727.95   805.60
                              985.55  1081.52  1121.87  1177.24  1232.36
                             1265.80  1275.12  1309.18  1337.94  1438.64
                             1454.65  1511.36  1534.17  1556.29  1569.93
                             1632.23  1643.48  1652.10  1682.68  1689.96
                             1758.62  1796.01  1860.65  1918.35  1942.24
                             1963.04  2015.93  2091.46  2144.25  2153.76
                             2182.57  4237.54  4369.64  4394.12  4474.16
                             4475.86  4490.03  4491.76  4499.84  4517.93
                             5352.19

 Zero-point correction=                           0.158324 (Hartree/Particle)
 Thermal correction to Energy=                    0.166401
 Thermal correction to Enthalpy=                  0.167345
 Thermal correction to Gibbs Free Energy=         0.125563
 Sum of electronic and zero-point Energies=           -422.931476
 Sum of electronic and thermal Energies=              -422.923400
 Sum of electronic and thermal Enthalpies=            -422.922456
 Sum of electronic and thermal Free Energies=         -422.964238

                     E (Thermal)             CV                S
                      KCal/Mol        Cal/Mol-Kelvin    Cal/Mol-Kelvin
 Total                  104.418             31.692             87.938
 Electronic               0.000              0.000              0.000
 Translational            0.889              2.981             40.409
 Rotational               0.889              2.981             28.437
 Vibrational            102.641             25.731             19.092
 Vibration     1          0.596              1.976              4.699
 Vibration     2          0.627              1.874              2.384
 Vibration     3          0.633              1.856              2.248
 Vibration     4          0.655              1.785              1.832
 Vibration     5          0.699              1.655              1.364
 Vibration     6          0.760              1.485              0.989
 Vibration     7          0.778              1.438              0.910
 Vibration     8          0.797              1.390              0.836
 Vibration     9          0.861              1.237              0.643
 Vibration    10          0.916              1.118              0.524

 Optimization completed.
    -- Stationary point found.
 Normal termination of Gaussian 09 at Mon Jan 27 16:19:36 2020.
 Normal termination of Gaussian 09 at Mon Jan 27 15:43:28 2020.
