 Gaussian 09, Revision D.01,
 Gaussian 09:  ES64L-G09RevD.01 24-Apr-2013

 -----------------------------
 # b3lyp 6-31G(2df,p) opt Freq
 -----------------------------

 -----
 titel
 -----
 Symbolic Z-matrix:
 Charge =  0 Multiplicity = 1

 SCF Done:  E(RB3LYP) =  -423.185625921     A.U. after   13 cycles
 Optimization completed.
    -- Stationary point found.
 Normal termination of Gaussian 09 at Tue Jan 28 08:12:07 2020.

 ----------------------------------------------------------------------
 #N Geom=AllCheck Guess=TCheck SCRF=Check GenChk RB3LYP/6-31G(2df,p) Fr
 eq
 ----------------------------------------------------------------------

 Structure from the checkpoint file:  "/scratch/puck/g09_75a95c9b-1a6a-4744-b2b2-1ad220ac5ab8/Gau-14417.chk"
 -----
 titel
 -----
 Charge =  0 Multiplicity = 1

                         Standard orientation:
 ---------------------------------------------------------------------
 Center     Atomic      Atomic             Coordinates (Angstroms)
 Number     Number       Type             X           Y           Z
 ---------------------------------------------------------------------
      1          6           0        2.261514   -1.213824    0.402558
      2          6           0        1.434434   -0.282806   -0.478183
      3          8           0        1.589270    1.096721   -0.053046
      4          6           0        0.341734    1.632448    0.408407
      5          6           0       -0.709774    0.854951   -0.395961
      6          8           0       -1.981679    0.643665    0.186400
      7          6           0       -2.257894   -0.764320    0.172524
      8          6           0       -0.921023   -1.428172   -0.079049
      9          6           0       -0.044500   -0.493303   -0.419288
     10          1           0        2.187657   -2.245664    0.042669
     11          1           0        3.312771   -0.915234    0.378887
     12          1           0        1.910367   -1.179632    1.437418
     13          1           0        1.808725   -0.335442   -1.510840
     14          1           0        0.187227    1.451634    1.482468
     15          1           0        0.362223    2.709510    0.224477
     16          1           0       -0.813805    1.298568   -1.400314
     17          1           0       -2.688227   -1.052147    1.141035
     18          1           0       -3.007838   -0.998681   -0.601398
     19          1           0       -0.746770   -2.485842    0.072710
 ---------------------------------------------------------------------

 SCF Done:  E(RB3LYP) =  -423.185625921     A.U. after    1 cycles

 The electronic state is 1-A.
 Alpha  occ. eigenvalues --  -19.13975 -19.13538 -10.24198 -10.23617 -10.23139
 Alpha  occ. eigenvalues --  -10.22462 -10.19271 -10.19020 -10.17940  -1.04290
 Alpha  occ. eigenvalues --   -1.02260  -0.80635  -0.76348  -0.74809  -0.67161
 Alpha  occ. eigenvalues --   -0.61989  -0.58181  -0.55197  -0.50786  -0.49828
 Alpha  occ. eigenvalues --   -0.46221  -0.44597  -0.43327  -0.41862  -0.40669
 Alpha  occ. eigenvalues --   -0.39279  -0.38969  -0.36234  -0.35690  -0.32531
 Alpha  occ. eigenvalues --   -0.30805  -0.27497  -0.24894  -0.23868
 Alpha virt. eigenvalues --    0.00486   0.09181   0.10001   0.11957   0.12613
 Alpha virt. eigenvalues --    0.13310   0.13545   0.14943   0.16035   0.16951
 Alpha virt. eigenvalues --    0.17566   0.18604   0.19549   0.20393   0.22233

 Mulliken charges:
               1
     1  C   -0.392246
     2  C    0.043565
     3  O   -0.291825
     4  C   -0.106401
     5  C    0.051907
     6  O   -0.280220
     7  C   -0.110674
     8  C   -0.275340
     9  C    0.284735
    10  H    0.114842
    11  H    0.128254
    12  H    0.123003
    13  H    0.093115
    14  H    0.097352
    15  H    0.108947
    16  H    0.082518
    17  H    0.114928
    18  H    0.105285
    19  H    0.108255
 Sum of Mulliken charges =   0.00000

 Dipole moment (field-independent basis, Debye):
    X=             -0.1282    Y=             -1.8767    Z=             -0.2836  Tot=              1.9023
 Quadrupole moment (field-independent basis, Debye-Ang):
   XX=            -56.2416   YY=            -51.1009   ZZ=            -52.4849
   XY=              0.4737   XZ=             -0.1243   YZ=             -0.6179

  Exact polarizability:  88.881   5.831  81.861  -3.454  -2.301  60.891
 Approx polarizability: 121.255  14.474 121.572  -9.738  -5.488  94.374

                      1                      2                      3
                      A                      A                      A
 Frequencies --     81.0338               153.2304               167.5372
 Red. masses --      3.8470                 2.4801                 2.9424
 Frc consts  --      0.0149                 0.0343                 0.0487
 IR Inten    --      0.0603                 6.6800                 1.7464

                      4                      5                      6
                      A                      A                      A
 Frequencies --    234.2158               277.8624               344.0840
 Red. masses --      1.0787                 2.3175                 3.1921
 Frc consts  --      0.0349                 0.1054                 0.2227
 IR Inten    --      0.0637                 0.0931                 2.9164

                      7                      8                      9
                      A                      A                      A
 Frequencies --    423.6962               467.0601               587.4289
 Red. masses --      3.2373                 3.3733                 5.5916
 Frc consts  --      0.3424                 0.4336                 1.1368
 IR Inten    --      1.9694                 3.0967                 0.2177

                     10                     11                     12
                      A                      A                      A
 Frequencies --    633.1163               674.2971               773.1422
 Red. masses --      2.9765                 3.5555                 4.4175
 Frc consts  --      0.7030                 0.9525                 1.5558
 IR Inten    --      2.8434                 4.8282                 6.0006

                     13                     14                     15
                      A                      A                      A
 Frequencies --    821.7889               833.5786               866.0064
 Red. masses --      2.3369                 1.5583                 2.5952
 Frc consts  --      0.9298                 0.6380                 1.1467
 IR Inten    --     20.1600                 5.0001                 8.9384

                     16                     17                     18
                      A                      A                      A
 Frequencies --    932.5283               968.7379               991.7662
 Red. masses --      2.1576                 2.8558                 3.3068
 Frc consts  --      1.1054                 1.5790                 1.9164
 IR Inten    --      1.1283                19.2118                40.3625

                     19                     20                     21
                      A                      A                      A
 Frequencies --   1010.9570              1036.5627              1068.1509
 Red. masses --      2.9446                 1.7484                 3.5421
 Frc consts  --      1.7731                 1.1069                 2.3811
 IR Inten    --     32.6594                10.2888                59.5725

                     22                     23                     24
                      A                      A                      A
 Frequencies --   1077.8007              1086.6579              1112.0981
 Red. masses --      1.8838                 2.0760                 2.3089
 Frc consts  --      1.2893                 1.4443                 1.6824
 IR Inten    --      3.1496                 5.1905                14.5915

                     25                     26                     27
                      A                      A                      A
 Frequencies --   1140.4474              1181.1128              1197.5277
 Red. masses --      3.8804                 2.1269                 1.0896
 Frc consts  --      2.9735                 1.7482                 0.9206
 IR Inten    --     65.6676                17.6061                 1.2577

                     28                     29                     30
                      A                      A                      A
 Frequencies --   1212.4527              1262.4095              1302.9174
 Red. masses --      1.2171                 1.4145                 1.6374
 Frc consts  --      1.0541                 1.3282                 1.6377
 IR Inten    --      4.7167                 0.5395                 0.9828

                     31                     32                     33
                      A                      A                      A
 Frequencies --   1315.1905              1347.5641              1361.4983
 Red. masses --      1.3927                 1.3516                 1.3564
 Frc consts  --      1.4193                 1.4461                 1.4814
 IR Inten    --      7.9594                24.2368                 8.6572

                     34                     35                     36
                      A                      A                      A
 Frequencies --   1378.7332              1395.5403              1402.8702
 Red. masses --      1.5171                 1.4201                 1.2959
 Frc consts  --      1.6991                 1.6295                 1.5027
 IR Inten    --      8.4891                 2.4697                 6.0896

                     37                     38                     39
                      A                      A                      A
 Frequencies --   1486.8961              1492.6694              1517.2437
 Red. masses --      1.0544                 1.0470                 1.0907
 Frc consts  --      1.3735                 1.3745                 1.4793
 IR Inten    --      1.3585                 3.2274                 1.7662

                     40                     41                     42
                      A                      A                      A
 Frequencies --   1518.2049              1750.8880              2958.6869
 Red. masses --      1.0879                 8.5559                 1.0799
 Frc consts  --      1.4775                15.4537                 5.5698
 IR Inten    --      0.7119                 0.3551                48.0177

                     43                     44                     45
                      A                      A                      A
 Frequencies --   2965.2376              2993.8526              2999.2260
 Red. masses --      1.0723                 1.0825                 1.0681
 Frc consts  --      5.5549                 5.7166                 5.6606
 IR Inten    --     82.0600                56.3229                43.2883

                     46                     47                     48
                      A                      A                      A
 Frequencies --   3027.4413              3039.9247              3097.1430
 Red. masses --      1.0907                 1.0353                 1.0975
 Frc consts  --      5.8900                 5.6367                 6.2026
 IR Inten    --     42.1874                15.2262                41.4680

                     49                     50                     51
                      A                      A                      A
 Frequencies --   3112.6076              3127.6413              3216.1575
 Red. masses --      1.1002                 1.1032                 1.0958
 Frc consts  --      6.2800                 6.3582                 6.6784
 IR Inten    --     19.7396                22.0161                 5.1428

 - Thermochemistry -
 -------------------
 Temperature   298.150 Kelvin.  Pressure   1.00000 Atm.
 Atom     1 has atomic number  6 and mass  12.00000

 Molecular mass:   126.06808 amu.
 Principal axes and moments of inertia in atomic units:
                           1         2         3
     Eigenvalues --   602.288771181.672221625.92060
           X            0.99982  -0.01818   0.00556
           Y            0.01825   0.99976  -0.01215
           Z           -0.00534   0.01225   0.99991
 This molecule is an asymmetric top.
 Rotational symmetry number  1.
 Warning -- assumption of classical behavior for rotation
           may cause significant error
 Rotational temperatures (Kelvin)      0.14381     0.07330     0.05327
 Rotational constants (GHZ):           2.99647     1.52728     1.10998
 Zero-point vibrational energy     421237.6 (Joules/Mol)
                                  100.67820 (Kcal/Mol)
 Warning -- explicit consideration of   9 degrees of freedom as
           vibrations may cause significant error
 Vibrational temperatures:    116.59   220.46   241.05   336.98   399.78
          (Kelvin)            495.06   609.60   671.99   845.18   910.91
                              970.16  1112.38  1182.37  1199.33  1245.99
                             1341.70  1393.80  1426.93  1454.54  1491.38
                             1536.83  1550.71  1563.46  1600.06  1640.85
                             1699.36  1722.97  1744.45  1816.32  1874.61
                             1892.26  1938.84  1958.89  1983.69  2007.87
                             2018.41  2139.31  2147.62  2182.97  2184.36
                             2519.13  4256.89  4266.31  4307.48  4315.21
                             4355.81  4373.77  4456.09  4478.34  4499.97
                             4627.33

 Zero-point correction=                           0.160441 (Hartree/Particle)
 Thermal correction to Energy=                    0.168350
 Thermal correction to Enthalpy=                  0.169294
 Thermal correction to Gibbs Free Energy=         0.127834
 Sum of electronic and zero-point Energies=           -423.025185
 Sum of electronic and thermal Energies=              -423.017276
 Sum of electronic and thermal Enthalpies=            -423.016332
 Sum of electronic and thermal Free Energies=         -423.057792

                     E (Thermal)             CV                S
                      KCal/Mol        Cal/Mol-Kelvin    Cal/Mol-Kelvin
 Total                  105.641             30.248             87.260
 Electronic               0.000              0.000              0.000
 Translational            0.889              2.981             40.409
 Rotational               0.889              2.981             28.539
 Vibrational            103.864             24.286             18.313
 Vibration     1          0.600              1.962              3.866
 Vibration     2          0.619              1.899              2.632
 Vibration     3          0.624              1.882              2.463
 Vibration     4          0.654              1.789              1.846
 Vibration     5          0.679              1.714              1.547
 Vibration     6          0.723              1.587              1.193
 Vibration     7          0.786              1.419              0.880
 Vibration     8          0.824              1.323              0.746
 Vibration     9          0.945              1.059              0.472

 Optimization completed.
    -- Stationary point found.
 Normal termination of Gaussian 09 at Tue Jan 28 09:00:29 2020.
