 Gaussian 09, Revision D.01,
 Gaussian 09:  ES64L-G09RevD.01 24-Apr-2013

 -----------------------------
 # b3lyp 6-31G(2df,p) opt Freq
 -----------------------------

 -----
 titel
 -----
 Symbolic Z-matrix:
 Charge =  0 Multiplicity = 1

 SCF Done:  E(RB3LYP) =  -423.115278022     A.U. after   13 cycles
 Optimization completed.
    -- Stationary point found.
 Normal termination of Gaussian 09 at Mon Jan 27 23:40:16 2020.

 ----------------------------------------------------------------------
 #N Geom=AllCheck Guess=TCheck SCRF=Check GenChk RB3LYP/6-31G(2df,p) Fr
 eq
 ----------------------------------------------------------------------

 Structure from the checkpoint file:  "/scratch/puck/g09_0b375778-3cfc-4c57-ab4c-acf573993ccf/Gau-103901.chk"
 -----
 titel
 -----
 Charge =  0 Multiplicity = 1

                         Standard orientation:
 ---------------------------------------------------------------------
 Center     Atomic      Atomic             Coordinates (Angstroms)
 Number     Number       Type             X           Y           Z
 ---------------------------------------------------------------------
      1          8           0        2.982606   -0.836928   -0.116735
      2          6           0        1.744057   -0.359993    0.322666
      3          6           0        1.329825    1.034748   -0.036386
      4          6           0        0.020398    1.397787    0.670038
      5          6           0       -0.673829    0.167313    0.005578
      6          6           0       -1.516617   -0.872363    0.774275
      7          8           0       -2.660250   -0.643994   -0.075143
      8          6           0       -1.958446    0.364913   -0.825160
      9          6           0        0.638587   -0.188735   -0.685577
     10          1           0        3.165738   -0.466933   -0.986984
     11          1           0        1.538372   -0.762483    1.312846
     12          1           0        2.038789    1.735378   -0.463435
     13          1           0        0.051413    1.410769    1.765683
     14          1           0       -0.413021    2.339517    0.322237
     15          1           0       -1.157643   -1.907994    0.715459
     16          1           0       -1.730220   -0.625741    1.822968
     17          1           0       -1.881176    0.108485   -1.890267
     18          1           0       -2.428639    1.353597   -0.729850
     19          1           0        0.733689   -0.599236   -1.686224
 ---------------------------------------------------------------------

 SCF Done:  E(RB3LYP) =  -423.115278022     A.U. after    1 cycles

 The electronic state is 1-A.
 Alpha  occ. eigenvalues --  -19.14890 -19.12901 -10.24271 -10.22846 -10.22549
 Alpha  occ. eigenvalues --  -10.20477 -10.19719 -10.19504 -10.19382  -1.03606
 Alpha  occ. eigenvalues --   -1.03397  -0.89356  -0.74294  -0.69085  -0.68486
 Alpha  occ. eigenvalues --   -0.61970  -0.58814  -0.53191  -0.52261  -0.50398
 Alpha  occ. eigenvalues --   -0.48238  -0.44834  -0.43857  -0.41613  -0.40195
 Alpha  occ. eigenvalues --   -0.39475  -0.37415  -0.36307  -0.33993  -0.32095
 Alpha  occ. eigenvalues --   -0.30460  -0.25925  -0.24645  -0.24093
 Alpha virt. eigenvalues --    0.06709   0.07249   0.08503   0.09506   0.11506
 Alpha virt. eigenvalues --    0.12645   0.12972   0.13960   0.15510   0.16197
 Alpha virt. eigenvalues --    0.17215   0.18812   0.19081   0.20980   0.21808

 Mulliken charges:
               1
     1  O   -0.440940
     2  C    0.151852
     3  C   -0.110727
     4  C   -0.327605
     5  C    0.300405
     6  C   -0.131651
     7  O   -0.274529
     8  C   -0.133717
     9  C   -0.200425
    10  H    0.284738
    11  H    0.102469
    12  H    0.086933
    13  H    0.100739
    14  H    0.109875
    15  H    0.103650
    16  H    0.098283
    17  H    0.099133
    18  H    0.095738
    19  H    0.085779
 Sum of Mulliken charges =   0.00000

 Dipole moment (field-independent basis, Debye):
    X=              1.0710    Y=              1.6388    Z=             -0.8795  Tot=              2.1462
 Quadrupole moment (field-independent basis, Debye-Ang):
   XX=            -63.0645   YY=            -53.7674   ZZ=            -49.1965
   XY=              0.1736   XZ=             -4.0474   YZ=             -0.6789

  Exact polarizability:  83.205  -1.763  71.303  -0.659  -1.206  70.327
 Approx polarizability: 110.530  -1.930 107.511   0.652  -1.396 106.865

                      1                      2                      3
                      A                      A                      A
 Frequencies --     58.4826               108.4599               166.5821
 Red. masses --      3.9335                 3.6067                 1.0667
 Frc consts  --      0.0079                 0.0250                 0.0174
 IR Inten    --      3.7822                 2.5875                85.6493

                      4                      5                      6
                      A                      A                      A
 Frequencies --    201.8492               275.4280               298.6049
 Red. masses --      2.6543                 3.2309                 2.1896
 Frc consts  --      0.0637                 0.1444                 0.1150
 IR Inten    --      2.4063                 6.9343                 3.0759

                      7                      8                      9
                      A                      A                      A
 Frequencies --    383.8062               423.0870               431.7227
 Red. masses --      3.7043                 2.7700                 2.7661
 Frc consts  --      0.3215                 0.2921                 0.3038
 IR Inten    --      3.1219                 1.2696                 1.1594

                     10                     11                     12
                      A                      A                      A
 Frequencies --    543.9336               769.0787               807.3307
 Red. masses --      3.9990                 3.0281                 1.7325
 Frc consts  --      0.6971                 1.0553                 0.6653
 IR Inten    --      2.7140                 7.2783                 3.2516

                     13                     14                     15
                      A                      A                      A
 Frequencies --    843.9805               859.1997               900.2659
 Red. masses --      2.5348                 3.1289                 1.7629
 Frc consts  --      1.0638                 1.3609                 0.8418
 IR Inten    --     19.4212                 9.5297                17.6355

                     16                     17                     18
                      A                      A                      A
 Frequencies --    903.9785               934.6099               974.3191
 Red. masses --      2.2782                 2.4444                 1.5386
 Frc consts  --      1.0969                 1.2580                 0.8606
 IR Inten    --      2.6123                10.0379                 0.7489

                     19                     20                     21
                      A                      A                      A
 Frequencies --    984.4689               993.5491              1012.5473
 Red. masses --      2.1790                 1.6223                 2.0855
 Frc consts  --      1.2443                 0.9435                 1.2598
 IR Inten    --      4.9868                 8.1736                 6.4616

                     22                     23                     24
                      A                      A                      A
 Frequencies --   1040.6810              1091.7832              1105.0741
 Red. masses --     11.2897                 1.6746                 1.8095
 Frc consts  --      7.2039                 1.1761                 1.3019
 IR Inten    --     84.3935                 1.3733                45.8108

                     25                     26                     27
                      A                      A                      A
 Frequencies --   1123.4308              1132.7338              1151.2660
 Red. masses --      1.6750                 2.1058                 1.3446
 Frc consts  --      1.2455                 1.5919                 1.0500
 IR Inten    --     16.7278                37.4326                 0.4849

                     28                     29                     30
                      A                      A                      A
 Frequencies --   1158.5267              1192.0485              1207.4189
 Red. masses --      1.0688                 1.6925                 2.0245
 Frc consts  --      0.8452                 1.4170                 1.7389
 IR Inten    --      0.0324                31.3644                 8.9658

                     31                     32                     33
                      A                      A                      A
 Frequencies --   1223.0484              1251.2947              1290.3919
 Red. masses --      2.3642                 1.5673                 1.8197
 Frc consts  --      2.0836                 1.4459                 1.7852
 IR Inten    --      2.4748                 7.1622                 2.1406

                     34                     35                     36
                      A                      A                      A
 Frequencies --   1303.7957              1307.6331              1356.6291
 Red. masses --      1.8472                 1.3060                 1.7008
 Frc consts  --      1.8500                 1.3157                 1.8443
 IR Inten    --      5.8698                 2.4032                 2.4095

                     37                     38                     39
                      A                      A                      A
 Frequencies --   1382.7432              1452.3579              1485.4501
 Red. masses --      1.6882                 1.7385                 1.1264
 Frc consts  --      1.9017                 2.1606                 1.4645
 IR Inten    --      2.4157                92.6021                 7.5173

                     40                     41                     42
                      A                      A                      A
 Frequencies --   1505.5067              1531.7522              2990.9252
 Red. masses --      1.0789                 1.1100                 1.0528
 Frc consts  --      1.4407                 1.5344                 5.5489
 IR Inten    --      1.0314                 0.1528               115.1125

                     43                     44                     45
                      A                      A                      A
 Frequencies --   3005.1733              3033.8204              3037.4509
 Red. masses --      1.0578                 1.0625                 1.1092
 Frc consts  --      5.6286                 5.7619                 6.0297
 IR Inten    --      8.9708                25.0360                49.3223

                     46                     47                     48
                      A                      A                      A
 Frequencies --   3046.5832              3093.1200              3125.8871
 Red. masses --      1.1096                 1.1040                 1.0895
 Frc consts  --      6.0678                 6.2232                 6.2722
 IR Inten    --     52.7465                19.5143                20.9956

                     49                     50                     51
                      A                      A                      A
 Frequencies --   3155.1336              3173.2360              3811.6178
 Red. masses --      1.0896                 1.0947                 1.0658
 Frc consts  --      6.3905                 6.4946                 9.1227
 IR Inten    --     15.1584                21.2263                20.4013

 - Thermochemistry -
 -------------------
 Temperature   298.150 Kelvin.  Pressure   1.00000 Atm.
 Atom     1 has atomic number  8 and mass  15.99491

 Molecular mass:   126.06808 amu.
 Principal axes and moments of inertia in atomic units:
                           1         2         3
     Eigenvalues --   463.452331690.736071832.85439
           X            0.99999  -0.00199  -0.00510
           Y            0.00189   0.99981  -0.01945
           Z            0.00514   0.01944   0.99980
 This molecule is an asymmetric top.
 Rotational symmetry number  1.
 Warning -- assumption of classical behavior for rotation
           may cause significant error
 Rotational temperatures (Kelvin)      0.18689     0.05123     0.04726
 Rotational constants (GHZ):           3.89412     1.06743     0.98466
 Zero-point vibrational energy     416550.5 (Joules/Mol)
                                   99.55795 (Kcal/Mol)
 Warning -- explicit consideration of  10 degrees of freedom as
           vibrations may cause significant error
 Vibrational temperatures:     84.14   156.05   239.67   290.42   396.28
          (Kelvin)            429.63   552.21   608.73   621.15   782.60
                             1106.53  1161.57  1214.30  1236.20  1295.28
                             1300.62  1344.69  1401.83  1416.43  1429.49
                             1456.83  1497.31  1570.83  1589.95  1616.36
                             1629.75  1656.41  1666.86  1715.09  1737.20
                             1759.69  1800.33  1856.58  1875.87  1881.39
                             1951.88  1989.46  2089.62  2137.23  2166.09
                             2203.85  4303.27  4323.77  4364.99  4370.21
                             4383.35  4450.30  4497.45  4539.53  4565.57
                             5484.06

 Zero-point correction=                           0.158656 (Hartree/Particle)
 Thermal correction to Energy=                    0.167057
 Thermal correction to Enthalpy=                  0.168002
 Thermal correction to Gibbs Free Energy=         0.125164
 Sum of electronic and zero-point Energies=           -422.956622
 Sum of electronic and thermal Energies=              -422.948221
 Sum of electronic and thermal Enthalpies=            -422.947276
 Sum of electronic and thermal Free Energies=         -422.990114

                     E (Thermal)             CV                S
                      KCal/Mol        Cal/Mol-Kelvin    Cal/Mol-Kelvin
 Total                  104.830             31.597             90.160
 Electronic               0.000              0.000              0.000
 Translational            0.889              2.981             40.409
 Rotational               0.889              2.981             28.753
 Vibrational            103.053             25.635             20.998
 Vibration     1          0.596              1.974              4.508
 Vibration     2          0.606              1.942              3.296
 Vibration     3          0.624              1.884              2.474
 Vibration     4          0.639              1.837              2.116
 Vibration     5          0.677              1.719              1.562
 Vibration     6          0.692              1.676              1.425
 Vibration     7          0.753              1.505              1.024
 Vibration     8          0.785              1.420              0.882
 Vibration     9          0.793              1.401              0.853
 Vibration    10          0.899              1.153              0.557

 Optimization completed.
    -- Stationary point found.
 Normal termination of Gaussian 09 at Tue Jan 28 00:24:14 2020.
