 Gaussian 09, Revision D.01,
 Gaussian 09:  ES64L-G09RevD.01 24-Apr-2013

 -----------------------------
 # b3lyp 6-31G(2df,p) opt Freq
 -----------------------------

 -----
 titel
 -----
 Symbolic Z-matrix:
 Charge =  0 Multiplicity = 1

 SCF Done:  E(RB3LYP) =  -423.208117280     A.U. after   14 cycles
 Optimization completed.
    -- Stationary point found.
 Normal termination of Gaussian 09 at Tue Jan 28 08:14:17 2020.

 ----------------------------------------------------------------------
 #N Geom=AllCheck Guess=TCheck SCRF=Check GenChk RB3LYP/6-31G(2df,p) Fr
 eq
 ----------------------------------------------------------------------

 Structure from the checkpoint file:  "/scratch/puck/g09_b1fab826-bc5a-42ce-8264-de976a52d6e4/Gau-17715.chk"
 -----
 titel
 -----
 Charge =  0 Multiplicity = 1

                         Standard orientation:
 ---------------------------------------------------------------------
 Center     Atomic      Atomic             Coordinates (Angstroms)
 Number     Number       Type             X           Y           Z
 ---------------------------------------------------------------------
      1          8           0        2.227130   -1.006648   -0.464502
      2          6           0        1.016195   -0.839714    0.264117
      3          6           0        1.179498    0.426201    1.116203
      4          6           0        0.892006    1.584956    0.139108
      5          6           0       -0.243153    1.068346   -0.760822
      6          6           0       -1.667740    1.042060   -0.118763
      7          6           0       -1.546528   -0.484051    0.003683
      8          8           0       -2.243716   -1.342697    0.463240
      9          6           0       -0.164316   -0.500102   -0.673620
     10          1           0        2.129723   -1.774726   -1.036317
     11          1           0        0.800294   -1.729298    0.871167
     12          1           0        0.447265    0.408324    1.931709
     13          1           0        2.174583    0.472276    1.563693
     14          1           0        0.634420    2.518372    0.648978
     15          1           0        1.782362    1.773402   -0.467979
     16          1           0       -0.222947    1.500047   -1.761385
     17          1           0       -1.793569    1.575297    0.829357
     18          1           0       -2.479363    1.345021   -0.788033
     19          1           0       -0.135854   -1.080134   -1.600521
 ---------------------------------------------------------------------

 SCF Done:  E(RB3LYP) =  -423.208117280     A.U. after    1 cycles

 The electronic state is 1-A.
 Alpha  occ. eigenvalues --  -19.14101 -19.13708 -10.26805 -10.23936 -10.19579
 Alpha  occ. eigenvalues --  -10.19063 -10.19056 -10.18377 -10.18357  -1.04521
 Alpha  occ. eigenvalues --   -1.02355  -0.86514  -0.77025  -0.71614  -0.66687
 Alpha  occ. eigenvalues --   -0.59834  -0.56214  -0.52712  -0.51771  -0.50080
 Alpha  occ. eigenvalues --   -0.46029  -0.44689  -0.42825  -0.41980  -0.39088
 Alpha  occ. eigenvalues --   -0.38745  -0.36209  -0.35568  -0.33562  -0.32541
 Alpha  occ. eigenvalues --   -0.32444  -0.32170  -0.27554  -0.23752
 Alpha virt. eigenvalues --   -0.02427   0.06855   0.09523   0.10554   0.11921
 Alpha virt. eigenvalues --    0.14122   0.14606   0.15083   0.15784   0.17133
 Alpha virt. eigenvalues --    0.17384   0.19394   0.20186   0.20755   0.23083

 Mulliken charges:
               1
     1  O   -0.440734
     2  C    0.128494
     3  C   -0.229132
     4  C   -0.214627
     5  C   -0.011173
     6  C   -0.364017
     7  C    0.398282
     8  O   -0.303038
     9  C   -0.178377
    10  H    0.282257
    11  H    0.081215
    12  H    0.107460
    13  H    0.113900
    14  H    0.095768
    15  H    0.116328
    16  H    0.075362
    17  H    0.126709
    18  H    0.131396
    19  H    0.083928
 Sum of Mulliken charges =   0.00000

 Dipole moment (field-independent basis, Debye):
    X=              0.8292    Y=              1.1240    Z=             -1.1746  Tot=              1.8250
 Quadrupole moment (field-independent basis, Debye-Ang):
   XX=            -61.3009   YY=            -51.9223   ZZ=            -50.4172
   XY=             -6.2108   XZ=              1.9019   YZ=              3.2230

  Exact polarizability:  81.346  -0.645  76.913  -1.483   0.365  66.066
 Approx polarizability: 114.984   3.671 113.759  -6.830  -1.571 101.538

                      1                      2                      3
                      A                      A                      A
 Frequencies --     68.4391               138.3103               176.7800
 Red. masses --      3.6811                 5.5169                 2.5290
 Frc consts  --      0.0102                 0.0622                 0.0466
 IR Inten    --      4.7688                 4.0754                 0.9993

                      4                      5                      6
                      A                      A                      A
 Frequencies --    300.8936               323.2502               352.7198
 Red. masses --      1.6411                 1.7992                 2.4127
 Frc consts  --      0.0875                 0.1108                 0.1769
 IR Inten    --     44.5895                67.2695                 1.7758

                      7                      8                      9
                      A                      A                      A
 Frequencies --    402.3682               451.4463               521.2853
 Red. masses --      2.3430                 3.0696                 2.4561
 Frc consts  --      0.2235                 0.3686                 0.3932
 IR Inten    --      7.6391                 0.9642                 2.2016

                     10                     11                     12
                      A                      A                      A
 Frequencies --    578.8939               669.0269               722.4475
 Red. masses --      3.3554                 3.0880                 2.5490
 Frc consts  --      0.6625                 0.8144                 0.7839
 IR Inten    --      3.7910                 2.8182                 1.8980

                     13                     14                     15
                      A                      A                      A
 Frequencies --    798.2384               815.9841               843.1723
 Red. masses --      3.1737                 2.1434                 2.9095
 Frc consts  --      1.1914                 0.8409                 1.2187
 IR Inten    --      5.3730                 2.3230                 4.2618

                     16                     17                     18
                      A                      A                      A
 Frequencies --    866.5856               928.5630               935.6969
 Red. masses --      2.5229                 2.8099                 2.1355
 Frc consts  --      1.1163                 1.4274                 1.1016
 IR Inten    --      0.5678                 7.6831                 9.1399

                     19                     20                     21
                      A                      A                      A
 Frequencies --    954.1634               985.0296              1009.6790
 Red. masses --      1.9943                 1.8465                 2.0896
 Frc consts  --      1.0697                 1.0556                 1.2551
 IR Inten    --      2.8092                25.0967                30.5665

                     22                     23                     24
                      A                      A                      A
 Frequencies --   1049.9212              1064.6119              1092.4575
 Red. masses --      1.5989                 1.7878                 3.0514
 Frc consts  --      1.0384                 1.1939                 2.1456
 IR Inten    --      2.5421                50.9859                39.6143

                     25                     26                     27
                      A                      A                      A
 Frequencies --   1134.8451              1159.5467              1162.9434
 Red. masses --      2.4483                 1.3780                 1.2398
 Frc consts  --      1.8578                 1.0916                 0.9879
 IR Inten    --      3.5178                14.1050                 3.2236

                     28                     29                     30
                      A                      A                      A
 Frequencies --   1181.2533              1222.8694              1231.3758
 Red. masses --      1.6861                 1.6977                 1.4860
 Frc consts  --      1.3861                 1.4958                 1.3275
 IR Inten    --      2.5336                13.1316                11.2278

                     31                     32                     33
                      A                      A                      A
 Frequencies --   1249.2559              1274.4963              1313.2409
 Red. masses --      1.3395                 1.4217                 1.3982
 Frc consts  --      1.2316                 1.3607                 1.4207
 IR Inten    --     43.8037                23.9327                 1.5769

                     34                     35                     36
                      A                      A                      A
 Frequencies --   1333.3281              1344.1130              1357.6284
 Red. masses --      1.4365                 1.3677                 1.4032
 Frc consts  --      1.5046                 1.4558                 1.5238
 IR Inten    --      9.8785                19.2962                15.3859

                     37                     38                     39
                      A                      A                      A
 Frequencies --   1420.8972              1435.8238              1475.1545
 Red. masses --      1.3851                 1.1533                 1.0894
 Frc consts  --      1.6476                 1.4008                 1.3967
 IR Inten    --      7.0231                 9.8144                 4.6173

                     40                     41                     42
                      A                      A                      A
 Frequencies --   1490.8711              1881.3874              3012.1761
 Red. masses --      1.1047                12.8371                 1.0839
 Frc consts  --      1.4468                26.7716                 5.7941
 IR Inten    --      4.6690               255.4752                34.2497

                     43                     44                     45
                      A                      A                      A
 Frequencies --   3045.6893              3048.9908              3052.9273
 Red. masses --      1.0666                 1.0606                 1.0600
 Frc consts  --      5.8294                 5.8092                 5.8209
 IR Inten    --     17.4011                20.1971                25.2062

                     46                     47                     48
                      A                      A                      A
 Frequencies --   3072.7583              3095.0133              3096.6925
 Red. masses --      1.0863                 1.1027                 1.1026
 Frc consts  --      6.0428                 6.2235                 6.2298
 IR Inten    --     17.2750                14.0343                 2.7771

                     49                     50                     51
                      A                      A                      A
 Frequencies --   3110.7789              3116.2544              3818.3401
 Red. masses --      1.0919                 1.0983                 1.0662
 Frc consts  --      6.2255                 6.2838                 9.1586
 IR Inten    --     34.8910                23.9025                21.1649

 - Thermochemistry -
 -------------------
 Temperature   298.150 Kelvin.  Pressure   1.00000 Atm.
 Atom     1 has atomic number  8 and mass  15.99491

 Molecular mass:   126.06808 amu.
 Principal axes and moments of inertia in atomic units:
                           1         2         3
     Eigenvalues --   689.367831200.546821524.80813
           X            0.99918  -0.03800   0.01396
           Y            0.03770   0.99907   0.02103
           Z           -0.01475  -0.02049   0.99968
 This molecule is an asymmetric top.
 Rotational symmetry number  1.
 Warning -- assumption of classical behavior for rotation
           may cause significant error
 Rotational temperatures (Kelvin)      0.12564     0.07215     0.05680
 Rotational constants (GHZ):           2.61797     1.50327     1.18359
 Zero-point vibrational energy     419821.1 (Joules/Mol)
                                  100.33966 (Kcal/Mol)
 Warning -- explicit consideration of  10 degrees of freedom as
           vibrations may cause significant error
 Vibrational temperatures:     98.47   199.00   254.35   432.92   465.08
          (Kelvin)            507.48   578.92   649.53   750.01   832.90
                              962.58  1039.44  1148.49  1174.02  1213.14
                             1246.82  1335.99  1346.26  1372.83  1417.24
                             1452.70  1510.60  1531.74  1571.80  1632.79
                             1668.33  1673.21  1699.56  1759.43  1771.67
                             1797.40  1833.71  1889.46  1918.36  1933.88
                             1953.32  2044.35  2065.83  2122.42  2145.03
                             2706.89  4333.84  4382.06  4386.81  4392.48
                             4421.01  4453.03  4455.44  4475.71  4483.59
                             5493.73

 Zero-point correction=                           0.159901 (Hartree/Particle)
 Thermal correction to Energy=                    0.167920
 Thermal correction to Enthalpy=                  0.168864
 Thermal correction to Gibbs Free Energy=         0.127181
 Sum of electronic and zero-point Energies=           -423.048216
 Sum of electronic and thermal Energies=              -423.040197
 Sum of electronic and thermal Enthalpies=            -423.039253
 Sum of electronic and thermal Free Energies=         -423.080936

                     E (Thermal)             CV                S
                      KCal/Mol        Cal/Mol-Kelvin    Cal/Mol-Kelvin
 Total                  105.372             31.343             87.731
 Electronic               0.000              0.000              0.000
 Translational            0.889              2.981             40.409
 Rotational               0.889              2.981             28.625
 Vibrational            103.594             25.382             18.697
 Vibration     1          0.598              1.969              4.198
 Vibration     2          0.614              1.915              2.827
 Vibration     3          0.628              1.871              2.362
 Vibration     4          0.693              1.672              1.412
 Vibration     5          0.708              1.629              1.294
 Vibration     6          0.729              1.570              1.154
 Vibration     7          0.768              1.465              0.954
 Vibration     8          0.810              1.358              0.791
 Vibration     9          0.876              1.203              0.607
 Vibration    10          0.935              1.077              0.487

 Optimization completed.
    -- Stationary point found.
 Normal termination of Gaussian 09 at Tue Jan 28 09:01:22 2020.
