 Gaussian 09, Revision D.01,
 Gaussian 09:  ES64L-G09RevD.01 24-Apr-2013

 -----------------------------
 # b3lyp 6-31G(2df,p) opt Freq
 -----------------------------

 -----
 titel
 -----
 Symbolic Z-matrix:
 Charge =  0 Multiplicity = 1

 SCF Done:  E(RB3LYP) =  -423.154272348     A.U. after   14 cycles
 SCF Done:  E(RB3LYP) =  -423.154272250     A.U. after    8 cycles
 SCF Done:  E(RB3LYP) =  -423.154272717     A.U. after    8 cycles
 SCF Done:  E(RB3LYP) =  -423.154272721     A.U. after    7 cycles
 Optimization completed.
    -- Stationary point found.
 Normal termination of Gaussian 09 at Mon Jan 27 14:40:56 2020.

 ----------------------------------------------------------------------
 #N Geom=AllCheck Guess=TCheck SCRF=Check GenChk RB3LYP/6-31G(2df,p) Fr
 eq
 ----------------------------------------------------------------------

 Structure from the checkpoint file:  "/scratch/puck/g09_56f9498a-950b-40fa-93f9-3dff601d1da3/Gau-4427.chk"
 -----
 titel
 -----
 Charge =  0 Multiplicity = 1

                         Standard orientation:
 ---------------------------------------------------------------------
 Center     Atomic      Atomic             Coordinates (Angstroms)
 Number     Number       Type             X           Y           Z
 ---------------------------------------------------------------------
      1          6           0       -4.093600    0.003413    0.232331
      2          6           0       -2.661005   -0.022641   -0.021754
      3          6           0       -1.476951   -0.061530   -0.233784
      4          6           0       -0.043650   -0.049255   -0.487610
      5          6           0        0.617055    1.233626    0.049232
      6          8           0        2.015074    1.202815   -0.169957
      7          6           0        2.604550    0.064065    0.439486
      8          6           0        1.959651   -1.211349   -0.089099
      9          8           0        0.556692   -1.190861    0.130102
     10          1           0       -4.391273   -0.832232    0.875038
     11          1           0       -4.393250    0.930276    0.733446
     12          1           0       -4.665566   -0.073379   -0.698743
     13          1           0        0.145955   -0.092972   -1.574552
     14          1           0        0.228969    2.111377   -0.473659
     15          1           0        0.388385    1.323990    1.122653
     16          1           0        3.672128    0.094261    0.201520
     17          1           0        2.483364    0.112109    1.533958
     18          1           0        2.176940   -1.313419   -1.165214
     19          1           0        2.343917   -2.093615    0.431585
 ---------------------------------------------------------------------

 SCF Done:  E(RB3LYP) =  -423.154272721     A.U. after    1 cycles

 The electronic state is 1-A.
 Alpha  occ. eigenvalues --  -19.14376 -19.14286 -10.25101 -10.22916 -10.22892
 Alpha  occ. eigenvalues --  -10.22869 -10.20603 -10.18029 -10.16953  -1.05492
 Alpha  occ. eigenvalues --   -1.01717  -0.80007  -0.76951  -0.71687  -0.68307
 Alpha  occ. eigenvalues --   -0.65886  -0.58331  -0.52034  -0.48994  -0.48497
 Alpha  occ. eigenvalues --   -0.48048  -0.45726  -0.44762  -0.42832  -0.42809
 Alpha  occ. eigenvalues --   -0.40773  -0.37874  -0.36749  -0.36260  -0.30410
 Alpha  occ. eigenvalues --   -0.28484  -0.26361  -0.25693  -0.23193
 Alpha virt. eigenvalues --    0.03856   0.05546   0.10562   0.10913   0.11154
 Alpha virt. eigenvalues --    0.13234   0.13881   0.15386   0.16848   0.17045
 Alpha virt. eigenvalues --    0.17636   0.17841   0.18222   0.20138   0.21183

 Mulliken charges:
               1
     1  C   -0.502302
     2  C    0.158647
     3  C   -0.003325
     4  C   -0.073652
     5  C   -0.088730
     6  O   -0.250507
     7  C   -0.078827
     8  C   -0.072808
     9  O   -0.263071
    10  H    0.155011
    11  H    0.149884
    12  H    0.150582
    13  H    0.094967
    14  H    0.116460
    15  H    0.100499
    16  H    0.108014
    17  H    0.095604
    18  H    0.094413
    19  H    0.109139
 Sum of Mulliken charges =   0.00000

 Dipole moment (field-independent basis, Debye):
    X=             -0.5996    Y=              0.0078    Z=              0.1518  Tot=              0.6186
 Quadrupole moment (field-independent basis, Debye-Ang):
   XX=            -42.5979   YY=            -55.4749   ZZ=            -52.5774
   XY=             -4.6400   XZ=              0.3123   YZ=              0.7222

  Exact polarizability: 118.986  -5.299  65.109  -2.636   0.221  61.791
 Approx polarizability: 155.858  -5.237  93.403  -9.045  -2.307  94.149

                      1                      2                      3
                      A                      A                      A
 Frequencies --     22.6214                81.7769                86.7187
 Red. masses --      1.0292                 3.5425                 3.7849
 Frc consts  --      0.0003                 0.0140                 0.0168
 IR Inten    --      0.0104                 1.5555                 1.5484

                      4                      5                      6
                      A                      A                      A
 Frequencies --    201.7477               262.6218               294.8344
 Red. masses --      3.1475                 2.4595                 3.7892
 Frc consts  --      0.0755                 0.0999                 0.1941
 IR Inten    --      1.4320                 9.0300                 6.1801

                      7                      8                      9
                      A                      A                      A
 Frequencies --    330.4335               373.8567               410.9772
 Red. masses --      3.5809                 3.0045                 4.1082
 Frc consts  --      0.2304                 0.2474                 0.4088
 IR Inten    --      4.3600                 1.6405                 0.0410

                     10                     11                     12
                      A                      A                      A
 Frequencies --    451.1037               513.5443               529.7701
 Red. masses --      4.7608                 4.9145                 4.3667
 Frc consts  --      0.5708                 0.7636                 0.7221
 IR Inten    --      0.4695                 1.7742                 0.6007

                     13                     14                     15
                      A                      A                      A
 Frequencies --    586.8131               827.0469               859.3102
 Red. masses --      1.9415                 2.5516                 3.5088
 Frc consts  --      0.3939                 1.0283                 1.5265
 IR Inten    --     12.3683                 3.2656                 1.1789

                     16                     17                     18
                      A                      A                      A
 Frequencies --    888.6947               929.6079              1004.6913
 Red. masses --      2.6784                 2.7916                 2.9507
 Frc consts  --      1.2463                 1.4213                 1.7548
 IR Inten    --     32.9796                47.3789                 4.8786

                     19                     20                     21
                      A                      A                      A
 Frequencies --   1045.9016              1052.3327              1056.2069
 Red. masses --      2.4916                 1.4742                 1.5383
 Frc consts  --      1.6059                 0.9619                 1.0111
 IR Inten    --      8.5714                 0.3412                 3.2115

                     22                     23                     24
                      A                      A                      A
 Frequencies --   1082.8502              1119.3437              1137.9515
 Red. masses --      2.3155                 6.1110                 2.2348
 Frc consts  --      1.5997                 4.5112                 1.7050
 IR Inten    --      8.5619                80.4232                15.2201

                     25                     26                     27
                      A                      A                      A
 Frequencies --   1144.6644              1182.2994              1248.3654
 Red. masses --      5.3825                 2.4265                 1.1425
 Frc consts  --      4.1552                 1.9984                 1.0490
 IR Inten    --    152.4722                12.6088                12.8630

                     28                     29                     30
                      A                      A                      A
 Frequencies --   1285.8130              1308.3852              1326.1322
 Red. masses --      1.2322                 1.2945                 1.2379
 Frc consts  --      1.2003                 1.3056                 1.2826
 IR Inten    --     38.9600                 7.9352                 9.0058

                     31                     32                     33
                      A                      A                      A
 Frequencies --   1369.2145              1378.5965              1409.2009
 Red. masses --      1.2522                 1.2962                 1.3333
 Frc consts  --      1.3832                 1.4515                 1.5600
 IR Inten    --     55.1165                 4.0337                 2.1767

                     34                     35                     36
                      A                      A                      A
 Frequencies --   1413.9381              1418.7638              1476.3837
 Red. masses --      1.2542                 1.4174                 1.0396
 Frc consts  --      1.4773                 1.6810                 1.3351
 IR Inten    --      3.9169                 6.0948                 5.9866

                     37                     38                     39
                      A                      A                      A
 Frequencies --   1477.9387              1478.4906              1484.5013
 Red. masses --      1.0426                 1.0777                 1.1032
 Frc consts  --      1.3418                 1.3880                 1.4325
 IR Inten    --      5.3880                 0.4538                 5.3561

                     40                     41                     42
                      A                      A                      A
 Frequencies --   1492.5056              2376.9959              2948.1348
 Red. masses --      1.1078                11.8813                 1.0798
 Frc consts  --      1.4539                39.5523                 5.5297
 IR Inten    --      2.5955                16.6754                22.9286

                     43                     44                     45
                      A                      A                      A
 Frequencies --   2971.4352              2981.9095              2991.9334
 Red. masses --      1.0702                 1.0667                 1.0681
 Frc consts  --      5.5673                 5.5884                 5.6336
 IR Inten    --     36.6763                52.1882                66.2553

                     46                     47                     48
                      A                      A                      A
 Frequencies --   3029.3404              3087.3352              3087.7033
 Red. masses --      1.0347                 1.0972                 1.0920
 Frc consts  --      5.5946                 6.1615                 6.1338
 IR Inten    --     29.1011                28.3909                49.5994

                     49                     50                     51
                      A                      A                      A
 Frequencies --   3090.8924              3092.3483              3102.7906
 Red. masses --      1.1004                 1.1000                 1.0963
 Frc consts  --      6.1941                 6.1976                 6.2184
 IR Inten    --      9.5286                 8.0567                23.2385

 - Thermochemistry -
 -------------------
 Temperature   298.150 Kelvin.  Pressure   1.00000 Atm.
 Atom     1 has atomic number  6 and mass  12.00000

 Molecular mass:   126.06808 amu.
 Principal axes and moments of inertia in atomic units:
                           1         2         3
     Eigenvalues --   403.061732223.013252504.14865
           X            0.99993  -0.01212  -0.00137
           Y            0.01215   0.99976   0.01843
           Z            0.00115  -0.01845   0.99983
 This molecule is an asymmetric top.
 Rotational symmetry number  1.
 Rotational temperatures (Kelvin)      0.21489     0.03896     0.03459
 Rotational constants (GHZ):           4.47758     0.81184     0.72070
 Zero-point vibrational energy     417537.2 (Joules/Mol)
                                   99.79379 (Kcal/Mol)
 Warning -- explicit consideration of  13 degrees of freedom as
           vibrations may cause significant error
 Vibrational temperatures:     32.55   117.66   124.77   290.27   377.85
          (Kelvin)            424.20   475.42   537.90   591.30   649.04
                              738.87   762.22   844.29  1189.93  1236.35
                             1278.63  1337.50  1445.52  1504.82  1514.07
                             1519.64  1557.98  1610.48  1637.26  1646.91
                             1701.06  1796.12  1850.00  1882.47  1908.01
                             1969.99  1983.49  2027.52  2034.34  2041.28
                             2124.18  2126.42  2127.22  2135.86  2147.38
                             3419.96  4241.70  4275.23  4290.30  4304.72
                             4358.54  4441.98  4442.51  4447.10  4449.19
                             4464.22

 Zero-point correction=                           0.159032 (Hartree/Particle)
 Thermal correction to Energy=                    0.168193
 Thermal correction to Enthalpy=                  0.169138
 Thermal correction to Gibbs Free Energy=         0.123530
 Sum of electronic and zero-point Energies=           -422.995241
 Sum of electronic and thermal Energies=              -422.986079
 Sum of electronic and thermal Enthalpies=            -422.985135
 Sum of electronic and thermal Free Energies=         -423.030743

                     E (Thermal)             CV                S
                      KCal/Mol        Cal/Mol-Kelvin    Cal/Mol-Kelvin
 Total                  105.543             32.841             95.989
 Electronic               0.000              0.000              0.000
 Translational            0.889              2.981             40.409
 Rotational               0.889              2.981             29.197
 Vibrational            103.765             26.879             26.384
 Vibration     1          0.593              1.985              6.390
 Vibration     2          0.600              1.962              3.848
 Vibration     3          0.601              1.958              3.733
 Vibration     4          0.639              1.837              2.117
 Vibration     5          0.670              1.741              1.644
 Vibration     6          0.689              1.683              1.446
 Vibration     7          0.713              1.615              1.258
 Vibration     8          0.745              1.526              1.064
 Vibration     9          0.775              1.446              0.923
 Vibration    10          0.810              1.358              0.792
 Vibration    11          0.869              1.220              0.625
 Vibration    12          0.885              1.184              0.588
 Vibration    13          0.944              1.060              0.473

 Normal termination of Gaussian 09 at Mon Jan 27 16:14:14 2020.
