 Gaussian 09, Revision D.01,
 Gaussian 09:  ES64L-G09RevD.01 24-Apr-2013

 -----------------------------
 # b3lyp 6-31G(2df,p) opt Freq
 -----------------------------

 -----
 titel
 -----
 Symbolic Z-matrix:
 Charge =  0 Multiplicity = 1

 SCF Done:  E(RB3LYP) =  -423.122160006     A.U. after   14 cycles
 Optimization completed.
    -- Stationary point found.
 Normal termination of Gaussian 09 at Mon Jan 27 15:36:38 2020.

 ----------------------------------------------------------------------
 #N Geom=AllCheck Guess=TCheck SCRF=Check GenChk RB3LYP/6-31G(2df,p) Fr
 eq
 ----------------------------------------------------------------------

 Structure from the checkpoint file:  "/scratch/puck/g09_f6b91602-7ba8-4896-bbfd-45106fcdccb4/Gau-175656.chk"
 -----
 titel
 -----
 Charge =  0 Multiplicity = 1

                         Standard orientation:
 ---------------------------------------------------------------------
 Center     Atomic      Atomic             Coordinates (Angstroms)
 Number     Number       Type             X           Y           Z
 ---------------------------------------------------------------------
      1          6           0        1.595724   -1.795945    0.286491
      2          6           0        1.546835   -0.268138    0.267222
      3          8           0        2.595694    0.283343   -0.524335
      4          6           0        0.259310    0.264103   -0.338910
      5          6           0        0.003969    1.779598   -0.244754
      6          8           0       -1.242289    1.575138    0.461855
      7          6           0       -1.033023    0.143388    0.519268
      8          6           0       -2.134143   -0.636005   -0.020082
      9          6           0       -3.033998   -1.293786   -0.470351
     10          1           0        1.538665   -2.189958   -0.732845
     11          1           0        2.528460   -2.149438    0.740536
     12          1           0        0.766518   -2.213211    0.867240
     13          1           0        1.622229    0.107467    1.302919
     14          1           0        3.433837   -0.042553   -0.181148
     15          1           0        0.133981   -0.132926   -1.348180
     16          1           0        0.734406    2.328850    0.361542
     17          1           0       -0.146974    2.307860   -1.191478
     18          1           0       -0.832248   -0.173672    1.553632
     19          1           0       -3.834156   -1.869573   -0.865680
 ---------------------------------------------------------------------

 SCF Done:  E(RB3LYP) =  -423.122160006     A.U. after    1 cycles

 The electronic state is 1-A.
 Alpha  occ. eigenvalues --  -19.14198 -19.13466 -10.25759 -10.24216 -10.22759
 Alpha  occ. eigenvalues --  -10.19679 -10.18458 -10.18359 -10.17983  -1.04041
 Alpha  occ. eigenvalues --   -1.02377  -0.79376  -0.76405  -0.72127  -0.69354
 Alpha  occ. eigenvalues --   -0.62654  -0.57218  -0.54465  -0.51407  -0.49371
 Alpha  occ. eigenvalues --   -0.48445  -0.44908  -0.43942  -0.42198  -0.41222
 Alpha  occ. eigenvalues --   -0.38696  -0.37051  -0.35092  -0.33436  -0.30592
 Alpha  occ. eigenvalues --   -0.27837  -0.27571  -0.26807  -0.25149
 Alpha virt. eigenvalues --    0.01951   0.04727   0.07335   0.09765   0.10976
 Alpha virt. eigenvalues --    0.11622   0.12705   0.13801   0.14021   0.16223
 Alpha virt. eigenvalues --    0.16625   0.17530   0.19168   0.20772   0.22134

 Mulliken charges:
               1
     1  C   -0.412464
     2  C    0.107833
     3  O   -0.440112
     4  C   -0.026451
     5  C   -0.091244
     6  O   -0.286564
     7  C   -0.058814
     8  C    0.314226
     9  C   -0.436629
    10  H    0.129960
    11  H    0.108216
    12  H    0.127076
    13  H    0.066680
    14  H    0.283750
    15  H    0.097894
    16  H    0.106201
    17  H    0.112383
    18  H    0.096886
    19  H    0.201171
 Sum of Mulliken charges =   0.00000

 Dipole moment (field-independent basis, Debye):
    X=              1.9397    Y=             -1.9210    Z=              0.3623  Tot=              2.7539
 Quadrupole moment (field-independent basis, Debye-Ang):
   XX=            -48.6991   YY=            -53.9233   ZZ=            -53.1113
   XY=              2.7236   XZ=              5.1309   YZ=             -0.3875

  Exact polarizability:  93.471  12.301  78.074   6.097   1.198  61.906
 Approx polarizability: 127.192  22.763 111.167  10.863   6.169  98.034

                      1                      2                      3
                      A                      A                      A
 Frequencies --     43.2922                69.5115               143.4783
 Red. masses --      3.6108                 3.9232                 3.1525
 Frc consts  --      0.0040                 0.0112                 0.0382
 IR Inten    --      0.7636                 0.6336                 3.0804

                      4                      5                      6
                      A                      A                      A
 Frequencies --    153.8721               217.1553               239.4849
 Red. masses --      3.7649                 3.8570                 1.0890
 Frc consts  --      0.0525                 0.1072                 0.0368
 IR Inten    --      2.1326                 0.5710                 0.0928

                      7                      8                      9
                      A                      A                      A
 Frequencies --    276.0670               320.8847               341.3594
 Red. masses --      1.1132                 3.5926                 2.6408
 Frc consts  --      0.0500                 0.2180                 0.1813
 IR Inten    --     89.0390                10.8607                 3.9627

                     10                     11                     12
                      A                      A                      A
 Frequencies --    402.9228               480.3160               535.2181
 Red. masses --      4.8930                 3.1292                 4.9764
 Frc consts  --      0.4680                 0.4253                 0.8399
 IR Inten    --      3.0228                 3.3313                 2.7051

                     13                     14                     15
                      A                      A                      A
 Frequencies --    543.1705               616.5674               671.8409
 Red. masses --      4.6805                 1.2155                 1.2559
 Frc consts  --      0.8136                 0.2722                 0.3340
 IR Inten    --     12.5078                44.4766                34.5204

                     16                     17                     18
                      A                      A                      A
 Frequencies --    737.9051               851.1626               908.1362
 Red. masses --      3.1738                 2.0155                 2.1844
 Frc consts  --      1.0182                 0.8603                 1.0614
 IR Inten    --      6.2609                 3.8499                22.9620

                     19                     20                     21
                      A                      A                      A
 Frequencies --    953.9835               979.7602               990.6114
 Red. masses --      4.3354                 1.4199                 3.3276
 Frc consts  --      2.3247                 0.8031                 1.9239
 IR Inten    --     40.5834                 2.7508                 5.5707

                     22                     23                     24
                      A                      A                      A
 Frequencies --   1022.5923              1039.2567              1075.1262
 Red. masses --      8.7098                 2.9484                 2.7448
 Frc consts  --      5.3662                 1.8762                 1.8693
 IR Inten    --    126.6369                 2.3134                10.8489

                     25                     26                     27
                      A                      A                      A
 Frequencies --   1112.3617              1124.4588              1147.6813
 Red. masses --      2.1529                 2.2463                 1.5278
 Frc consts  --      1.5695                 1.6734                 1.1856
 IR Inten    --      3.9942                43.4871                23.4467

                     28                     29                     30
                      A                      A                      A
 Frequencies --   1167.7457              1205.7085              1262.7472
 Red. masses --      1.4803                 1.3341                 1.2875
 Frc consts  --      1.1893                 1.1427                 1.2096
 IR Inten    --     27.8492                 0.2159                 3.9395

                     31                     32                     33
                      A                      A                      A
 Frequencies --   1280.1199              1320.0290              1352.7177
 Red. masses --      1.2759                 1.2693                 1.3755
 Frc consts  --      1.2319                 1.3031                 1.4829
 IR Inten    --     24.7870                 9.3434                 3.8861

                     34                     35                     36
                      A                      A                      A
 Frequencies --   1365.6754              1379.5339              1405.4823
 Red. masses --      1.3685                 1.3288                 1.2676
 Frc consts  --      1.5038                 1.4900                 1.4753
 IR Inten    --     36.4685                 1.9797                11.0083

                     37                     38                     39
                      A                      A                      A
 Frequencies --   1438.3719              1491.0561              1498.7705
 Red. masses --      1.5538                 1.0548                 1.1286
 Frc consts  --      1.8940                 1.3817                 1.4937
 IR Inten    --     12.6709                 4.2550                 2.7804

                     40                     41                     42
                      A                      A                      A
 Frequencies --   1526.2681              2234.6698              2944.4141
 Red. masses --      1.1007                 5.9307                 1.0821
 Frc consts  --      1.5108                17.4495                 5.5272
 IR Inten    --      0.8321                 1.9642                42.1420

                     43                     44                     45
                      A                      A                      A
 Frequencies --   2984.1737              3027.2662              3029.7507
 Red. masses --      1.0818                 1.0576                 1.0364
 Frc consts  --      5.6759                 5.7104                 5.6049
 IR Inten    --     41.2414                62.9163                12.9681

                     46                     47                     48
                      A                      A                      A
 Frequencies --   3074.4445              3096.3966              3098.3452
 Red. masses --      1.1061                 1.0975                 1.0920
 Frc consts  --      6.1601                 6.1997                 6.1766
 IR Inten    --     25.6027                18.5334                30.2191

                     49                     50                     51
                      A                      A                      A
 Frequencies --   3114.7511              3502.4975              3816.7027
 Red. masses --      1.1016                 1.1622                 1.0662
 Frc consts  --      6.2970                 8.4001                 9.1506
 IR Inten    --     25.2800                64.5692                16.2994

 - Thermochemistry -
 -------------------
 Temperature   298.150 Kelvin.  Pressure   1.00000 Atm.
 Atom     1 has atomic number  6 and mass  12.00000

 Molecular mass:   126.06808 amu.
 Principal axes and moments of inertia in atomic units:
                           1         2         3
     Eigenvalues --   717.843311564.238652084.11673
           X            0.99988  -0.00805   0.01357
           Y            0.00825   0.99986  -0.01485
           Z           -0.01344   0.01496   0.99980
 This molecule is an asymmetric top.
 Rotational symmetry number  1.
 Warning -- assumption of classical behavior for rotation
           may cause significant error
 Rotational temperatures (Kelvin)      0.12066     0.05537     0.04156
 Rotational constants (GHZ):           2.51412     1.15375     0.86595
 Zero-point vibrational energy     410413.7 (Joules/Mol)
                                   98.09123 (Kcal/Mol)
 Warning -- explicit consideration of  14 degrees of freedom as
           vibrations may cause significant error
 Vibrational temperatures:     62.29   100.01   206.43   221.39   312.44
          (Kelvin)            344.56   397.20   461.68   491.14   579.72
                              691.07   770.06   781.50   887.10   966.63
                             1061.68  1224.63  1306.60  1372.57  1409.65
                             1425.27  1471.28  1495.26  1546.86  1600.44
                             1617.84  1651.26  1680.12  1734.74  1816.81
                             1841.80  1899.22  1946.26  1964.90  1984.84
                             2022.17  2069.49  2145.29  2156.39  2195.96
                             3215.19  4236.35  4293.55  4355.56  4359.13
                             4423.43  4455.02  4457.82  4481.43  5039.31
                             5491.38

 Zero-point correction=                           0.156318 (Hartree/Particle)
 Thermal correction to Energy=                    0.166175
 Thermal correction to Enthalpy=                  0.167119
 Thermal correction to Gibbs Free Energy=         0.120889
 Sum of electronic and zero-point Energies=           -422.965842
 Sum of electronic and thermal Energies=              -422.955985
 Sum of electronic and thermal Enthalpies=            -422.955041
 Sum of electronic and thermal Free Energies=         -423.001271

                     E (Thermal)             CV                S
                      KCal/Mol        Cal/Mol-Kelvin    Cal/Mol-Kelvin
 Total                  104.277             35.692             97.300
 Electronic               0.000              0.000              0.000
 Translational            0.889              2.981             40.409
 Rotational               0.889              2.981             29.238
 Vibrational            102.499             29.731             27.653
 Vibration     1          0.595              1.980              5.102
 Vibration     2          0.598              1.969              4.167
 Vibration     3          0.616              1.910              2.757
 Vibration     4          0.619              1.898              2.624
 Vibration     5          0.646              1.815              1.983
 Vibration     6          0.657              1.780              1.807
 Vibration     7          0.678              1.718              1.558
 Vibration     8          0.706              1.634              1.306
 Vibration     9          0.721              1.593              1.206
 Vibration    10          0.768              1.464              0.952
 Vibration    11          0.837              1.294              0.709
 Vibration    12          0.890              1.172              0.576
 Vibration    13          0.898              1.155              0.559
 Vibration    14          0.976              0.997              0.422

 Optimization completed.
    -- Stationary point found.
 Normal termination of Gaussian 09 at Mon Jan 27 16:16:23 2020.
