 Gaussian 09, Revision D.01,
 Gaussian 09:  ES64L-G09RevD.01 24-Apr-2013

 -----------------------------
 # b3lyp 6-31G(2df,p) opt Freq
 -----------------------------

 -----
 titel
 -----
 Symbolic Z-matrix:
 Charge =  0 Multiplicity = 1

 SCF Done:  E(RB3LYP) =  -423.190332438     A.U. after   14 cycles
 Optimization completed.
    -- Stationary point found.
 Normal termination of Gaussian 09 at Mon Jan 27 16:52:13 2020.

 ----------------------------------------------------------------------
 #N Geom=AllCheck Guess=TCheck SCRF=Check GenChk RB3LYP/6-31G(2df,p) Fr
 eq
 ----------------------------------------------------------------------

 Structure from the checkpoint file:  "/scratch/puck/g09_e3a37f89-e5ec-45c4-ad20-1120d14a0763/Gau-64808.chk"
 -----
 titel
 -----
 Charge =  0 Multiplicity = 1

                         Standard orientation:
 ---------------------------------------------------------------------
 Center     Atomic      Atomic             Coordinates (Angstroms)
 Number     Number       Type             X           Y           Z
 ---------------------------------------------------------------------
      1          6           0       -1.044512    1.777499    0.255037
      2          6           0       -0.488656    0.354233    0.169841
      3          8           0        0.297431    0.119524    1.344424
      4          6           0        1.286421   -0.873080    1.050017
      5          6           0        1.587935   -0.727579   -0.429564
      6          6           0        1.814655    0.677674   -0.923305
      7          6           0        0.439092    0.068342   -1.000561
      8          6           0       -1.677805   -0.615655    0.168202
      9          8           0       -2.215818   -1.048303   -0.817018
     10          1           0       -0.219889    2.493421    0.291529
     11          1           0       -1.667372    1.992503   -0.617500
     12          1           0       -1.650133    1.903251    1.157716
     13          1           0        2.138060   -0.679398    1.710498
     14          1           0        0.907731   -1.885091    1.262962
     15          1           0        2.018446   -1.568278   -0.959834
     16          1           0        2.000365    1.456320   -0.189906
     17          1           0        2.353717    0.798032   -1.856216
     18          1           0       -0.015198   -0.172444   -1.952382
     19          1           0       -2.021415   -0.876682    1.195895
 ---------------------------------------------------------------------

 SCF Done:  E(RB3LYP) =  -423.190332438     A.U. after    1 cycles

 The electronic state is 1-A.
 Alpha  occ. eigenvalues --  -19.14857 -19.14600 -10.26927 -10.24809 -10.23555
 Alpha  occ. eigenvalues --  -10.19838 -10.19650 -10.19218 -10.18632  -1.05677
 Alpha  occ. eigenvalues --   -1.04252  -0.86485  -0.78798  -0.69113  -0.66401
 Alpha  occ. eigenvalues --   -0.61490  -0.58252  -0.54775  -0.51812  -0.48231
 Alpha  occ. eigenvalues --   -0.47112  -0.45956  -0.43708  -0.42318  -0.40754
 Alpha  occ. eigenvalues --   -0.39845  -0.38815  -0.37367  -0.35722  -0.32557
 Alpha  occ. eigenvalues --   -0.30553  -0.29221  -0.28132  -0.23948
 Alpha virt. eigenvalues --   -0.02785   0.09009   0.10187   0.11378   0.11977
 Alpha virt. eigenvalues --    0.13222   0.14237   0.15162   0.16406   0.16656
 Alpha virt. eigenvalues --    0.17856   0.18414   0.19002   0.19878   0.21866

 Mulliken charges:
               1
     1  C   -0.437258
     2  C    0.260282
     3  O   -0.298775
     4  C   -0.109840
     5  C   -0.048880
     6  C   -0.314491
     7  C   -0.061520
     8  C    0.128491
     9  O   -0.255370
    10  H    0.131195
    11  H    0.134343
    12  H    0.128752
    13  H    0.112586
    14  H    0.098876
    15  H    0.095189
    16  H    0.121501
    17  H    0.115680
    18  H    0.110554
    19  H    0.088687
 Sum of Mulliken charges =   0.00000

 Dipole moment (field-independent basis, Debye):
    X=              1.6990    Y=              0.5573    Z=              0.2400  Tot=              1.8041
 Quadrupole moment (field-independent basis, Debye-Ang):
   XX=            -55.1210   YY=            -52.2861   ZZ=            -54.6348
   XY=             -4.1611   XZ=             -3.8444   YZ=             -2.2856

  Exact polarizability:  80.231   0.041  72.390  -0.558  -1.872  71.641
 Approx polarizability: 110.330   2.875 105.655   5.817   1.467 112.171

                      1                      2                      3
                      A                      A                      A
 Frequencies --     56.2784               150.2050               176.0288
 Red. masses --      4.2674                 2.7559                 3.5943
 Frc consts  --      0.0080                 0.0366                 0.0656
 IR Inten    --      7.1248                 1.0210                 4.0188

                      4                      5                      6
                      A                      A                      A
 Frequencies --    220.9917               275.7020               298.9062
 Red. masses --      1.0528                 2.9471                 2.4265
 Frc consts  --      0.0303                 0.1320                 0.1277
 IR Inten    --      0.0534                 4.0654                 5.4206

                      7                      8                      9
                      A                      A                      A
 Frequencies --    330.2038               370.7773               462.5988
 Red. masses --      2.1924                 2.9753                 3.5341
 Frc consts  --      0.1408                 0.2410                 0.4456
 IR Inten    --      2.8973                 2.3585                 4.1567

                     10                     11                     12
                      A                      A                      A
 Frequencies --    562.0099               612.5884               719.9213
 Red. masses --      4.0462                 4.6193                 2.9954
 Frc consts  --      0.7530                 1.0213                 0.9147
 IR Inten    --      1.6585                 7.3654                 8.0648

                     13                     14                     15
                      A                      A                      A
 Frequencies --    746.5738               834.4693               842.0251
 Red. masses --      2.5895                 2.1336                 1.5834
 Frc consts  --      0.8504                 0.8754                 0.6614
 IR Inten    --      2.8749                14.0610                 3.3293

                     16                     17                     18
                      A                      A                      A
 Frequencies --    884.2359               905.5347               937.2176
 Red. masses --      2.0513                 2.2017                 2.1454
 Frc consts  --      0.9450                 1.0637                 1.1103
 IR Inten    --     10.4291                 8.0557                 8.3795

                     19                     20                     21
                      A                      A                      A
 Frequencies --    968.4194               989.4929              1018.0314
 Red. masses --      2.0890                 1.7168                 2.4573
 Frc consts  --      1.1543                 0.9903                 1.5005
 IR Inten    --     17.9480                17.6796                 8.0675

                     22                     23                     24
                      A                      A                      A
 Frequencies --   1054.6412              1079.6814              1086.4398
 Red. masses --      1.6089                 1.8953                 1.5111
 Frc consts  --      1.0544                 1.3017                 1.0509
 IR Inten    --     14.6295                26.5702                 2.8884

                     25                     26                     27
                      A                      A                      A
 Frequencies --   1107.4711              1126.7045              1159.6580
 Red. masses --      1.3383                 1.6652                 2.9524
 Frc consts  --      0.9671                 1.2455                 2.3393
 IR Inten    --     10.8577                 0.7006                43.2909

                     28                     29                     30
                      A                      A                      A
 Frequencies --   1189.6563              1201.6312              1215.9927
 Red. masses --      1.7522                 2.3604                 2.1057
 Frc consts  --      1.4611                 2.0080                 1.8345
 IR Inten    --      3.9414                 0.4629                 6.7310

                     31                     32                     33
                      A                      A                      A
 Frequencies --   1243.9061              1340.2017              1364.0239
 Red. masses --      1.2691                 1.8348                 1.8624
 Frc consts  --      1.1569                 1.9417                 2.0416
 IR Inten    --      7.0648                 3.9330                 5.2577

                     34                     35                     36
                      A                      A                      A
 Frequencies --   1389.7129              1397.3207              1402.0430
 Red. masses --      1.4122                 1.3568                 1.2932
 Frc consts  --      1.6069                 1.5608                 1.4977
 IR Inten    --      9.0990                 4.1682                 3.5560

                     37                     38                     39
                      A                      A                      A
 Frequencies --   1479.3980              1484.7269              1494.5574
 Red. masses --      1.1729                 1.1235                 1.0852
 Frc consts  --      1.5124                 1.4592                 1.4281
 IR Inten    --      0.6570                 3.2640                 4.9922

                     40                     41                     42
                      A                      A                      A
 Frequencies --   1520.7333              1832.0293              2872.4633
 Red. masses --      1.0902                11.0537                 1.0839
 Frc consts  --      1.4855                21.8587                 5.2691
 IR Inten    --      0.5017               134.0913                94.7714

                     43                     44                     45
                      A                      A                      A
 Frequencies --   2982.3387              3045.2276              3069.3522
 Red. masses --      1.0697                 1.0340                 1.0938
 Frc consts  --      5.6054                 5.6495                 6.0713
 IR Inten    --     71.4551                13.0792                38.1494

                     46                     47                     48
                      A                      A                      A
 Frequencies --   3119.3240              3130.1463              3132.2696
 Red. masses --      1.1014                 1.0608                 1.0955
 Frc consts  --      6.3143                 6.1237                 6.3324
 IR Inten    --     14.1818                 6.7101                16.4471

                     49                     50                     51
                      A                      A                      A
 Frequencies --   3187.0988              3207.2916              3220.3253
 Red. masses --      1.0912                 1.0965                 1.1108
 Frc consts  --      6.5307                 6.6458                 6.7873
 IR Inten    --      9.7714                 0.2928                 9.4118

 - Thermochemistry -
 -------------------
 Temperature   298.150 Kelvin.  Pressure   1.00000 Atm.
 Atom     1 has atomic number  6 and mass  12.00000

 Molecular mass:   126.06808 amu.
 Principal axes and moments of inertia in atomic units:
                           1         2         3
     Eigenvalues --   718.251711232.051641277.95939
           X            0.99835  -0.05231  -0.02376
           Y            0.04642   0.97811  -0.20285
           Z            0.03385   0.20142   0.97892
 This molecule is an asymmetric top.
 Rotational symmetry number  1.
 Warning -- assumption of classical behavior for rotation
           may cause significant error
 Rotational temperatures (Kelvin)      0.12059     0.07030     0.06778
 Rotational constants (GHZ):           2.51269     1.46483     1.41221
 Zero-point vibrational energy     415693.8 (Joules/Mol)
                                   99.35320 (Kcal/Mol)
 Warning -- explicit consideration of  11 degrees of freedom as
           vibrations may cause significant error
 Vibrational temperatures:     80.97   216.11   253.27   317.96   396.67
          (Kelvin)            430.06   475.09   533.47   665.58   808.61
                              881.38  1035.80  1074.15  1200.61  1211.48
                             1272.22  1302.86  1348.45  1393.34  1423.66
                             1464.72  1517.39  1553.42  1563.14  1593.40
                             1621.07  1668.49  1711.65  1728.88  1749.54
                             1789.70  1928.25  1962.52  1999.48  2010.43
                             2017.22  2128.52  2136.19  2150.33  2187.99
                             2635.88  4132.83  4290.91  4381.40  4416.11
                             4488.01  4503.58  4506.63  4585.52  4614.57
                             4633.32

 Zero-point correction=                           0.158329 (Hartree/Particle)
 Thermal correction to Energy=                    0.166822
 Thermal correction to Enthalpy=                  0.167766
 Thermal correction to Gibbs Free Energy=         0.125100
 Sum of electronic and zero-point Energies=           -423.032003
 Sum of electronic and thermal Energies=              -423.023511
 Sum of electronic and thermal Enthalpies=            -423.022566
 Sum of electronic and thermal Free Energies=         -423.065232

                     E (Thermal)             CV                S
                      KCal/Mol        Cal/Mol-Kelvin    Cal/Mol-Kelvin
 Total                  104.682             32.216             89.798
 Electronic               0.000              0.000              0.000
 Translational            0.889              2.981             40.409
 Rotational               0.889              2.981             28.516
 Vibrational            102.905             26.254             20.873
 Vibration     1          0.596              1.975              4.584
 Vibration     2          0.618              1.902              2.670
 Vibration     3          0.628              1.872              2.370
 Vibration     4          0.648              1.809              1.951
 Vibration     5          0.677              1.718              1.560
 Vibration     6          0.692              1.676              1.423
 Vibration     7          0.713              1.615              1.259
 Vibration     8          0.743              1.532              1.077
 Vibration     9          0.820              1.333              0.759
 Vibration    10          0.918              1.113              0.520
 Vibration    11          0.972              1.005              0.429

 Optimization completed.
    -- Stationary point found.
 Normal termination of Gaussian 09 at Mon Jan 27 17:40:24 2020.
