 Gaussian 09, Revision D.01,
 Gaussian 09:  ES64L-G09RevD.01 24-Apr-2013

 -----------------------------
 # b3lyp 6-31G(2df,p) opt Freq
 -----------------------------

 -----
 titel
 -----
 Symbolic Z-matrix:
 Charge =  0 Multiplicity = 1

 SCF Done:  E(RB3LYP) =  -423.088609817     A.U. after   14 cycles
 Optimization completed.
    -- Stationary point found.
 Normal termination of Gaussian 09 at Tue Jan 28 09:13:42 2020.

 ----------------------------------------------------------------------
 #N Geom=AllCheck Guess=TCheck SCRF=Check GenChk RB3LYP/6-31G(2df,p) Fr
 eq
 ----------------------------------------------------------------------

 Structure from the checkpoint file:  "/scratch/puck/g09_2b027ed9-3edc-4c6c-8270-707a7420d964/Gau-17263.chk"
 -----
 titel
 -----
 Charge =  0 Multiplicity = 1

                         Standard orientation:
 ---------------------------------------------------------------------
 Center     Atomic      Atomic             Coordinates (Angstroms)
 Number     Number       Type             X           Y           Z
 ---------------------------------------------------------------------
      1          6           0        2.629486   -0.637575   -0.161508
      2          6           0        1.282104   -1.252267    0.239603
      3          6           0        0.125337   -0.291413    0.204992
      4          6           0       -1.374904   -0.563561    0.472072
      5          8           0       -2.073140   -1.343155   -0.475174
      6          6           0       -1.381096    0.931172    0.152290
      7          6           0        0.005679    1.141604    0.831033
      8          8           0        0.597319    1.827569   -0.313395
      9          6           0       -0.235348    0.777853   -0.894122
     10          1           0        2.598222   -0.245715   -1.181947
     11          1           0        2.900392    0.192689    0.496065
     12          1           0        3.423873   -1.388374   -0.110170
     13          1           0        1.049648   -2.094698   -0.426775
     14          1           0        1.355513   -1.678255    1.249923
     15          1           0       -1.639502   -0.841170    1.502393
     16          1           0       -1.938545   -2.271702   -0.262275
     17          1           0       -2.209512    1.636809    0.118072
     18          1           0        0.244124    1.493738    1.834213
     19          1           0       -0.285173    0.686486   -1.977107
 ---------------------------------------------------------------------

 SCF Done:  E(RB3LYP) =  -423.088609817     A.U. after    1 cycles

 The electronic state is 1-A.
 Alpha  occ. eigenvalues --  -19.14171 -19.12602 -10.24633 -10.24368 -10.23728
 Alpha  occ. eigenvalues --  -10.20014 -10.19721 -10.18878 -10.17294  -1.05984
 Alpha  occ. eigenvalues --   -1.02289  -0.86104  -0.77084  -0.65731  -0.65324
 Alpha  occ. eigenvalues --   -0.63918  -0.59597  -0.52514  -0.51626  -0.48366
 Alpha  occ. eigenvalues --   -0.47095  -0.44934  -0.43234  -0.40551  -0.39510
 Alpha  occ. eigenvalues --   -0.37286  -0.35943  -0.35240  -0.33135  -0.31813
 Alpha  occ. eigenvalues --   -0.30453  -0.29318  -0.26391  -0.22696
 Alpha virt. eigenvalues --    0.06731   0.08351   0.10595   0.11557   0.12386
 Alpha virt. eigenvalues --    0.12807   0.14736   0.14913   0.15833   0.16897
 Alpha virt. eigenvalues --    0.17259   0.17566   0.18639   0.19913   0.20746

 Mulliken charges:
               1
     1  C   -0.373633
     2  C   -0.336599
     3  C    0.299574
     4  C    0.036761
     5  O   -0.439491
     6  C   -0.116276
     7  C    0.026346
     8  O   -0.329551
     9  C    0.043477
    10  H    0.127210
    11  H    0.128960
    12  H    0.106953
    13  H    0.099041
    14  H    0.098801
    15  H    0.063714
    16  H    0.285403
    17  H    0.086363
    18  H    0.092097
    19  H    0.100849
 Sum of Mulliken charges =   0.00000

 Dipole moment (field-independent basis, Debye):
    X=             -0.1564    Y=             -2.2081    Z=              1.3337  Tot=              2.5843
 Quadrupole moment (field-independent basis, Debye-Ang):
   XX=            -56.2897   YY=            -52.6167   ZZ=            -50.8187
   XY=             -1.9145   XZ=             -1.2327   YZ=              0.5605

  Exact polarizability:  79.598  -1.368  75.821  -0.209   0.394  68.339
 Approx polarizability: 107.363   2.098 112.397   1.426   0.536 109.382

                      1                      2                      3
                      A                      A                      A
 Frequencies --     66.4528               149.5940               191.3708
 Red. masses --      2.1173                 3.2741                 1.8240
 Frc consts  --      0.0055                 0.0432                 0.0394
 IR Inten    --      0.2192                 0.8982                 2.3494

                      4                      5                      6
                      A                      A                      A
 Frequencies --    203.8647               257.6913               272.9650
 Red. masses --      2.3704                 1.6341                 1.4705
 Frc consts  --      0.0580                 0.0639                 0.0646
 IR Inten    --      0.0340                29.9979                87.0670

                      7                      8                      9
                      A                      A                      A
 Frequencies --    340.2433               403.5211               551.0938
 Red. masses --      2.3029                 4.2216                 4.0242
 Frc consts  --      0.1571                 0.4050                 0.7201
 IR Inten    --      1.8994                 3.6301                 8.6536

                     10                     11                     12
                      A                      A                      A
 Frequencies --    564.4473               669.2407               733.9009
 Red. masses --      4.4807                 3.1623                 2.4698
 Frc consts  --      0.8411                 0.8345                 0.7838
 IR Inten    --      0.7828                 6.4067                 2.8077

                     13                     14                     15
                      A                      A                      A
 Frequencies --    780.6979               820.0764               832.9722
 Red. masses --      1.9515                 3.3380                 2.7748
 Frc consts  --      0.7008                 1.3227                 1.1343
 IR Inten    --      2.8867                 6.7765                13.0143

                     16                     17                     18
                      A                      A                      A
 Frequencies --    856.3632               901.0932               905.3955
 Red. masses --      1.9520                 2.5441                 2.5420
 Frc consts  --      0.8434                 1.2171                 1.2277
 IR Inten    --     10.2181                10.8258                30.0336

                     19                     20                     21
                      A                      A                      A
 Frequencies --    942.6942               960.8971              1005.3153
 Red. masses --      1.9024                 2.0916                 2.2742
 Frc consts  --      0.9961                 1.1378                 1.3542
 IR Inten    --      2.2790                 5.2903                 0.3295

                     22                     23                     24
                      A                      A                      A
 Frequencies --   1010.9833              1072.8811              1106.7145
 Red. masses --      1.7125                 2.3721                 2.2309
 Frc consts  --      1.0313                 1.6088                 1.6099
 IR Inten    --      0.9825                 4.9168                57.2402

                     25                     26                     27
                      A                      A                      A
 Frequencies --   1111.8049              1131.8410              1152.5309
 Red. masses --      2.0713                 2.2102                 1.7201
 Frc consts  --      1.5085                 1.6682                 1.3462
 IR Inten    --     29.0182                16.0028                 2.0085

                     28                     29                     30
                      A                      A                      A
 Frequencies --   1159.2430              1170.9576              1196.4131
 Red. masses --      1.6956                 1.5073                 1.6087
 Frc consts  --      1.3425                 1.2177                 1.3567
 IR Inten    --      2.5046                 4.5986                48.2896

                     31                     32                     33
                      A                      A                      A
 Frequencies --   1258.2151              1274.4648              1294.6698
 Red. masses --      1.9303                 1.5487                 1.3130
 Frc consts  --      1.8005                 1.4821                 1.2967
 IR Inten    --     18.4394                 8.8732                10.0097

                     34                     35                     36
                      A                      A                      A
 Frequencies --   1311.2517              1355.7302              1386.4538
 Red. masses --      1.4268                 1.7302                 2.5979
 Frc consts  --      1.4454                 1.8737                 2.9422
 IR Inten    --     40.9477                 9.7015                 2.1160

                     37                     38                     39
                      A                      A                      A
 Frequencies --   1416.9911              1438.9865              1479.2643
 Red. masses --      1.2321                 1.5945                 1.0574
 Frc consts  --      1.4576                 1.9454                 1.3633
 IR Inten    --      2.0327                 6.0397                 0.7472

                     40                     41                     42
                      A                      A                      A
 Frequencies --   1497.3251              1499.3701              3000.3864
 Red. masses --      1.0534                 1.0696                 1.0827
 Frc consts  --      1.3914                 1.4168                 5.7428
 IR Inten    --      5.1429                 4.5599                52.0824

                     43                     44                     45
                      A                      A                      A
 Frequencies --   3005.0884              3034.3371              3044.6539
 Red. masses --      1.0605                 1.1011                 1.0355
 Frc consts  --      5.6426                 5.9734                 5.6555
 IR Inten    --     46.7653                21.5081                25.0886

                     46                     47                     48
                      A                      A                      A
 Frequencies --   3112.7558              3120.4912              3121.9214
 Red. masses --      1.1014                 1.0954                 1.0961
 Frc consts  --      6.2878                 6.2842                 6.2941
 IR Inten    --     32.1868                 4.3396                54.2215

                     49                     50                     51
                      A                      A                      A
 Frequencies --   3134.7589              3147.8087              3822.7117
 Red. masses --      1.0901                 1.0985                 1.0662
 Frc consts  --      6.3112                 6.4128                 9.1801
 IR Inten    --     46.8206                20.7197                23.6551

 - Thermochemistry -
 -------------------
 Temperature   298.150 Kelvin.  Pressure   1.00000 Atm.
 Atom     1 has atomic number  6 and mass  12.00000

 Molecular mass:   126.06808 amu.
 Principal axes and moments of inertia in atomic units:
                           1         2         3
     Eigenvalues --   731.002761093.025361533.99898
           X            0.99751  -0.07008  -0.00851
           Y            0.07010   0.99754   0.00208
           Z            0.00834  -0.00267   0.99996
 This molecule is an asymmetric top.
 Rotational symmetry number  1.
 Warning -- assumption of classical behavior for rotation
           may cause significant error
 Rotational temperatures (Kelvin)      0.11849     0.07924     0.05646
 Rotational constants (GHZ):           2.46886     1.65114     1.17649
 Zero-point vibrational energy     414391.8 (Joules/Mol)
                                   99.04201 (Kcal/Mol)
 Warning -- explicit consideration of  10 degrees of freedom as
           vibrations may cause significant error
 Vibrational temperatures:     95.61   215.23   275.34   293.32   370.76
          (Kelvin)            392.74   489.53   580.58   792.90   812.11
                              962.89  1055.92  1123.25  1179.91  1198.46
                             1232.11  1296.47  1302.66  1356.32  1382.51
                             1446.42  1454.58  1543.63  1592.31  1599.64
                             1628.46  1658.23  1667.89  1684.74  1721.37
                             1810.29  1833.67  1862.74  1886.60  1950.59
                             1994.80  2038.73  2070.38  2128.33  2154.31
                             2157.26  4316.88  4323.65  4365.73  4380.57
                             4478.56  4489.69  4491.74  4510.21  4528.99
                             5500.02

 Zero-point correction=                           0.157833 (Hartree/Particle)
 Thermal correction to Energy=                    0.166268
 Thermal correction to Enthalpy=                  0.167212
 Thermal correction to Gibbs Free Energy=         0.124715
 Sum of electronic and zero-point Energies=           -422.930776
 Sum of electronic and thermal Energies=              -422.922342
 Sum of electronic and thermal Enthalpies=            -422.921398
 Sum of electronic and thermal Free Energies=         -422.963894

                     E (Thermal)             CV                S
                      KCal/Mol        Cal/Mol-Kelvin    Cal/Mol-Kelvin
 Total                  104.334             32.296             89.441
 Electronic               0.000              0.000              0.000
 Translational            0.889              2.981             40.409
 Rotational               0.889              2.981             28.596
 Vibrational            102.557             26.335             20.437
 Vibration     1          0.598              1.970              4.256
 Vibration     2          0.618              1.903              2.677
 Vibration     3          0.634              1.852              2.215
 Vibration     4          0.640              1.834              2.098
 Vibration     5          0.667              1.750              1.677
 Vibration     6          0.676              1.723              1.577
 Vibration     7          0.720              1.595              1.211
 Vibration     8          0.769              1.463              0.950
 Vibration     9          0.906              1.137              0.542
 Vibration    10          0.920              1.108              0.515

 Normal termination of Gaussian 09 at Tue Jan 28 09:57:40 2020.
