 Gaussian 09, Revision D.01,
 Gaussian 09:  ES64L-G09RevD.01 24-Apr-2013

 -----------------------------
 # b3lyp 6-31G(2df,p) opt Freq
 -----------------------------

 -----
 titel
 -----
 Symbolic Z-matrix:
 Charge =  0 Multiplicity = 1

 SCF Done:  E(RB3LYP) =  -423.235786380     A.U. after   14 cycles
 Optimization completed.
    -- Stationary point found.
 Normal termination of Gaussian 09 at Mon Jan 27 22:03:46 2020.

 ----------------------------------------------------------------------
 #N Geom=AllCheck Guess=TCheck SCRF=Check GenChk RB3LYP/6-31G(2df,p) Fr
 eq
 ----------------------------------------------------------------------

 Structure from the checkpoint file:  "/scratch/puck/g09_85781b63-6d1f-4c3b-9c3e-41f679029774/Gau-53256.chk"
 -----
 titel
 -----
 Charge =  0 Multiplicity = 1

                         Standard orientation:
 ---------------------------------------------------------------------
 Center     Atomic      Atomic             Coordinates (Angstroms)
 Number     Number       Type             X           Y           Z
 ---------------------------------------------------------------------
      1          6           0       -3.011673   -0.183206   -0.005586
      2          6           0       -1.536622    0.040916   -0.018882
      3          6           0       -0.893396    1.207647    0.175390
      4          6           0        0.553257    1.012075    0.046714
      5          8           0        1.441041    1.836511   -0.023614
      6          6           0        0.821157   -0.508514   -0.054136
      7          6           0        1.460302   -1.005084    1.249516
      8          8           0        1.676858   -0.756914   -1.157489
      9          6           0       -0.579251   -1.100321   -0.296509
     10          1           0       -3.279664   -0.927176    0.755148
     11          1           0       -3.565981    0.736148    0.195728
     12          1           0       -3.348041   -0.591672   -0.966580
     13          1           0       -1.352861    2.172642    0.350431
     14          1           0        2.379965   -0.445976    1.447081
     15          1           0        0.788025   -0.871602    2.104011
     16          1           0        1.706761   -2.066659    1.155898
     17          1           0        2.308055   -0.023249   -1.165092
     18          1           0       -0.664472   -1.428731   -1.338858
     19          1           0       -0.797618   -1.971571    0.332022
 ---------------------------------------------------------------------

 SCF Done:  E(RB3LYP) =  -423.235786380     A.U. after    1 cycles

 The electronic state is 1-A.
 Alpha  occ. eigenvalues --  -19.13233 -19.12628 -10.25766 -10.23858 -10.22683
 Alpha  occ. eigenvalues --  -10.20320 -10.19579 -10.19051 -10.17769  -1.04171
 Alpha  occ. eigenvalues --   -1.00983  -0.85945  -0.76550  -0.72803  -0.69737
 Alpha  occ. eigenvalues --   -0.62459  -0.55593  -0.54981  -0.48286  -0.47569
 Alpha  occ. eigenvalues --   -0.46187  -0.43723  -0.42910  -0.41903  -0.41066
 Alpha  occ. eigenvalues --   -0.39595  -0.38788  -0.37281  -0.36666  -0.35694
 Alpha  occ. eigenvalues --   -0.33435  -0.27543  -0.26947  -0.23626
 Alpha virt. eigenvalues --   -0.04746   0.05477   0.08568   0.10048   0.11974
 Alpha virt. eigenvalues --    0.13134   0.14889   0.15481   0.15778   0.16426
 Alpha virt. eigenvalues --    0.16866   0.18032   0.19160   0.21445   0.22885

 Mulliken charges:
               1
     1  C   -0.486729
     2  C    0.318683
     3  C   -0.289069
     4  C    0.351137
     5  O   -0.369467
     6  C    0.304122
     7  C   -0.430635
     8  O   -0.478172
     9  C   -0.351714
    10  H    0.141108
    11  H    0.135808
    12  H    0.143752
    13  H    0.112491
    14  H    0.128360
    15  H    0.113104
    16  H    0.124072
    17  H    0.286217
    18  H    0.137118
    19  H    0.109814
 Sum of Mulliken charges =   0.00000

 Dipole moment (field-independent basis, Debye):
    X=             -3.1546    Y=             -1.4250    Z=              0.8728  Tot=              3.5699
 Quadrupole moment (field-independent basis, Debye-Ang):
   XX=            -49.7485   YY=            -57.1272   ZZ=            -53.9739
   XY=             -1.7250   XZ=              0.9418   YZ=             -1.4843

  Exact polarizability:  97.456   8.118  81.833   0.262   1.558  59.166
 Approx polarizability: 139.331  27.898 135.154  -1.766   5.439  90.320

                      1                      2                      3
                      A                      A                      A
 Frequencies --     62.3091               135.8949               170.4400
 Red. masses --      3.2258                 1.8369                 1.5583
 Frc consts  --      0.0074                 0.0200                 0.0267
 IR Inten    --      1.5148                 0.4609                 2.0710

                      4                      5                      6
                      A                      A                      A
 Frequencies --    230.5767               259.9546               280.2007
 Red. masses --      2.5603                 1.3957                 1.9331
 Frc consts  --      0.0802                 0.0556                 0.0894
 IR Inten    --      2.7521                 1.8934                 0.3768

                      7                      8                      9
                      A                      A                      A
 Frequencies --    295.2811               344.9312               396.4857
 Red. masses --      4.0138                 2.4780                 2.5563
 Frc consts  --      0.2062                 0.1737                 0.2368
 IR Inten    --     18.5244                 1.3180                44.6619

                     10                     11                     12
                      A                      A                      A
 Frequencies --    432.0737               452.7053               546.3099
 Red. masses --      1.5174                 1.6514                 3.6236
 Frc consts  --      0.1669                 0.1994                 0.6372
 IR Inten    --     25.4466                25.2435                10.6771

                     13                     14                     15
                      A                      A                      A
 Frequencies --    552.1037               635.2930               731.2537
 Red. masses --      4.0851                 5.1258                 3.5309
 Frc consts  --      0.7337                 1.2189                 1.1124
 IR Inten    --      0.6445                 7.2013                 5.8945

                     16                     17                     18
                      A                      A                      A
 Frequencies --    748.4988               870.6958               879.2582
 Red. masses --      3.1311                 3.0515                 1.8686
 Frc consts  --      1.0336                 1.3630                 0.8512
 IR Inten    --      2.2789                 3.4827                 8.9992

                     19                     20                     21
                      A                      A                      A
 Frequencies --    911.7743               928.9012               975.9373
 Red. masses --      1.7722                 1.8427                 1.8362
 Frc consts  --      0.8681                 0.9368                 1.0304
 IR Inten    --      8.4870                 8.8152                21.2187

                     22                     23                     24
                      A                      A                      A
 Frequencies --   1015.1526              1026.4775              1114.7994
 Red. masses --      1.4929                 1.4365                 2.1568
 Frc consts  --      0.9065                 0.8918                 1.5792
 IR Inten    --      2.0524                 0.7266                15.5605

                     25                     26                     27
                      A                      A                      A
 Frequencies --   1120.8506              1155.1894              1157.4393
 Red. masses --      2.1301                 1.9247                 2.6650
 Frc consts  --      1.5767                 1.5133                 2.1035
 IR Inten    --      3.4132               116.1355                14.8696

                     28                     29                     30
                      A                      A                      A
 Frequencies --   1215.1403              1234.8799              1321.4725
 Red. masses --      1.8040                 1.7894                 2.6873
 Frc consts  --      1.5694                 1.6077                 2.7650
 IR Inten    --     24.2619                36.4614                 7.6490

                     31                     32                     33
                      A                      A                      A
 Frequencies --   1342.3805              1392.9397              1394.4509
 Red. masses --      2.4471                 1.4726                 1.2598
 Frc consts  --      2.5981                 1.6835                 1.4433
 IR Inten    --     14.8112                46.3199                13.5095

                     34                     35                     36
                      A                      A                      A
 Frequencies --   1409.7359              1464.4332              1475.6119
 Red. masses --      1.3181                 1.0914                 1.0519
 Frc consts  --      1.5434                 1.3790                 1.3495
 IR Inten    --      7.5407                 9.1839                 9.8685

                     37                     38                     39
                      A                      A                      A
 Frequencies --   1477.4502              1487.2328              1494.1391
 Red. masses --      1.0694                 1.0798                 1.0584
 Frc consts  --      1.3754                 1.4072                 1.3922
 IR Inten    --     15.0237                 6.4624                 1.5992

                     40                     41                     42
                      A                      A                      A
 Frequencies --   1668.0302              1801.0540              3023.9641
 Red. masses --      6.3286                12.2015                 1.0389
 Frc consts  --     10.3745                23.3193                 5.5975
 IR Inten    --     80.9512               265.5006                 9.1506

                     43                     44                     45
                      A                      A                      A
 Frequencies --   3032.0393              3036.5407              3071.8011
 Red. masses --      1.0368                 1.0561                 1.1004
 Frc consts  --      5.6160                 5.7376                 6.1176
 IR Inten    --     14.4700                22.0332                 0.5783

                     46                     47                     48
                      A                      A                      A
 Frequencies --   3074.8511              3107.0266              3118.0536
 Red. masses --      1.0993                 1.1010                 1.1031
 Frc consts  --      6.1236                 6.2623                 6.3189
 IR Inten    --     17.1104                21.8560                12.4174

                     49                     50                     51
                      A                      A                      A
 Frequencies --   3125.0734              3211.8393              3741.6085
 Red. masses --      1.1000                 1.0956                 1.0653
 Frc consts  --      6.3294                 6.6592                 8.7869
 IR Inten    --     14.7629                 5.2412                28.2741

 - Thermochemistry -
 -------------------
 Temperature   298.150 Kelvin.  Pressure   1.00000 Atm.
 Atom     1 has atomic number  6 and mass  12.00000

 Molecular mass:   126.06808 amu.
 Principal axes and moments of inertia in atomic units:
                           1         2         3
     Eigenvalues --   696.278231332.073161640.47585
           X            0.99972  -0.01639   0.01712
           Y            0.01697   0.99927  -0.03419
           Z           -0.01654   0.03447   0.99927
 This molecule is an asymmetric top.
 Rotational symmetry number  1.
 Warning -- assumption of classical behavior for rotation
           may cause significant error
 Rotational temperatures (Kelvin)      0.12440     0.06502     0.05280
 Rotational constants (GHZ):           2.59198     1.35484     1.10013
 Zero-point vibrational energy     413624.0 (Joules/Mol)
                                   98.85851 (Kcal/Mol)
 Warning -- explicit consideration of  13 degrees of freedom as
           vibrations may cause significant error
 Vibrational temperatures:     89.65   195.52   245.22   331.75   374.02
          (Kelvin)            403.15   424.84   496.28   570.45   621.66
                              651.34   786.02   794.35   914.04  1052.11
                             1076.92  1252.74  1265.05  1311.84  1336.48
                             1404.15  1460.58  1476.87  1603.95  1612.65
                             1662.06  1665.29  1748.31  1776.71  1901.30
                             1931.38  2004.13  2006.30  2028.29  2106.99
                             2123.07  2125.72  2139.79  2149.73  2399.92
                             2591.31  4350.80  4362.42  4368.90  4419.63
                             4424.02  4470.31  4486.18  4496.28  4621.11
                             5383.33

 Zero-point correction=                           0.157541 (Hartree/Particle)
 Thermal correction to Energy=                    0.166773
 Thermal correction to Enthalpy=                  0.167717
 Thermal correction to Gibbs Free Energy=         0.123755
 Sum of electronic and zero-point Energies=           -423.078245
 Sum of electronic and thermal Energies=              -423.069014
 Sum of electronic and thermal Enthalpies=            -423.068069
 Sum of electronic and thermal Free Energies=         -423.112031

                     E (Thermal)             CV                S
                      KCal/Mol        Cal/Mol-Kelvin    Cal/Mol-Kelvin
 Total                  104.651             34.797             92.526
 Electronic               0.000              0.000              0.000
 Translational            0.889              2.981             40.409
 Rotational               0.889              2.981             28.811
 Vibrational            102.874             28.835             23.306
 Vibration     1          0.597              1.972              4.383
 Vibration     2          0.614              1.917              2.861
 Vibration     3          0.626              1.879              2.431
 Vibration     4          0.652              1.794              1.874
 Vibration     5          0.668              1.746              1.662
 Vibration     6          0.680              1.710              1.532
 Vibration     7          0.689              1.683              1.444
 Vibration     8          0.723              1.586              1.189
 Vibration     9          0.763              1.478              0.976
 Vibration    10          0.793              1.400              0.852
 Vibration    11          0.811              1.355              0.788
 Vibration    12          0.901              1.148              0.552
 Vibration    13          0.907              1.135              0.540

 Normal termination of Gaussian 09 at Mon Jan 27 22:51:35 2020.
