 Gaussian 09, Revision D.01,
 Gaussian 09:  ES64L-G09RevD.01 24-Apr-2013

 -----------------------------
 # b3lyp 6-31G(2df,p) opt Freq
 -----------------------------

 -----
 titel
 -----
 Symbolic Z-matrix:
 Charge =  0 Multiplicity = 1

 SCF Done:  E(RB3LYP) =  -423.207967014     A.U. after   14 cycles
 Optimization completed.
    -- Stationary point found.
 Normal termination of Gaussian 09 at Mon Jan 27 18:41:04 2020.

 ----------------------------------------------------------------------
 #N Geom=AllCheck Guess=TCheck SCRF=Check GenChk RB3LYP/6-31G(2df,p) Fr
 eq
 ----------------------------------------------------------------------

 Structure from the checkpoint file:  "/scratch/puck/g09_a3f8a36d-c9b0-4e0b-a02c-d0aa4d90a484/Gau-18823.chk"
 -----
 titel
 -----
 Charge =  0 Multiplicity = 1

                         Standard orientation:
 ---------------------------------------------------------------------
 Center     Atomic      Atomic             Coordinates (Angstroms)
 Number     Number       Type             X           Y           Z
 ---------------------------------------------------------------------
      1          6           0        2.357022    0.415822    0.402533
      2          6           0        0.914860    0.157043    0.012186
      3          6           0        0.692718   -1.030109   -0.952310
      4          8           0       -0.625648   -1.465940   -0.628599
      5          6           0       -0.999056   -0.807897    0.584692
      6          6           0       -1.927723    0.373420    0.271212
      7          6           0       -1.130352    1.482407   -0.368541
      8          6           0        0.190912    1.387425   -0.505228
      9          8           0        0.198538   -0.344918    1.159507
     10          1           0        2.414800    1.217238    1.144114
     11          1           0        2.803683   -0.486131    0.828619
     12          1           0        2.940307    0.717269   -0.473327
     13          1           0        0.732565   -0.744152   -2.007625
     14          1           0        1.420217   -1.831572   -0.762339
     15          1           0       -1.455289   -1.534878    1.263766
     16          1           0       -2.723229    0.027613   -0.399393
     17          1           0       -2.418423    0.725132    1.189368
     18          1           0       -1.666106    2.363359   -0.711736
     19          1           0        0.778062    2.164328   -0.985972
 ---------------------------------------------------------------------

 SCF Done:  E(RB3LYP) =  -423.207967014     A.U. after    1 cycles

 The electronic state is 1-A.
 Alpha  occ. eigenvalues --  -19.14272 -19.13633 -10.27293 -10.24344 -10.22621
 Alpha  occ. eigenvalues --  -10.18767 -10.18466 -10.18267 -10.18077  -1.08574
 Alpha  occ. eigenvalues --   -0.98599  -0.80640  -0.79525  -0.70835  -0.67210
 Alpha  occ. eigenvalues --   -0.61957  -0.59733  -0.53815  -0.51582  -0.47556
 Alpha  occ. eigenvalues --   -0.45798  -0.45272  -0.42434  -0.41611  -0.40996
 Alpha  occ. eigenvalues --   -0.39701  -0.38968  -0.36823  -0.35124  -0.33299
 Alpha  occ. eigenvalues --   -0.32282  -0.26392  -0.25902  -0.24151
 Alpha virt. eigenvalues --    0.01389   0.09214   0.10708   0.12563   0.13238
 Alpha virt. eigenvalues --    0.13710   0.15190   0.15825   0.15941   0.16926
 Alpha virt. eigenvalues --    0.18220   0.18601   0.19918   0.21062   0.21869

 Mulliken charges:
               1
     1  C   -0.476298
     2  C    0.301689
     3  C   -0.094163
     4  O   -0.281416
     5  C    0.184686
     6  C   -0.279214
     7  C   -0.071709
     8  C   -0.081114
     9  O   -0.279600
    10  H    0.133786
    11  H    0.128712
    12  H    0.120726
    13  H    0.106206
    14  H    0.092994
    15  H    0.085048
    16  H    0.119365
    17  H    0.109434
    18  H    0.094452
    19  H    0.086415
 Sum of Mulliken charges =   0.00000

 Dipole moment (field-independent basis, Debye):
    X=              0.4330    Y=              1.1301    Z=             -0.5164  Tot=              1.3158
 Quadrupole moment (field-independent basis, Debye-Ang):
   XX=            -48.4033   YY=            -54.0207   ZZ=            -54.8286
   XY=             -0.9546   XZ=             -2.7675   YZ=             -1.8507

  Exact polarizability:  91.945  -1.873  71.596  -5.152  -3.146  62.486
 Approx polarizability: 133.022  -0.770 101.588  -7.994  -3.429  97.803

                      1                      2                      3
                      A                      A                      A
 Frequencies --    163.8443               209.7635               254.2276
 Red. masses --      2.9230                 1.0523                 2.2268
 Frc consts  --      0.0462                 0.0273                 0.0848
 IR Inten    --      2.0818                 0.1723                 0.1102

                      4                      5                      6
                      A                      A                      A
 Frequencies --    281.3686               330.9073               376.9219
 Red. masses --      2.8209                 2.8480                 2.5085
 Frc consts  --      0.1316                 0.1837                 0.2100
 IR Inten    --      1.9298                 1.8694                 1.5642

                      7                      8                      9
                      A                      A                      A
 Frequencies --    462.0230               505.8874               552.4500
 Red. masses --      2.6407                 4.0490                 4.5409
 Frc consts  --      0.3321                 0.6105                 0.8165
 IR Inten    --      4.9539                 4.3139                 0.8008

                     10                     11                     12
                      A                      A                      A
 Frequencies --    615.4798               708.4247               718.5040
 Red. masses --      3.0094                 5.2814                 1.7837
 Frc consts  --      0.6717                 1.5617                 0.5425
 IR Inten    --      2.3054                 2.3262                14.9614

                     13                     14                     15
                      A                      A                      A
 Frequencies --    820.2731               843.0082               878.6481
 Red. masses --      4.3722                 3.9119                 2.3041
 Frc consts  --      1.7333                 1.6380                 1.0480
 IR Inten    --      9.8878                12.3341                27.7837

                     16                     17                     18
                      A                      A                      A
 Frequencies --    896.6532               922.0513               932.5600
 Red. masses --      3.0700                 2.1639                 2.9970
 Frc consts  --      1.4542                 1.0839                 1.5356
 IR Inten    --     24.5945                10.9890                17.2124

                     19                     20                     21
                      A                      A                      A
 Frequencies --    982.7315               987.0426              1008.4060
 Red. masses --      1.2590                 2.0988                 1.9420
 Frc consts  --      0.7164                 1.2047                 1.1635
 IR Inten    --      2.0133                11.7742                11.6291

                     22                     23                     24
                      A                      A                      A
 Frequencies --   1017.4075              1039.1003              1120.0958
 Red. masses --      1.6018                 4.7361                 2.6029
 Frc consts  --      0.9769                 3.0129                 1.9241
 IR Inten    --      1.6384                37.6512               117.4764

                     25                     26                     27
                      A                      A                      A
 Frequencies --   1153.7712              1181.5570              1188.5968
 Red. masses --      2.4097                 1.4567                 1.2589
 Frc consts  --      1.8899                 1.1982                 1.0479
 IR Inten    --     21.8824                 8.7009                 8.6856

                     28                     29                     30
                      A                      A                      A
 Frequencies --   1203.7674              1244.2583              1264.5104
 Red. masses --      1.2022                 2.7013                 1.8141
 Frc consts  --      1.0264                 2.4640                 1.7091
 IR Inten    --      9.7585                 8.0727                 9.1765

                     31                     32                     33
                      A                      A                      A
 Frequencies --   1328.6545              1345.4325              1373.0716
 Red. masses --      1.3447                 1.7560                 1.4564
 Frc consts  --      1.3986                 1.8728                 1.6177
 IR Inten    --     11.1574                23.9385                 4.8689

                     34                     35                     36
                      A                      A                      A
 Frequencies --   1381.6363              1409.3864              1420.0118
 Red. masses --      1.3588                 1.3507                 1.5515
 Frc consts  --      1.5283                 1.5808                 1.8432
 IR Inten    --      3.3085                 7.5193                 1.0910

                     37                     38                     39
                      A                      A                      A
 Frequencies --   1461.9414              1482.6857              1496.3824
 Red. masses --      1.0961                 1.0565                 1.0510
 Frc consts  --      1.3803                 1.3684                 1.3865
 IR Inten    --      4.1022                 2.2737                 3.1647

                     40                     41                     42
                      A                      A                      A
 Frequencies --   1516.2238              1709.6130              3003.8637
 Red. masses --      1.0921                 6.8700                 1.0653
 Frc consts  --      1.4792                11.8305                 5.6637
 IR Inten    --      0.7916                 6.1336                68.9019

                     43                     44                     45
                      A                      A                      A
 Frequencies --   3015.5090              3044.2638              3060.9263
 Red. masses --      1.0647                 1.0353                 1.0962
 Frc consts  --      5.7045                 5.6531                 6.0512
 IR Inten    --     23.9138                17.2007                13.8887

                     46                     47                     48
                      A                      A                      A
 Frequencies --   3066.8552              3081.7582              3116.1770
 Red. masses --      1.0892                 1.0991                 1.1008
 Frc consts  --      6.0360                 6.1503                 6.2982
 IR Inten    --     65.5009                23.8000                15.2455

                     49                     50                     51
                      A                      A                      A
 Frequencies --   3127.0632              3155.2991              3179.3254
 Red. masses --      1.1025                 1.0841                 1.0986
 Frc consts  --      6.3521                 6.3594                 6.5430
 IR Inten    --     16.5364                 7.4828                23.7508

 - Thermochemistry -
 -------------------
 Temperature   298.150 Kelvin.  Pressure   1.00000 Atm.
 Atom     1 has atomic number  6 and mass  12.00000

 Molecular mass:   126.06808 amu.
 Principal axes and moments of inertia in atomic units:
                           1         2         3
     Eigenvalues --   684.18699 955.348131197.86942
           X            0.99976  -0.01684  -0.01421
           Y            0.01656   0.99966  -0.01990
           Z            0.01454   0.01965   0.99970
 This molecule is an asymmetric top.
 Rotational symmetry number  1.
 Warning -- assumption of classical behavior for rotation
           may cause significant error
 Rotational temperatures (Kelvin)      0.12659     0.09066     0.07231
 Rotational constants (GHZ):           2.63779     1.88909     1.50663
 Zero-point vibrational energy     422522.9 (Joules/Mol)
                                  100.98541 (Kcal/Mol)
 Warning -- explicit consideration of  10 degrees of freedom as
           vibrations may cause significant error
 Vibrational temperatures:    235.74   301.80   365.78   404.83   476.10
          (Kelvin)            542.31   664.75   727.86   794.85   885.54
                             1019.26  1033.77  1180.19  1212.90  1264.18
                             1290.08  1326.62  1341.74  1413.93  1420.13
                             1450.87  1463.82  1495.03  1611.57  1660.02
                             1699.99  1710.12  1731.95  1790.21  1819.35
                             1911.64  1935.77  1975.54  1987.86  2027.79
                             2043.08  2103.40  2133.25  2152.96  2181.51
                             2459.75  4321.88  4338.64  4380.01  4403.98
                             4412.52  4433.96  4483.48  4499.14  4539.77
                             4574.33

 Zero-point correction=                           0.160930 (Hartree/Particle)
 Thermal correction to Energy=                    0.168321
 Thermal correction to Enthalpy=                  0.169265
 Thermal correction to Gibbs Free Energy=         0.129622
 Sum of electronic and zero-point Energies=           -423.047037
 Sum of electronic and thermal Energies=              -423.039646
 Sum of electronic and thermal Enthalpies=            -423.038702
 Sum of electronic and thermal Free Energies=         -423.078345

                     E (Thermal)             CV                S
                      KCal/Mol        Cal/Mol-Kelvin    Cal/Mol-Kelvin
 Total                  105.623             30.114             83.435
 Electronic               0.000              0.000              0.000
 Translational            0.889              2.981             40.409
 Rotational               0.889              2.981             28.151
 Vibrational            103.845             24.152             14.876
 Vibration     1          0.623              1.887              2.505
 Vibration     2          0.642              1.826              2.046
 Vibration     3          0.665              1.756              1.701
 Vibration     4          0.681              1.708              1.525
 Vibration     5          0.713              1.614              1.256
 Vibration     6          0.747              1.519              1.051
 Vibration     7          0.820              1.334              0.760
 Vibration     8          0.861              1.237              0.644
 Vibration     9          0.908              1.134              0.539
 Vibration    10          0.975              0.999              0.424

 Normal termination of Gaussian 09 at Mon Jan 27 20:30:20 2020.
