 Gaussian 09, Revision D.01,
 Gaussian 09:  ES64L-G09RevD.01 24-Apr-2013

 -----------------------------
 # b3lyp 6-31G(2df,p) opt Freq
 -----------------------------

 -----
 titel
 -----
 Symbolic Z-matrix:
 Charge =  0 Multiplicity = 1

 SCF Done:  E(RB3LYP) =  -423.182009576     A.U. after   14 cycles
 Optimization completed.
    -- Stationary point found.
 Normal termination of Gaussian 09 at Mon Jan 27 22:03:57 2020.

 ----------------------------------------------------------------------
 #N Geom=AllCheck Guess=TCheck SCRF=Check GenChk RB3LYP/6-31G(2df,p) Fr
 eq
 ----------------------------------------------------------------------

 Structure from the checkpoint file:  "/scratch/puck/g09_60576e8f-235c-45a2-82f2-48e127c8723e/Gau-72635.chk"
 -----
 titel
 -----
 Charge =  0 Multiplicity = 1

                         Standard orientation:
 ---------------------------------------------------------------------
 Center     Atomic      Atomic             Coordinates (Angstroms)
 Number     Number       Type             X           Y           Z
 ---------------------------------------------------------------------
      1          6           0       -2.770769   -0.315602   -0.075345
      2          6           0       -1.393860    0.247099    0.053966
      3          6           0       -0.982084    1.500809   -0.150019
      4          6           0        0.500295    1.686924    0.090858
      5          6           0        0.981408    0.246111    0.196767
      6          6           0        2.354849   -0.203510    0.407844
      7          8           0        1.765486   -0.250193   -0.903631
      8          6           0       -0.240255   -0.633959    0.515873
      9          8           0       -0.162666   -1.907716   -0.085521
     10          1           0       -3.149758   -0.658407    0.896467
     11          1           0       -3.474656    0.417740   -0.477525
     12          1           0       -2.760288   -1.194421   -0.729034
     13          1           0       -1.627338    2.324688   -0.436821
     14          1           0        1.018121    2.210210   -0.720370
     15          1           0        0.698077    2.247667    1.015089
     16          1           0        3.157207    0.523562    0.522962
     17          1           0        2.533384   -1.175715    0.864783
     18          1           0       -0.319411   -0.807580    1.600043
     19          1           0        0.404598   -1.791708   -0.862045
 ---------------------------------------------------------------------

 SCF Done:  E(RB3LYP) =  -423.182009576     A.U. after    1 cycles

 The electronic state is 1-A.
 Alpha  occ. eigenvalues --  -19.16057 -19.12950 -10.24480 -10.23812 -10.23245
 Alpha  occ. eigenvalues --  -10.19244 -10.18419 -10.18041 -10.17803  -1.07940
 Alpha  occ. eigenvalues --   -1.01158  -0.83911  -0.74427  -0.69495  -0.67238
 Alpha  occ. eigenvalues --   -0.64850  -0.57450  -0.53655  -0.51883  -0.47426
 Alpha  occ. eigenvalues --   -0.46388  -0.44119  -0.43460  -0.41908  -0.40491
 Alpha  occ. eigenvalues --   -0.40188  -0.37208  -0.36417  -0.35460  -0.32184
 Alpha  occ. eigenvalues --   -0.31110  -0.27987  -0.26055  -0.24180
 Alpha virt. eigenvalues --    0.02053   0.08385   0.09293   0.11050   0.11707
 Alpha virt. eigenvalues --    0.13138   0.14197   0.14957   0.15741   0.17282
 Alpha virt. eigenvalues --    0.17690   0.18271   0.19619   0.20284   0.23439

 Mulliken charges:
               1
     1  C   -0.493478
     2  C    0.298896
     3  C   -0.179021
     4  C   -0.343900
     5  C    0.366437
     6  C   -0.244645
     7  O   -0.275245
     8  C   -0.024409
     9  O   -0.438290
    10  H    0.125601
    11  H    0.119234
    12  H    0.141439
    13  H    0.090752
    14  H    0.122502
    15  H    0.112606
    16  H    0.118023
    17  H    0.123499
    18  H    0.088693
    19  H    0.291308
 Sum of Mulliken charges =   0.00000

 Dipole moment (field-independent basis, Debye):
    X=              0.3111    Y=              1.6156    Z=              1.0812  Tot=              1.9688
 Quadrupole moment (field-independent basis, Debye-Ang):
   XX=            -49.8469   YY=            -54.6742   ZZ=            -53.2888
   XY=             -0.6157   XZ=              2.7953   YZ=              0.3997

  Exact polarizability:  91.522   3.618  82.770   2.586  -2.868  57.583
 Approx polarizability: 116.219   7.931 128.681   0.249  -4.316  95.427

                      1                      2                      3
                      A                      A                      A
 Frequencies --     80.4808               165.5376               221.9762
 Red. masses --      4.2594                 1.0719                 2.8376
 Frc consts  --      0.0163                 0.0173                 0.0824
 IR Inten    --      0.8570                 0.4172                 4.3130

                      4                      5                      6
                      A                      A                      A
 Frequencies --    242.2774               259.7701               285.3920
 Red. masses --      2.6357                 3.0556                 3.7308
 Frc consts  --      0.0912                 0.1215                 0.1790
 IR Inten    --      0.6697                 1.6900                14.9991

                      7                      8                      9
                      A                      A                      A
 Frequencies --    349.4397               409.6868               453.7414
 Red. masses --      2.3327                 2.5000                 1.2703
 Frc consts  --      0.1678                 0.2472                 0.1541
 IR Inten    --     15.2236                 4.6817                70.7299

                     10                     11                     12
                      A                      A                      A
 Frequencies --    487.5876               513.2701               616.4948
 Red. masses --      4.0416                 3.3198                 4.3199
 Frc consts  --      0.5661                 0.5153                 0.9673
 IR Inten    --      1.7991                 5.6119                 3.1066

                     13                     14                     15
                      A                      A                      A
 Frequencies --    663.6743               759.4720               822.3498
 Red. masses --      4.3605                 4.0479                 1.5106
 Frc consts  --      1.1316                 1.3756                 0.6019
 IR Inten    --      2.0522                24.3493                12.1765

                     16                     17                     18
                      A                      A                      A
 Frequencies --    858.3052               882.0351               904.1859
 Red. masses --      2.5228                 2.1804                 1.9873
 Frc consts  --      1.0950                 0.9994                 0.9572
 IR Inten    --      3.4054                19.2359                 9.1127

                     19                     20                     21
                      A                      A                      A
 Frequencies --    959.4955               973.6551              1015.3030
 Red. masses --      2.7198                 2.3955                 1.9528
 Frc consts  --      1.4753                 1.3380                 1.1860
 IR Inten    --     25.5388                 7.8722                 4.7503

                     22                     23                     24
                      A                      A                      A
 Frequencies --   1036.6514              1068.1847              1103.3559
 Red. masses --      1.5484                 1.6431                 3.9391
 Frc consts  --      0.9804                 1.1046                 2.8254
 IR Inten    --     12.2298                 2.9134                80.0216

                     25                     26                     27
                      A                      A                      A
 Frequencies --   1120.0528              1157.8685              1181.2691
 Red. masses --      1.2579                 1.2856                 1.4058
 Frc consts  --      0.9297                 1.0155                 1.1558
 IR Inten    --      0.8743                11.3565                 3.4119

                     28                     29                     30
                      A                      A                      A
 Frequencies --   1195.6436              1229.2944              1263.8805
 Red. masses --      2.1421                 1.5631                 1.9651
 Frc consts  --      1.8042                 1.3917                 1.8495
 IR Inten    --      5.8259                 3.1893                11.0879

                     31                     32                     33
                      A                      A                      A
 Frequencies --   1291.8918              1310.5831              1342.0726
 Red. masses --      1.7412                 1.3596                 2.1329
 Frc consts  --      1.7122                 1.3760                 2.2635
 IR Inten    --     14.4447                 3.1991                 6.1741

                     34                     35                     36
                      A                      A                      A
 Frequencies --   1408.2247              1424.9728              1443.3417
 Red. masses --      1.3069                 1.8843                 1.3778
 Frc consts  --      1.5269                 2.2544                 1.6911
 IR Inten    --      4.3136                 5.4065                71.2858

                     37                     38                     39
                      A                      A                      A
 Frequencies --   1474.3029              1477.6037              1489.5609
 Red. masses --      1.0459                 1.1084                 1.0574
 Frc consts  --      1.3394                 1.4259                 1.3823
 IR Inten    --      5.4722                 4.8472                 8.9697

                     40                     41                     42
                      A                      A                      A
 Frequencies --   1525.0536              1721.3519              2987.2259
 Red. masses --      1.5370                 7.1845                 1.0823
 Frc consts  --      2.1062                12.5425                 5.6905
 IR Inten    --      2.8093                 1.0561                35.0345

                     43                     44                     45
                      A                      A                      A
 Frequencies --   3011.4046              3021.5661              3065.8800
 Red. masses --      1.0671                 1.0410                 1.0943
 Frc consts  --      5.7017                 5.5996                 6.0603
 IR Inten    --     32.8703                28.2471                14.8877

                     46                     47                     48
                      A                      A                      A
 Frequencies --   3077.3477              3085.7955              3116.8315
 Red. masses --      1.0926                 1.0506                 1.1016
 Frc consts  --      6.0961                 5.8942                 6.3053
 IR Inten    --     13.8714                25.2669                16.8664

                     49                     50                     51
                      A                      A                      A
 Frequencies --   3174.3928              3184.5514              3724.2425
 Red. masses --      1.1196                 1.0935                 1.0648
 Frc consts  --      6.6468                 6.5337                 8.7011
 IR Inten    --     14.0652                17.6143                53.4082

 - Thermochemistry -
 -------------------
 Temperature   298.150 Kelvin.  Pressure   1.00000 Atm.
 Atom     1 has atomic number  6 and mass  12.00000

 Molecular mass:   126.06808 amu.
 Principal axes and moments of inertia in atomic units:
                           1         2         3
     Eigenvalues --   636.641671202.805991647.34579
           X            0.99979   0.01332   0.01560
           Y           -0.01324   0.99990  -0.00537
           Z           -0.01567   0.00516   0.99986
 This molecule is an asymmetric top.
 Rotational symmetry number  1.
 Warning -- assumption of classical behavior for rotation
           may cause significant error
 Rotational temperatures (Kelvin)      0.13605     0.07201     0.05258
 Rotational constants (GHZ):           2.83478     1.50044     1.09554
 Zero-point vibrational energy     416530.9 (Joules/Mol)
                                   99.55327 (Kcal/Mol)
 Warning -- explicit consideration of  12 degrees of freedom as
           vibrations may cause significant error
 Vibrational temperatures:    115.79   238.17   319.37   348.58   373.75
          (Kelvin)            410.61   502.77   589.45   652.83   701.53
                              738.48   887.00   954.88  1092.71  1183.18
                             1234.91  1269.05  1300.92  1380.50  1400.87
                             1460.79  1491.51  1536.88  1587.48  1611.50
                             1665.91  1699.58  1720.26  1768.68  1818.44
                             1858.74  1885.63  1930.94  2026.12  2050.22
                             2076.64  2121.19  2125.94  2143.14  2194.21
                             2476.64  4297.95  4332.73  4347.35  4411.11
                             4427.61  4439.77  4484.42  4567.24  4581.85
                             5358.35

 Zero-point correction=                           0.158648 (Hartree/Particle)
 Thermal correction to Energy=                    0.167177
 Thermal correction to Enthalpy=                  0.168121
 Thermal correction to Gibbs Free Energy=         0.125785
 Sum of electronic and zero-point Energies=           -423.023361
 Sum of electronic and thermal Energies=              -423.014833
 Sum of electronic and thermal Enthalpies=            -423.013889
 Sum of electronic and thermal Free Energies=         -423.056224

                     E (Thermal)             CV                S
                      KCal/Mol        Cal/Mol-Kelvin    Cal/Mol-Kelvin
 Total                  104.905             32.977             89.103
 Electronic               0.000              0.000              0.000
 Translational            0.889              2.981             40.409
 Rotational               0.889              2.981             28.624
 Vibrational            103.128             27.015             20.070
 Vibration     1          0.600              1.962              3.879
 Vibration     2          0.624              1.885              2.486
 Vibration     3          0.648              1.808              1.943
 Vibration     4          0.658              1.776              1.786
 Vibration     5          0.668              1.746              1.663
 Vibration     6          0.683              1.701              1.501
 Vibration     7          0.727              1.576              1.169
 Vibration     8          0.774              1.449              0.928
 Vibration     9          0.812              1.353              0.785
 Vibration    10          0.844              1.278              0.690
 Vibration    11          0.868              1.221              0.626
 Vibration    12          0.976              0.997              0.422

 Optimization completed.
    -- Stationary point found.
 Normal termination of Gaussian 09 at Mon Jan 27 22:48:36 2020.
