 Gaussian 09, Revision D.01,
 Gaussian 09:  ES64L-G09RevD.01 24-Apr-2013

 -----------------------------
 # b3lyp 6-31G(2df,p) opt Freq
 -----------------------------

 -----
 titel
 -----
 Symbolic Z-matrix:
 Charge =  0 Multiplicity = 1

 SCF Done:  E(RB3LYP) =  -423.150727664     A.U. after   14 cycles
 SCF Done:  E(RB3LYP) =  -423.150727838     A.U. after    7 cycles
 SCF Done:  E(RB3LYP) =  -423.150727922     A.U. after    6 cycles
 Optimization completed.
    -- Stationary point found.
 Normal termination of Gaussian 09 at Mon Jan 27 23:05:30 2020.

 ----------------------------------------------------------------------
 #N Geom=AllCheck Guess=TCheck SCRF=Check GenChk RB3LYP/6-31G(2df,p) Fr
 eq
 ----------------------------------------------------------------------

 Structure from the checkpoint file:  "/scratch/puck/g09_17a21a88-c85b-4b0e-91ab-e343a4ece978/Gau-183268.chk"
 -----
 titel
 -----
 Charge =  0 Multiplicity = 1

                         Standard orientation:
 ---------------------------------------------------------------------
 Center     Atomic      Atomic             Coordinates (Angstroms)
 Number     Number       Type             X           Y           Z
 ---------------------------------------------------------------------
      1          6           0        1.870140    1.234307    0.005567
      2          6           0        0.430835    0.746412    0.002919
      3          8           0       -0.348265    1.906802    0.007302
      4          6           0       -0.028874   -0.397812    1.033738
      5          6           0        0.928999   -1.514265    0.672727
      6          6           0        0.928781   -1.512867   -0.670925
      7          6           0       -0.030702   -0.393397   -1.030703
      8          6           0       -1.164781   -0.744460   -0.010044
      9          8           0       -2.291676    0.117256   -0.089412
     10          1           0        2.030937    1.864897    0.885486
     11          1           0        2.594683    0.421897    0.011579
     12          1           0        2.037577    1.858343   -0.877736
     13          1           0       -1.277996    1.635820   -0.028409
     14          1           0       -0.242488   -0.179075    2.081057
     15          1           0        1.487402   -2.133076    1.361064
     16          1           0        1.489190   -2.125727   -1.362617
     17          1           0       -0.247734   -0.174023   -2.076038
     18          1           0       -1.485632   -1.791953   -0.011008
     19          1           0       -2.872803   -0.077070    0.653834
 ---------------------------------------------------------------------

 SCF Done:  E(RB3LYP) =  -423.150727922     A.U. after    1 cycles

 The electronic state is 1-A.
 Alpha  occ. eigenvalues --  -19.16334 -19.11801 -10.24302 -10.23802 -10.19034
 Alpha  occ. eigenvalues --  -10.18985 -10.18078 -10.17996 -10.15965  -1.04755
 Alpha  occ. eigenvalues --   -1.00700  -0.88321  -0.72369  -0.70684  -0.67765
 Alpha  occ. eigenvalues --   -0.61269  -0.54891  -0.53977  -0.52233  -0.51505
 Alpha  occ. eigenvalues --   -0.45467  -0.44377  -0.41978  -0.40157  -0.38219
 Alpha  occ. eigenvalues --   -0.36988  -0.35894  -0.35550  -0.35059  -0.33545
 Alpha  occ. eigenvalues --   -0.30400  -0.27827  -0.24088  -0.22948
 Alpha virt. eigenvalues --    0.01218   0.06264   0.11083   0.12893   0.13415
 Alpha virt. eigenvalues --    0.14635   0.15590   0.16419   0.16767   0.16919
 Alpha virt. eigenvalues --    0.17829   0.18937   0.20303   0.21882   0.24279

 Mulliken charges:
               1
     1  C   -0.441545
     2  C    0.470984
     3  O   -0.497687
     4  C   -0.197160
     5  C   -0.095112
     6  C   -0.095836
     7  C   -0.162576
     8  C    0.132308
     9  O   -0.451657
    10  H    0.119650
    11  H    0.116951
    12  H    0.120648
    13  H    0.284150
    14  H    0.057468
    15  H    0.100508
    16  H    0.101400
    17  H    0.067938
    18  H    0.077479
    19  H    0.292089
 Sum of Mulliken charges =   0.00000

 Dipole moment (field-independent basis, Debye):
    X=             -0.8906    Y=             -2.0412    Z=              1.0088  Tot=              2.4449
 Quadrupole moment (field-independent basis, Debye-Ang):
   XX=            -48.4795   YY=            -57.3779   ZZ=            -50.7897
   XY=             -0.0135   XZ=             -3.7347   YZ=             -0.1424

  Exact polarizability:  78.405  -2.840  76.980  -1.501  -0.075  72.515
 Approx polarizability: 111.109  -7.958 114.955  -1.552  -0.498 124.164

                      1                      2                      3
                      A                      A                      A
 Frequencies --    191.2092               194.9171               286.1988
 Red. masses --      1.0830                 2.8703                 3.0969
 Frc consts  --      0.0233                 0.0642                 0.1495
 IR Inten    --      0.6020                 5.5886                 1.0335

                      4                      5                      6
                      A                      A                      A
 Frequencies --    303.7352               326.4253               342.9438
 Red. masses --      1.7308                 2.8292                 1.9844
 Frc consts  --      0.0941                 0.1776                 0.1375
 IR Inten    --     33.7269                12.1942                46.5454

                      7                      8                      9
                      A                      A                      A
 Frequencies --    394.2483               429.4922               465.4188
 Red. masses --      3.3111                 3.9406                 3.6753
 Frc consts  --      0.3032                 0.4283                 0.4691
 IR Inten    --      1.1197                 5.5800                 7.6858

                     10                     11                     12
                      A                      A                      A
 Frequencies --    565.3124               604.1585               618.0323
 Red. masses --      2.8440                 5.0533                 2.8728
 Frc consts  --      0.5355                 1.0867                 0.6465
 IR Inten    --      0.9621                 8.1910                13.5506

                     13                     14                     15
                      A                      A                      A
 Frequencies --    660.0284               703.2488               725.6464
 Red. masses --      1.1191                 3.4564                 1.6779
 Frc consts  --      0.2872                 1.0071                 0.5205
 IR Inten    --     81.4807                 0.4384                45.4592

                     16                     17                     18
                      A                      A                      A
 Frequencies --    848.8022               864.3586               910.2595
 Red. masses --      2.9276                 2.7814                 1.6000
 Frc consts  --      1.2427                 1.2243                 0.7811
 IR Inten    --      0.5769                 7.5189                 1.4898

                     19                     20                     21
                      A                      A                      A
 Frequencies --    922.3622               927.0414               962.7712
 Red. masses --      1.6181                 2.4342                 2.5771
 Frc consts  --      0.8111                 1.2325                 1.4074
 IR Inten    --      0.4956                17.3219                 9.8081

                     22                     23                     24
                      A                      A                      A
 Frequencies --    969.3634               999.0030              1059.3483
 Red. masses --      2.3623                 1.6233                 2.9298
 Frc consts  --      1.3078                 0.9545                 1.9372
 IR Inten    --      3.3529                 1.6478                80.0070

                     25                     26                     27
                      A                      A                      A
 Frequencies --   1074.9615              1123.2366              1142.0104
 Red. masses --      1.4416                 1.8030                 1.7715
 Frc consts  --      0.9815                 1.3403                 1.3613
 IR Inten    --      4.8336                 1.9272                 9.6556

                     28                     29                     30
                      A                      A                      A
 Frequencies --   1145.7879              1175.1429              1188.2025
 Red. masses --      2.0123                 2.1379                 1.3442
 Frc consts  --      1.5565                 1.7395                 1.1181
 IR Inten    --     20.7709                47.5559                 5.0387

                     31                     32                     33
                      A                      A                      A
 Frequencies --   1207.7642              1234.6713              1258.1686
 Red. masses --      1.5167                 1.6308                 2.2512
 Frc consts  --      1.3035                 1.4647                 2.0996
 IR Inten    --      3.0598                23.4711               108.2990

                     34                     35                     36
                      A                      A                      A
 Frequencies --   1286.9978              1336.4059              1395.6186
 Red. masses --      1.4231                 1.6881                 1.2288
 Frc consts  --      1.3888                 1.7763                 1.4101
 IR Inten    --     73.2821                16.8911                24.5547

                     37                     38                     39
                      A                      A                      A
 Frequencies --   1406.9335              1470.9463              1487.3019
 Red. masses --      1.3478                 1.3545                 1.0482
 Frc consts  --      1.5719                 1.7267                 1.3661
 IR Inten    --      1.4504               103.7088                 2.3921

                     40                     41                     42
                      A                      A                      A
 Frequencies --   1495.3649              1603.8054              3045.3230
 Red. masses --      1.1164                 5.4130                 1.0854
 Frc consts  --      1.4708                 8.2034                 5.9305
 IR Inten    --     34.2574                 0.6089                66.8817

                     43                     44                     45
                      A                      A                      A
 Frequencies --   3049.2256              3107.7810              3108.4688
 Red. masses --      1.0401                 1.1004                 1.0896
 Frc consts  --      5.6978                 6.2617                 6.2033
 IR Inten    --     10.7262                 9.6987                44.7769

                     46                     47                     48
                      A                      A                      A
 Frequencies --   3123.1653              3160.8452              3215.9245
 Red. masses --      1.0902                 1.0983                 1.0866
 Frc consts  --      6.2653                 6.4654                 6.6214
 IR Inten    --     22.7618                12.6711                 4.9062

                     49                     50                     51
                      A                      A                      A
 Frequencies --   3241.2055              3687.2059              3810.5107
 Red. masses --      1.1083                 1.0647                 1.0661
 Frc consts  --      6.8598                 8.5288                 9.1200
 IR Inten    --     10.5731               162.0015                34.6313

 - Thermochemistry -
 -------------------
 Temperature   298.150 Kelvin.  Pressure   1.00000 Atm.
 Atom     1 has atomic number  6 and mass  12.00000

 Molecular mass:   126.06808 amu.
 Principal axes and moments of inertia in atomic units:
                           1         2         3
     Eigenvalues --   791.48037 893.773051321.32156
           X            0.99375   0.11099  -0.01183
           Y           -0.11101   0.99382  -0.00092
           Z            0.01166   0.00223   0.99993
 This molecule is an asymmetric top.
 Rotational symmetry number  1.
 Warning -- assumption of classical behavior for rotation
           may cause significant error
 Rotational temperatures (Kelvin)      0.10943     0.09691     0.06555
 Rotational constants (GHZ):           2.28021     2.01924     1.36586
 Zero-point vibrational energy     417839.4 (Joules/Mol)
                                   99.86602 (Kcal/Mol)
 Warning -- explicit consideration of  12 degrees of freedom as
           vibrations may cause significant error
 Vibrational temperatures:    275.11   280.44   411.78   437.01   469.65
          (Kelvin)            493.42   567.23   617.94   669.63   813.36
                              869.25   889.21   949.63  1011.82  1044.04
                             1221.24  1243.62  1309.66  1327.07  1333.80
                             1385.21  1394.70  1437.34  1524.16  1546.63
                             1616.08  1643.10  1648.53  1690.77  1709.56
                             1737.70  1776.41  1810.22  1851.70  1922.79
                             2007.98  2024.26  2116.36  2139.89  2151.49
                             2307.52  4381.54  4387.15  4471.40  4472.39
                             4493.53  4547.75  4626.99  4663.37  5305.06
                             5482.47

 Zero-point correction=                           0.159147 (Hartree/Particle)
 Thermal correction to Energy=                    0.167068
 Thermal correction to Enthalpy=                  0.168012
 Thermal correction to Gibbs Free Energy=         0.127593
 Sum of electronic and zero-point Energies=           -422.991581
 Sum of electronic and thermal Energies=              -422.983660
 Sum of electronic and thermal Enthalpies=            -422.982716
 Sum of electronic and thermal Free Energies=         -423.023135

                     E (Thermal)             CV                S
                      KCal/Mol        Cal/Mol-Kelvin    Cal/Mol-Kelvin
 Total                  104.837             32.986             85.069
 Electronic               0.000              0.000              0.000
 Translational            0.889              2.981             40.409
 Rotational               0.889              2.981             28.327
 Vibrational            103.059             27.024             16.334
 Vibration     1          0.634              1.852              2.216
 Vibration     2          0.636              1.847              2.181
 Vibration     3          0.684              1.699              1.496
 Vibration     4          0.695              1.667              1.396
 Vibration     5          0.710              1.623              1.278
 Vibration     6          0.722              1.590              1.198
 Vibration     7          0.761              1.482              0.984
 Vibration     8          0.791              1.406              0.860
 Vibration     9          0.823              1.327              0.750
 Vibration    10          0.921              1.106              0.513
 Vibration    11          0.963              1.023              0.443
 Vibration    12          0.978              0.994              0.420

 Normal termination of Gaussian 09 at Mon Jan 27 23:51:26 2020.
