 Gaussian 09, Revision D.01,
 Gaussian 09:  ES64L-G09RevD.01 24-Apr-2013

 -----------------------------
 # b3lyp 6-31G(2df,p) opt Freq
 -----------------------------

 -----
 titel
 -----
 Symbolic Z-matrix:
 Charge =  0 Multiplicity = 1

 SCF Done:  E(RB3LYP) =  -423.180114933     A.U. after   14 cycles
 Optimization completed.
    -- Stationary point found.
 Normal termination of Gaussian 09 at Mon Jan 27 13:23:38 2020.

 ----------------------------------------------------------------------
 #N Geom=AllCheck Guess=TCheck SCRF=Check GenChk RB3LYP/6-31G(2df,p) Fr
 eq
 ----------------------------------------------------------------------

 Structure from the checkpoint file:  "/scratch/puck/g09_5f9b499a-119e-4546-8ca4-e312afa33e95/Gau-155475.chk"
 -----
 titel
 -----
 Charge =  0 Multiplicity = 1

                         Standard orientation:
 ---------------------------------------------------------------------
 Center     Atomic      Atomic             Coordinates (Angstroms)
 Number     Number       Type             X           Y           Z
 ---------------------------------------------------------------------
      1          8           0        3.256797   -0.165216    0.516672
      2          6           0        2.314863   -0.142245   -0.232181
      3          6           0        0.866182   -0.036605    0.189996
      4          6           0        0.254391    1.284099   -0.319364
      5          8           0       -1.064040    1.447456    0.167022
      6          6           0       -1.958471    0.436318   -0.208559
      7          6           0       -2.247171   -0.632956    0.811358
      8          6           0       -1.439565   -0.962591   -0.425739
      9          6           0        0.057695   -1.221129   -0.387253
     10          1           0        2.462644   -0.195666   -1.338199
     11          1           0        0.839954   -0.028354    1.283674
     12          1           0        0.816416    2.144106    0.054595
     13          1           0        0.277759    1.309213   -1.421421
     14          1           0       -2.767096    0.805484   -0.835302
     15          1           0       -1.722991   -0.535220    1.755944
     16          1           0       -3.252477   -1.032290    0.887676
     17          1           0       -1.964075   -1.543886   -1.178404
     18          1           0        0.283041   -2.136881    0.170580
     19          1           0        0.397223   -1.393775   -1.418238
 ---------------------------------------------------------------------

 SCF Done:  E(RB3LYP) =  -423.180114934     A.U. after    1 cycles

 The electronic state is 1-A.
 Alpha  occ. eigenvalues --  -19.15090 -19.14378 -10.27397 -10.24275 -10.24006
 Alpha  occ. eigenvalues --  -10.20419 -10.20263 -10.20184 -10.18845  -1.05108
 Alpha  occ. eigenvalues --   -1.04738  -0.86017  -0.81367  -0.69856  -0.66969
 Alpha  occ. eigenvalues --   -0.60128  -0.58357  -0.55359  -0.52253  -0.49127
 Alpha  occ. eigenvalues --   -0.47547  -0.45936  -0.45211  -0.43436  -0.40831
 Alpha  occ. eigenvalues --   -0.39844  -0.38776  -0.36789  -0.36319  -0.33910
 Alpha  occ. eigenvalues --   -0.32012  -0.27458  -0.26196  -0.24494
 Alpha virt. eigenvalues --   -0.02918   0.07988   0.09896   0.10352   0.11192
 Alpha virt. eigenvalues --    0.12300   0.13944   0.14871   0.15235   0.16281
 Alpha virt. eigenvalues --    0.17419   0.17989   0.19330   0.20217   0.22653

 Mulliken charges:
               1
     1  O   -0.244625
     2  C    0.150757
     3  C   -0.093794
     4  C   -0.085705
     5  O   -0.251972
     6  C    0.101904
     7  C   -0.306838
     8  C   -0.056726
     9  C   -0.248485
    10  H    0.071071
    11  H    0.103493
    12  H    0.123144
    13  H    0.092321
    14  H    0.093728
    15  H    0.123057
    16  H    0.113375
    17  H    0.093579
    18  H    0.118048
    19  H    0.103668
 Sum of Mulliken charges =   0.00000

 Dipole moment (field-independent basis, Debye):
    X=             -2.0527    Y=             -0.9689    Z=             -1.7669  Tot=              2.8765
 Quadrupole moment (field-independent basis, Debye-Ang):
   XX=            -61.9334   YY=            -53.9763   ZZ=            -52.2635
   XY=              3.2470   XZ=             -2.4790   YZ=             -0.5056

  Exact polarizability:  92.312   2.324  67.444  -0.216  -0.470  68.456
 Approx polarizability: 122.357   0.449 100.367   4.479   0.650 109.570

                      1                      2                      3
                      A                      A                      A
 Frequencies --     52.2787                84.4052               191.9574
 Red. masses --      4.8792                 3.3752                 2.8933
 Frc consts  --      0.0079                 0.0142                 0.0628
 IR Inten    --      5.1371                 0.9936                 5.6998

                      4                      5                      6
                      A                      A                      A
 Frequencies --    269.8414               290.5363               346.0829
 Red. masses --      2.5524                 2.2705                 3.3562
 Frc consts  --      0.1095                 0.1129                 0.2368
 IR Inten    --      2.7499                 1.3126                 2.7900

                      7                      8                      9
                      A                      A                      A
 Frequencies --    400.3443               429.7782               498.1277
 Red. masses --      2.6991                 2.7996                 4.2988
 Frc consts  --      0.2549                 0.3047                 0.6285
 IR Inten    --      4.4695                 0.4020                 7.2868

                     10                     11                     12
                      A                      A                      A
 Frequencies --    559.6898               681.8495               757.6616
 Red. masses --      4.1224                 2.2422                 2.5246
 Frc consts  --      0.7608                 0.6142                 0.8539
 IR Inten    --     10.4606                 7.7719                11.6271

                     13                     14                     15
                      A                      A                      A
 Frequencies --    813.4063               850.4715               875.6113
 Red. masses --      1.9792                 1.7928                 1.5887
 Frc consts  --      0.7715                 0.7640                 0.7176
 IR Inten    --     11.8135                 1.1098                 1.3814

                     16                     17                     18
                      A                      A                      A
 Frequencies --    900.5365               935.2919               990.9283
 Red. masses --      2.5905                 2.4638                 1.9339
 Frc consts  --      1.2377                 1.2698                 1.1188
 IR Inten    --      9.4131                 0.7401                14.3487

                     19                     20                     21
                      A                      A                      A
 Frequencies --   1027.8524              1047.5132              1048.7600
 Red. masses --      2.5843                 2.2113                 1.4268
 Frc consts  --      1.6086                 1.4296                 0.9246
 IR Inten    --      4.6266                 5.3247                21.6247

                     22                     23                     24
                      A                      A                      A
 Frequencies --   1084.3422              1095.0827              1119.9515
 Red. masses --      1.8911                 2.4335                 1.8582
 Frc consts  --      1.3101                 1.7194                 1.3732
 IR Inten    --      3.7916                55.8290                10.5963

                     25                     26                     27
                      A                      A                      A
 Frequencies --   1136.1196              1150.9198              1189.8338
 Red. masses --      1.6841                 1.9130                 2.1449
 Frc consts  --      1.2808                 1.4930                 1.7891
 IR Inten    --      9.7971                 4.3945                64.5883

                     28                     29                     30
                      A                      A                      A
 Frequencies --   1243.4805              1246.4167              1253.2835
 Red. masses --      1.5493                 1.5689                 1.3051
 Frc consts  --      1.4115                 1.4361                 1.2078
 IR Inten    --     12.4773                21.3386                 1.4007

                     31                     32                     33
                      A                      A                      A
 Frequencies --   1312.4509              1333.4547              1361.3489
 Red. masses --      1.2286                 1.3117                 1.2363
 Frc consts  --      1.2469                 1.3741                 1.3499
 IR Inten    --      2.7901                 9.5071                11.1597

                     34                     35                     36
                      A                      A                      A
 Frequencies --   1370.5615              1409.1257              1415.9387
 Red. masses --      1.5842                 1.3815                 1.4264
 Frc consts  --      1.7533                 1.6162                 1.6849
 IR Inten    --      0.8513                18.7019                 9.4333

                     37                     38                     39
                      A                      A                      A
 Frequencies --   1431.9771              1478.2008              1492.7790
 Red. masses --      1.1893                 1.2635                 1.1657
 Frc consts  --      1.4369                 1.6267                 1.5305
 IR Inten    --      2.4235                 8.0652                 4.0140

                     40                     41                     42
                      A                      A                      A
 Frequencies --   1502.0053              1833.1576              2837.8088
 Red. masses --      1.1104                10.4044                 1.0806
 Frc consts  --      1.4760                20.5999                 5.1274
 IR Inten    --      3.5431               202.3220                92.5190

                     43                     44                     45
                      A                      A                      A
 Frequencies --   2970.3673              3010.3243              3057.2029
 Red. masses --      1.0695                 1.0642                 1.0944
 Frc consts  --      5.5597                 5.6821                 6.0268
 IR Inten    --     53.9489                32.5882                13.8841

                     46                     47                     48
                      A                      A                      A
 Frequencies --   3075.7849              3094.0079              3125.2542
 Red. masses --      1.0869                 1.0938                 1.0865
 Frc consts  --      6.0581                 6.1691                 6.2527
 IR Inten    --     19.7498                25.5448                29.0970

                     49                     50                     51
                      A                      A                      A
 Frequencies --   3134.6068              3147.2759              3223.8991
 Red. masses --      1.0562                 1.0898                 1.1168
 Frc consts  --      6.1144                 6.3599                 6.8388
 IR Inten    --     10.5841                21.9433                 9.9458

 - Thermochemistry -
 -------------------
 Temperature   298.150 Kelvin.  Pressure   1.00000 Atm.
 Atom     1 has atomic number  8 and mass  15.99491

 Molecular mass:   126.06808 amu.
 Principal axes and moments of inertia in atomic units:
                           1         2         3
     Eigenvalues --   500.773231640.273401906.08422
           X            0.99979   0.01735  -0.01093
           Y           -0.01745   0.99981  -0.00845
           Z            0.01078   0.00864   0.99990
 This molecule is an asymmetric top.
 Rotational symmetry number  1.
 Warning -- assumption of classical behavior for rotation
           may cause significant error
 Rotational temperatures (Kelvin)      0.17296     0.05280     0.04544
 Rotational constants (GHZ):           3.60391     1.10027     0.94683
 Zero-point vibrational energy     419828.7 (Joules/Mol)
                                  100.34148 (Kcal/Mol)
 Warning -- explicit consideration of  10 degrees of freedom as
           vibrations may cause significant error
 Vibrational temperatures:     75.22   121.44   276.18   388.24   418.02
          (Kelvin)            497.94   576.01   618.35   716.69   805.27
                              981.03  1090.10  1170.31  1223.64  1259.81
                             1295.67  1345.67  1425.72  1478.85  1507.14
                             1508.93  1560.12  1575.58  1611.36  1634.62
                             1655.91  1711.90  1789.09  1793.31  1803.19
                             1888.32  1918.54  1958.67  1971.93  2027.42
                             2037.22  2060.29  2126.80  2147.77  2161.05
                             2637.50  4082.97  4273.69  4331.18  4398.63
                             4425.36  4451.58  4496.54  4509.99  4528.22
                             4638.47

 Zero-point correction=                           0.159904 (Hartree/Particle)
 Thermal correction to Energy=                    0.168057
 Thermal correction to Enthalpy=                  0.169001
 Thermal correction to Gibbs Free Energy=         0.126459
 Sum of electronic and zero-point Energies=           -423.020211
 Sum of electronic and thermal Energies=              -423.012058
 Sum of electronic and thermal Enthalpies=            -423.011114
 Sum of electronic and thermal Free Energies=         -423.053656

                     E (Thermal)             CV                S
                      KCal/Mol        Cal/Mol-Kelvin    Cal/Mol-Kelvin
 Total                  105.457             30.800             89.538
 Electronic               0.000              0.000              0.000
 Translational            0.889              2.981             40.409
 Rotational               0.889              2.981             28.839
 Vibrational            103.680             24.838             20.290
 Vibration     1          0.596              1.977              4.729
 Vibration     2          0.601              1.960              3.786
 Vibration     3          0.634              1.851              2.209
 Vibration     4          0.674              1.729              1.597
 Vibration     5          0.687              1.691              1.471
 Vibration     6          0.724              1.583              1.184
 Vibration     7          0.766              1.469              0.961
 Vibration     8          0.791              1.405              0.859
 Vibration     9          0.854              1.254              0.663
 Vibration    10          0.915              1.119              0.524

 Normal termination of Gaussian 09 at Mon Jan 27 14:09:13 2020.
