 Gaussian 09, Revision D.01,
 Gaussian 09:  ES64L-G09RevD.01 24-Apr-2013

 -----------------------------
 # b3lyp 6-31G(2df,p) opt Freq
 -----------------------------

 -----
 titel
 -----
 Symbolic Z-matrix:
 Charge =  0 Multiplicity = 1

 SCF Done:  E(RB3LYP) =  -423.173962685     A.U. after   12 cycles
 Optimization completed.
    -- Stationary point found.
 Normal termination of Gaussian 09 at Mon Jan 27 17:57:11 2020.

 ----------------------------------------------------------------------
 #N Geom=AllCheck Guess=TCheck SCRF=Check GenChk RB3LYP/6-31G(2df,p) Fr
 eq
 ----------------------------------------------------------------------

 Structure from the checkpoint file:  "/scratch/puck/g09_d06a0a8a-d00f-4c44-9afe-cc341a4ddacb/Gau-16761.chk"
 -----
 titel
 -----
 Charge =  0 Multiplicity = 1

                         Standard orientation:
 ---------------------------------------------------------------------
 Center     Atomic      Atomic             Coordinates (Angstroms)
 Number     Number       Type             X           Y           Z
 ---------------------------------------------------------------------
      1          6           0        1.487194   -1.549858   -0.697990
      2          6           0        0.756720   -0.405314   -0.055857
      3          8           0        1.357129    0.191743    1.110875
      4          6           0        1.189845    0.999141   -0.067337
      5          6           0       -0.000003    1.946331    0.000002
      6          6           0       -1.189849    0.999138    0.067330
      7          8           0       -1.357122    0.191736   -1.110880
      8          6           0       -0.756717   -0.405315    0.055860
      9          6           0       -1.487196   -1.549855    0.697995
     10          1           0        2.557407   -1.337696   -0.757006
     11          1           0        1.355811   -2.472377   -0.122201
     12          1           0        1.104488   -1.723316   -1.709041
     13          1           0        2.115746    1.308284   -0.545959
     14          1           0        0.052169    2.588377    0.885706
     15          1           0       -0.052176    2.588390   -0.885692
     16          1           0       -2.115754    1.308279    0.545948
     17          1           0       -1.104495   -1.723311    1.709049
     18          1           0       -2.557408   -1.337687    0.757005
     19          1           0       -1.355815   -2.472375    0.122210
 ---------------------------------------------------------------------

 SCF Done:  E(RB3LYP) =  -423.173962685     A.U. after    1 cycles

 The electronic state is 1-A.
 Alpha  occ. eigenvalues --  -19.14699 -19.14699 -10.23989 -10.23966 -10.23479
 Alpha  occ. eigenvalues --  -10.23478 -10.19184 -10.18531 -10.18531  -1.08043
 Alpha  occ. eigenvalues --   -1.05501  -0.77338  -0.76759  -0.73267  -0.65075
 Alpha  occ. eigenvalues --   -0.64668  -0.58147  -0.54424  -0.50370  -0.46872
 Alpha  occ. eigenvalues --   -0.46335  -0.43998  -0.41743  -0.41679  -0.41191
 Alpha  occ. eigenvalues --   -0.40406  -0.38790  -0.37589  -0.35923  -0.35794
 Alpha  occ. eigenvalues --   -0.28995  -0.28737  -0.27312  -0.25485
 Alpha virt. eigenvalues --    0.08249   0.08983   0.09934   0.12266   0.12347
 Alpha virt. eigenvalues --    0.13013   0.13977   0.15102   0.15503   0.16539
 Alpha virt. eigenvalues --    0.17344   0.17889   0.18731   0.21502   0.21598

 Mulliken charges:
               1
     1  C   -0.505045
     2  C    0.352766
     3  O   -0.304901
     4  C   -0.008432
     5  C   -0.281782
     6  C   -0.008430
     7  O   -0.304901
     8  C    0.352766
     9  C   -0.505045
    10  H    0.130827
    11  H    0.128340
    12  H    0.136964
    13  H    0.094418
    14  H    0.115952
    15  H    0.115951
    16  H    0.094418
    17  H    0.136964
    18  H    0.130827
    19  H    0.128340
 Sum of Mulliken charges =   0.00000

 Dipole moment (field-independent basis, Debye):
    X=              0.0000    Y=              0.0445    Z=              0.0000  Tot=              0.0445
 Quadrupole moment (field-independent basis, Debye-Ang):
   XX=            -53.2541   YY=            -48.0075   ZZ=            -56.9678
   XY=              0.0000   XZ=             -6.0414   YZ=              0.0000

  Exact polarizability:  74.571   0.000  85.882  -2.714   0.000  61.241
 Approx polarizability: 102.367   0.000 119.789   3.791   0.000 103.396

                      1                      2                      3
                      A                      A                      A
 Frequencies --    154.3703               180.6241               208.0569
 Red. masses --      2.3080                 1.2684                 1.1663
 Frc consts  --      0.0324                 0.0244                 0.0297
 IR Inten    --      1.3009                 2.5559                 0.2048

                      4                      5                      6
                      A                      A                      A
 Frequencies --    221.3716               239.4592               265.3532
 Red. masses --      2.3001                 2.4892                 2.1356
 Frc consts  --      0.0664                 0.0841                 0.0886
 IR Inten    --      5.6485                 0.0051                 3.5039

                      7                      8                      9
                      A                      A                      A
 Frequencies --    390.7511               435.0635               465.8864
 Red. masses --      2.3062                 6.1679                 3.0101
 Frc consts  --      0.2075                 0.6878                 0.3849
 IR Inten    --      1.5331                 5.0295                10.7200

                     10                     11                     12
                      A                      A                      A
 Frequencies --    517.2947               569.7454               618.5459
 Red. masses --      5.2063                 4.2560                 3.8415
 Frc consts  --      0.8208                 0.8140                 0.8660
 IR Inten    --      2.1640                 3.1296                 4.0387

                     13                     14                     15
                      A                      A                      A
 Frequencies --    755.0640               756.2159               824.2524
 Red. masses --      4.5995                 4.0573                 3.4058
 Frc consts  --      1.5450                 1.3670                 1.3633
 IR Inten    --      6.6209                 0.3473                 8.0542

                     16                     17                     18
                      A                      A                      A
 Frequencies --    862.7778               895.7915               925.1534
 Red. masses --      2.9700                 3.1333                 1.8734
 Frc consts  --      1.3026                 1.4814                 0.9447
 IR Inten    --     45.3623                 0.1242                 1.1158

                     19                     20                     21
                      A                      A                      A
 Frequencies --    931.9854               997.5223              1010.0946
 Red. masses --      2.4097                 1.4990                 1.4194
 Frc consts  --      1.2332                 0.8788                 0.8533
 IR Inten    --      1.7872                 5.7463                10.0102

                     22                     23                     24
                      A                      A                      A
 Frequencies --   1039.1120              1081.1134              1088.6711
 Red. masses --      2.0496                 1.7594                 2.4533
 Frc consts  --      1.3039                 1.2116                 1.7131
 IR Inten    --      0.5912                 3.9338                17.5318

                     25                     26                     27
                      A                      A                      A
 Frequencies --   1114.0587              1116.0848              1163.5584
 Red. masses --      1.7740                 1.9124                 2.2361
 Frc consts  --      1.2972                 1.4035                 1.7837
 IR Inten    --      1.5459                19.2914                26.3395

                     28                     29                     30
                      A                      A                      A
 Frequencies --   1223.3388              1276.0523              1303.2027
 Red. masses --      1.2889                 1.3169                 1.5803
 Frc consts  --      1.1365                 1.2634                 1.5813
 IR Inten    --      2.5857                 8.0435                 7.6702

                     31                     32                     33
                      A                      A                      A
 Frequencies --   1321.9393              1341.5883              1406.7308
 Red. masses --      1.7195                 3.1005                 1.2780
 Frc consts  --      1.7704                 3.2879                 1.4901
 IR Inten    --      4.1346                 2.9921                 7.6939

                     34                     35                     36
                      A                      A                      A
 Frequencies --   1411.8243              1448.6508              1455.7657
 Red. masses --      1.3484                 2.8263                 2.5900
 Frc consts  --      1.5835                 3.4946                 3.2340
 IR Inten    --      3.4530                 0.5568                18.8984

                     37                     38                     39
                      A                      A                      A
 Frequencies --   1466.6933              1483.4877              1485.5055
 Red. masses --      1.1299                 1.0476                 1.1341
 Frc consts  --      1.4321                 1.3583                 1.4745
 IR Inten    --      5.2446                 9.7047                 0.9037

                     40                     41                     42
                      A                      A                      A
 Frequencies --   1498.9621              1500.0333              3036.6853
 Red. masses --      1.0908                 1.3298                 1.0362
 Frc consts  --      1.4440                 1.7630                 5.6301
 IR Inten    --      0.1981                11.3921                 4.9746

                     43                     44                     45
                      A                      A                      A
 Frequencies --   3038.7867              3046.6304              3090.7940
 Red. masses --      1.0360                 1.0589                 1.1042
 Frc consts  --      5.6363                 5.7907                 6.2147
 IR Inten    --     30.5684                25.0388                11.3932

                     46                     47                     48
                      A                      A                      A
 Frequencies --   3100.8592              3101.9028              3125.2569
 Red. masses --      1.1000                 1.1004                 1.1012
 Frc consts  --      6.2318                 6.2380                 6.3371
 IR Inten    --     19.4766                 8.6619                21.3002

                     49                     50                     51
                      A                      A                      A
 Frequencies --   3125.8730              3145.8228              3147.5214
 Red. masses --      1.1013                 1.0896                 1.0921
 Frc consts  --      6.3400                 6.3532                 6.3747
 IR Inten    --      2.5626                49.9768                 6.2040

 - Thermochemistry -
 -------------------
 Temperature   298.150 Kelvin.  Pressure   1.00000 Atm.
 Atom     1 has atomic number  6 and mass  12.00000

 Molecular mass:   126.06808 amu.
 Principal axes and moments of inertia in atomic units:
                           1         2         3
     Eigenvalues --   824.13900 888.139901285.09004
           X            0.99691   0.00000  -0.07850
           Y            0.00000   1.00000   0.00000
           Z            0.07850   0.00000   0.99691
 This molecule is an asymmetric top.
 Rotational symmetry number  1.
 Warning -- assumption of classical behavior for rotation
           may cause significant error
 Rotational temperatures (Kelvin)      0.10510     0.09752     0.06740
 Rotational constants (GHZ):           2.18985     2.03205     1.40437
 Zero-point vibrational energy     415175.3 (Joules/Mol)
                                   99.22927 (Kcal/Mol)
 Warning -- explicit consideration of  12 degrees of freedom as
           vibrations may cause significant error
 Vibrational temperatures:    222.10   259.88   299.35   318.50   344.53
          (Kelvin)            381.78   562.20   625.96   670.31   744.27
                              819.74   889.95  1086.37  1088.02  1185.91
                             1241.34  1288.84  1331.09  1340.92  1435.21
                             1453.30  1495.05  1555.48  1566.35  1602.88
                             1605.80  1674.10  1760.11  1835.95  1875.02
                             1901.97  1930.24  2023.97  2031.30  2084.28
                             2094.52  2110.24  2134.41  2137.31  2156.67
                             2158.21  4369.11  4372.13  4383.42  4446.96
                             4461.44  4462.94  4496.54  4497.43  4526.13
                             4528.58

 Zero-point correction=                           0.158132 (Hartree/Particle)
 Thermal correction to Energy=                    0.166424
 Thermal correction to Enthalpy=                  0.167368
 Thermal correction to Gibbs Free Energy=         0.125881
 Sum of electronic and zero-point Energies=           -423.015831
 Sum of electronic and thermal Energies=              -423.007539
 Sum of electronic and thermal Enthalpies=            -423.006594
 Sum of electronic and thermal Free Energies=         -423.048081

                     E (Thermal)             CV                S
                      KCal/Mol        Cal/Mol-Kelvin    Cal/Mol-Kelvin
 Total                  104.433             32.410             87.316
 Electronic               0.000              0.000              0.000
 Translational            0.889              2.981             40.409
 Rotational               0.889              2.981             28.333
 Vibrational            102.655             26.448             18.575
 Vibration     1          0.620              1.898              2.618
 Vibration     2          0.630              1.866              2.322
 Vibration     3          0.641              1.828              2.061
 Vibration     4          0.648              1.809              1.948
 Vibration     5          0.657              1.780              1.807
 Vibration     6          0.671              1.737              1.626
 Vibration     7          0.758              1.490              0.997
 Vibration     8          0.796              1.394              0.842
 Vibration     9          0.823              1.326              0.749
 Vibration    10          0.872              1.212              0.616
 Vibration    11          0.926              1.097              0.505
 Vibration    12          0.978              0.993              0.419

 Optimization completed.
    -- Stationary point found.
 Normal termination of Gaussian 09 at Mon Jan 27 19:51:55 2020.
