 Gaussian 09, Revision D.01,
 Gaussian 09:  ES64L-G09RevD.01 24-Apr-2013

 -----------------------------
 # b3lyp 6-31G(2df,p) opt Freq
 -----------------------------

 -----
 titel
 -----
 Symbolic Z-matrix:
 Charge =  0 Multiplicity = 1

 SCF Done:  E(RB3LYP) =  -423.161230583     A.U. after   14 cycles
 Optimization completed.
    -- Stationary point found.
 Normal termination of Gaussian 09 at Mon Jan 27 22:14:47 2020.

 ----------------------------------------------------------------------
 #N Geom=AllCheck Guess=TCheck SCRF=Check GenChk RB3LYP/6-31G(2df,p) Fr
 eq
 ----------------------------------------------------------------------

 Structure from the checkpoint file:  "/scratch/puck/g09_21b2e741-298c-44e1-a66c-4994874d2c2e/Gau-28492.chk"
 -----
 titel
 -----
 Charge =  0 Multiplicity = 1

                         Standard orientation:
 ---------------------------------------------------------------------
 Center     Atomic      Atomic             Coordinates (Angstroms)
 Number     Number       Type             X           Y           Z
 ---------------------------------------------------------------------
      1          6           0        2.489378   -0.190991   -0.301815
      2          6           0        1.086221    0.029413   -0.842142
      3          6           0        0.010831   -1.105526   -0.714729
      4          6           0       -1.041152    0.039946   -0.920192
      5          8           0       -2.378452   -0.122765   -0.558573
      6          6           0       -0.008469    0.702389    0.070937
      7          6           0       -0.039669    2.078682    0.667491
      8          6           0       -0.071463   -0.676089    0.758796
      9          8           0       -0.200462   -1.145662    1.849965
     10          1           0        3.036141    0.756284   -0.245009
     11          1           0        2.478796   -0.632691    0.699885
     12          1           0        3.057143   -0.860148   -0.956622
     13          1           0        1.104793    0.466827   -1.846158
     14          1           0        0.021845   -2.097993   -1.159132
     15          1           0       -1.031457    0.476208   -1.921285
     16          1           0       -2.432889   -0.540181    0.309650
     17          1           0        0.772764    2.217202    1.388126
     18          1           0        0.055124    2.849372   -0.104506
     19          1           0       -0.985004    2.245598    1.193842
 ---------------------------------------------------------------------

 SCF Done:  E(RB3LYP) =  -423.161230583     A.U. after    1 cycles

 The electronic state is 1-A.
 Alpha  occ. eigenvalues --  -19.15159 -19.14122 -10.27588 -10.25704 -10.21685
 Alpha  occ. eigenvalues --  -10.21126 -10.20630 -10.18776 -10.18706  -1.05583
 Alpha  occ. eigenvalues --   -1.03668  -0.91863  -0.74635  -0.74034  -0.65204
 Alpha  occ. eigenvalues --   -0.61880  -0.61377  -0.52627  -0.48250  -0.48006
 Alpha  occ. eigenvalues --   -0.46184  -0.44331  -0.43981  -0.40830  -0.40634
 Alpha  occ. eigenvalues --   -0.39701  -0.38198  -0.37885  -0.37422  -0.34596
 Alpha  occ. eigenvalues --   -0.32168  -0.31789  -0.26639  -0.24225
 Alpha virt. eigenvalues --    0.00287   0.07920   0.09489   0.11934   0.12054
 Alpha virt. eigenvalues --    0.13707   0.13840   0.14317   0.14636   0.15126
 Alpha virt. eigenvalues --    0.16363   0.17847   0.19047   0.20277   0.20591

 Mulliken charges:
               1
     1  C   -0.439310
     2  C   -0.008999
     3  C   -0.233509
     4  C    0.145894
     5  O   -0.454178
     6  C    0.139283
     7  C   -0.523859
     8  C    0.369241
     9  O   -0.338833
    10  H    0.124020
    11  H    0.136223
    12  H    0.125176
    13  H    0.078689
    14  H    0.093102
    15  H    0.098305
    16  H    0.294215
    17  H    0.132756
    18  H    0.125587
    19  H    0.136196
 Sum of Mulliken charges =   0.00000

 Dipole moment (field-independent basis, Debye):
    X=              1.4230    Y=              1.0532    Z=             -1.6281  Tot=              2.4051
 Quadrupole moment (field-independent basis, Debye-Ang):
   XX=            -54.5387   YY=            -52.8914   ZZ=            -57.0327
   XY=              0.7895   XZ=             -2.8825   YZ=              2.9919

  Exact polarizability:  78.732   0.281  74.318  -2.154  -0.234  74.307
 Approx polarizability: 109.800   1.306 108.875  -3.285  -6.667 122.042

                      1                      2                      3
                      A                      A                      A
 Frequencies --    118.3146               139.7196               183.2292
 Red. masses --      3.7708                 1.2549                 2.2301
 Frc consts  --      0.0311                 0.0144                 0.0441
 IR Inten    --      2.8828                 0.5907                 0.7817

                      4                      5                      6
                      A                      A                      A
 Frequencies --    187.8210               208.5237               217.0841
 Red. masses --      3.3229                 1.1010                 3.0749
 Frc consts  --      0.0691                 0.0282                 0.0854
 IR Inten    --      0.8875                 0.4805                 1.3735

                      7                      8                      9
                      A                      A                      A
 Frequencies --    235.3616               319.9072               452.7364
 Red. masses --      2.9381                 1.2011                 3.5622
 Frc consts  --      0.0959                 0.0724                 0.4302
 IR Inten    --      0.4733                76.1148                 5.0604

                     10                     11                     12
                      A                      A                      A
 Frequencies --    478.0158               489.6621               523.2328
 Red. masses --      3.1480                 2.9684                 4.9554
 Frc consts  --      0.4238                 0.4193                 0.7993
 IR Inten    --      0.5397                 7.3183                 1.4583

                     13                     14                     15
                      A                      A                      A
 Frequencies --    684.7503               692.6259               722.3144
 Red. masses --      4.3664                 3.9338                 4.5517
 Frc consts  --      1.2063                 1.1119                 1.3992
 IR Inten    --      1.0018                 0.7242                 1.6343

                     16                     17                     18
                      A                      A                      A
 Frequencies --    792.1880               797.0962               831.9040
 Red. masses --      4.7262                 2.3692                 2.7770
 Frc consts  --      1.7475                 0.8869                 1.1323
 IR Inten    --     20.1797                 0.2022                 6.1662

                     19                     20                     21
                      A                      A                      A
 Frequencies --    900.8220               982.7965              1024.4816
 Red. masses --      3.0469                 1.4794                 1.2703
 Frc consts  --      1.4568                 0.8419                 0.7855
 IR Inten    --     23.6665                12.3952                 0.8239

                     22                     23                     24
                      A                      A                      A
 Frequencies --   1035.2875              1058.2169              1082.1354
 Red. masses --      1.6073                 1.5994                 1.9336
 Frc consts  --      1.0150                 1.0553                 1.3341
 IR Inten    --     16.6948                 8.0751                52.8553

                     25                     26                     27
                      A                      A                      A
 Frequencies --   1105.8602              1141.0667              1164.4615
 Red. masses --      2.0539                 1.5786                 2.2950
 Frc consts  --      1.4799                 1.2110                 1.8335
 IR Inten    --      4.7984                 5.8376                36.4692

                     28                     29                     30
                      A                      A                      A
 Frequencies --   1203.9846              1218.9757              1243.3504
 Red. masses --      2.0787                 2.7130                 1.9939
 Frc consts  --      1.7753                 2.3751                 1.8161
 IR Inten    --     39.0189                62.6306                 7.2367

                     31                     32                     33
                      A                      A                      A
 Frequencies --   1302.1612              1353.3253              1396.1698
 Red. masses --      1.3549                 2.5496                 1.3402
 Frc consts  --      1.3536                 2.7512                 1.5392
 IR Inten    --      9.8884                 2.0025                23.7283

                     34                     35                     36
                      A                      A                      A
 Frequencies --   1413.1404              1422.7610              1454.7537
 Red. masses --      1.4812                 1.2723                 1.3120
 Frc consts  --      1.7427                 1.5174                 1.6360
 IR Inten    --      2.3289                11.1062                50.7628

                     37                     38                     39
                      A                      A                      A
 Frequencies --   1486.6129              1487.5655              1493.7050
 Red. masses --      1.0467                 1.0454                 1.0470
 Frc consts  --      1.3629                 1.3629                 1.3764
 IR Inten    --      6.2439                 6.8049                 4.2160

                     40                     41                     42
                      A                      A                      A
 Frequencies --   1502.2284              1895.2188              3032.7986
 Red. masses --      1.0526                12.4485                 1.0355
 Frc consts  --      1.3995                26.3444                 5.6117
 IR Inten    --      3.6003               310.5036                21.5164

                     43                     44                     45
                      A                      A                      A
 Frequencies --   3034.0862              3050.7072              3097.8342
 Red. masses --      1.0354                 1.0839                 1.1010
 Frc consts  --      5.6157                 5.9437                 6.2254
 IR Inten    --     22.1014                18.8481                17.9800

                     46                     47                     48
                      A                      A                      A
 Frequencies --   3099.8408              3101.6128              3104.4757
 Red. masses --      1.0869                 1.1004                 1.1007
 Frc consts  --      6.1536                 6.2372                 6.2501
 IR Inten    --     13.5725                19.7438                12.9578

                     49                     50                     51
                      A                      A                      A
 Frequencies --   3106.7817              3153.0742              3785.8175
 Red. masses --      1.1014                 1.0940                 1.0657
 Frc consts  --      6.2633                 6.4082                 8.9996
 IR Inten    --     25.3176                20.9503                25.1363

 - Thermochemistry -
 -------------------
 Temperature   298.150 Kelvin.  Pressure   1.00000 Atm.
 Atom     1 has atomic number  6 and mass  12.00000

 Molecular mass:   126.06808 amu.
 Principal axes and moments of inertia in atomic units:
                           1         2         3
     Eigenvalues --   842.208141200.796811264.70790
           X            0.99966   0.00406  -0.02564
           Y            0.00542   0.93321   0.35928
           Z            0.02539  -0.35930   0.93288
 This molecule is an asymmetric top.
 Rotational symmetry number  1.
 Warning -- assumption of classical behavior for rotation
           may cause significant error
 Rotational temperatures (Kelvin)      0.10284     0.07213     0.06849
 Rotational constants (GHZ):           2.14287     1.50295     1.42700
 Zero-point vibrational energy     412775.0 (Joules/Mol)
                                   98.65560 (Kcal/Mol)
 Warning -- explicit consideration of  12 degrees of freedom as
           vibrations may cause significant error
 Vibrational temperatures:    170.23   201.03   263.63   270.23   300.02
          (Kelvin)            312.34   338.63   460.27   651.39   687.76
                              704.51   752.81   985.20   996.53  1039.25
                             1139.78  1146.84  1196.92  1296.08  1414.02
                             1474.00  1489.55  1522.54  1556.95  1591.08
                             1641.74  1675.40  1732.26  1753.83  1788.90
                             1873.52  1947.13  2008.77  2033.19  2047.03
                             2093.06  2138.90  2140.27  2149.11  2161.37
                             2726.79  4363.52  4365.37  4389.28  4457.09
                             4459.97  4462.52  4466.64  4469.96  4536.56
                             5446.94

 Zero-point correction=                           0.157218 (Hartree/Particle)
 Thermal correction to Energy=                    0.166469
 Thermal correction to Enthalpy=                  0.167413
 Thermal correction to Gibbs Free Energy=         0.123692
 Sum of electronic and zero-point Energies=           -423.004013
 Sum of electronic and thermal Energies=              -422.994762
 Sum of electronic and thermal Enthalpies=            -422.993817
 Sum of electronic and thermal Free Energies=         -423.037538

                     E (Thermal)             CV                S
                      KCal/Mol        Cal/Mol-Kelvin    Cal/Mol-Kelvin
 Total                  104.461             34.642             92.018
 Electronic               0.000              0.000              0.000
 Translational            0.889              2.981             40.409
 Rotational               0.889              2.981             28.638
 Vibrational            102.683             28.681             22.971
 Vibration     1          0.608              1.934              3.128
 Vibration     2          0.615              1.914              2.808
 Vibration     3          0.631              1.863              2.295
 Vibration     4          0.633              1.857              2.249
 Vibration     5          0.642              1.828              2.057
 Vibration     6          0.646              1.815              1.983
 Vibration     7          0.655              1.787              1.838
 Vibration     8          0.706              1.635              1.311
 Vibration     9          0.811              1.355              0.788
 Vibration    10          0.835              1.299              0.715
 Vibration    11          0.846              1.273              0.684
 Vibration    12          0.878              1.199              0.603

 Optimization completed.
    -- Stationary point found.
 Normal termination of Gaussian 09 at Tue Jan 28 00:28:06 2020.
