 Gaussian 09, Revision D.01,
 Gaussian 09:  ES64L-G09RevD.01 24-Apr-2013

 -----------------------------
 # b3lyp 6-31G(2df,p) opt Freq
 -----------------------------

 -----
 titel
 -----
 Symbolic Z-matrix:
 Charge =  0 Multiplicity = 1

 SCF Done:  E(RB3LYP) =  -423.164408547     A.U. after   14 cycles
 Optimization completed.
    -- Stationary point found.
 Normal termination of Gaussian 09 at Tue Jan 28 13:33:48 2020.

 ----------------------------------------------------------------------
 #N Geom=AllCheck Guess=TCheck SCRF=Check GenChk RB3LYP/6-31G(2df,p) Fr
 eq
 ----------------------------------------------------------------------

 Structure from the checkpoint file:  "/scratch/puck/g09_9cac821b-8cf0-4c8c-9bcd-c57d445506d7/Gau-8525.chk"
 -----
 titel
 -----
 Charge =  0 Multiplicity = 1

                         Standard orientation:
 ---------------------------------------------------------------------
 Center     Atomic      Atomic             Coordinates (Angstroms)
 Number     Number       Type             X           Y           Z
 ---------------------------------------------------------------------
      1          6           0        3.099370   -0.573698   -0.099838
      2          8           0        2.207086    0.508971    0.050486
      3          6           0        0.906961    0.227542   -0.399909
      4          6           0       -0.007681    1.462623   -0.219922
      5          6           0       -0.943933    0.652105    0.727485
      6          6           0        0.009995   -0.595922    0.578459
      7          6           0       -1.119214   -1.399788   -0.119941
      8          6           0       -2.018611   -0.148337   -0.019663
      9          8           0       -3.138693    0.093887   -0.363762
     10          1           0        3.194410   -0.874882   -1.154691
     11          1           0        4.074625   -0.241973    0.263662
     12          1           0        2.786823   -1.453710    0.481828
     13          1           0        0.941439   -0.191885   -1.418202
     14          1           0        0.531806    2.247584    0.313190
     15          1           0       -0.463717    1.886994   -1.116850
     16          1           0       -1.239815    1.120787    1.666483
     17          1           0        0.514005   -1.059501    1.424915
     18          1           0       -0.926338   -1.788224   -1.125133
     19          1           0       -1.521704   -2.215209    0.490969
 ---------------------------------------------------------------------

 SCF Done:  E(RB3LYP) =  -423.164408547     A.U. after    1 cycles

 The electronic state is 1-A.
 Alpha  occ. eigenvalues --  -19.14861 -19.13590 -10.26832 -10.23976 -10.23026
 Alpha  occ. eigenvalues --  -10.19729 -10.19562 -10.19475 -10.19315  -1.04489
 Alpha  occ. eigenvalues --   -1.04205  -0.87706  -0.75854  -0.70100  -0.65758
 Alpha  occ. eigenvalues --   -0.63265  -0.57413  -0.52320  -0.50210  -0.49272
 Alpha  occ. eigenvalues --   -0.46829  -0.45207  -0.43896  -0.43540  -0.41842
 Alpha  occ. eigenvalues --   -0.39482  -0.36937  -0.36354  -0.35124  -0.32910
 Alpha  occ. eigenvalues --   -0.32330  -0.29352  -0.25676  -0.24025
 Alpha virt. eigenvalues --   -0.02196   0.07618   0.08713   0.10157   0.11805
 Alpha virt. eigenvalues --    0.13013   0.14103   0.14860   0.15327   0.16128
 Alpha virt. eigenvalues --    0.16981   0.18279   0.19081   0.20192   0.20671

 Mulliken charges:
               1
     1  C   -0.243031
     2  O   -0.240176
     3  C    0.149523
     4  C   -0.270285
     5  C   -0.155245
     6  C   -0.074348
     7  C   -0.364976
     8  C    0.405811
     9  O   -0.294832
    10  H    0.107814
    11  H    0.130810
    12  H    0.107408
    13  H    0.061663
    14  H    0.129642
    15  H    0.115723
    16  H    0.094313
    17  H    0.082094
    18  H    0.123806
    19  H    0.134286
 Sum of Mulliken charges =   0.00000

 Dipole moment (field-independent basis, Debye):
    X=              2.5452    Y=             -1.3651    Z=              0.4554  Tot=              2.9239
 Quadrupole moment (field-independent basis, Debye-Ang):
   XX=            -63.3929   YY=            -51.3750   ZZ=            -51.5327
   XY=             -1.4219   XZ=             -2.9280   YZ=             -0.0900

  Exact polarizability:  92.353  -1.751  73.792   1.374   1.076  63.304
 Approx polarizability: 123.865  -3.193 108.000   5.507   1.734  98.207

                      1                      2                      3
                      A                      A                      A
 Frequencies --     38.6955               116.9063               133.6070
 Red. masses --      4.1536                 2.5970                 3.7874
 Frc consts  --      0.0037                 0.0209                 0.0398
 IR Inten    --      3.1156                 1.2430                 4.8322

                      4                      5                      6
                      A                      A                      A
 Frequencies --    174.7943               259.8178               283.1210
 Red. masses --      1.2416                 2.3172                 2.4513
 Frc consts  --      0.0223                 0.0922                 0.1158
 IR Inten    --      0.8250                 1.8506                 2.2057

                      7                      8                      9
                      A                      A                      A
 Frequencies --    401.3940               417.0266               470.2041
 Red. masses --      4.0623                 4.2292                 3.4251
 Frc consts  --      0.3856                 0.4333                 0.4462
 IR Inten    --      3.7162                 4.4514                 0.3302

                     10                     11                     12
                      A                      A                      A
 Frequencies --    513.9949               617.4277               704.3124
 Red. masses --      1.9332                 3.0669                 2.7453
 Frc consts  --      0.3009                 0.6888                 0.8024
 IR Inten    --      0.5420                 1.0180                 0.1397

                     13                     14                     15
                      A                      A                      A
 Frequencies --    795.7919               833.6461               853.3679
 Red. masses --      2.2416                 2.0895                 2.5870
 Frc consts  --      0.8364                 0.8556                 1.1100
 IR Inten    --      2.5916                 5.2898                12.5020

                     16                     17                     18
                      A                      A                      A
 Frequencies --    883.4660               946.1989               948.2617
 Red. masses --      2.3635                 2.6369                 1.6077
 Frc consts  --      1.0869                 1.3909                 0.8518
 IR Inten    --      0.6978                 5.5961                17.6905

                     19                     20                     21
                      A                      A                      A
 Frequencies --    992.9920              1013.6694              1041.9134
 Red. masses --      2.6509                 2.6523                 3.5109
 Frc consts  --      1.5400                 1.6057                 2.2456
 IR Inten    --      1.2733                 2.9839                56.3107

                     22                     23                     24
                      A                      A                      A
 Frequencies --   1076.7762              1095.5692              1125.8527
 Red. masses --      2.4031                 1.5401                 1.7576
 Frc consts  --      1.6416                 1.0891                 1.3126
 IR Inten    --      1.4445                23.2049                10.3280

                     25                     26                     27
                      A                      A                      A
 Frequencies --   1150.4932              1167.8526              1183.4235
 Red. masses --      3.1938                 1.4653                 1.3108
 Frc consts  --      2.4907                 1.1775                 1.0816
 IR Inten    --    112.8773                17.1257                 6.0464

                     28                     29                     30
                      A                      A                      A
 Frequencies --   1205.4101              1217.1188              1236.8462
 Red. masses --      1.5356                 1.6436                 1.6989
 Frc consts  --      1.3146                 1.4346                 1.5312
 IR Inten    --      0.0615                14.6866                19.2281

                     31                     32                     33
                      A                      A                      A
 Frequencies --   1251.7895              1260.8681              1281.1732
 Red. masses --      1.6062                 1.5874                 1.5780
 Frc consts  --      1.4829                 1.4869                 1.5260
 IR Inten    --     15.6940                 8.6271                11.5094

                     34                     35                     36
                      A                      A                      A
 Frequencies --   1287.8614              1391.9933              1433.3795
 Red. masses --      1.5082                 1.2975                 1.1006
 Frc consts  --      1.4739                 1.4812                 1.3324
 IR Inten    --      2.7278                40.3961                 8.4897

                     37                     38                     39
                      A                      A                      A
 Frequencies --   1467.8658              1481.0925              1486.7123
 Red. masses --      1.0994                 1.1334                 1.0730
 Frc consts  --      1.3956                 1.4649                 1.3973
 IR Inten    --      6.2644                 3.0817                 3.8472

                     40                     41                     42
                      A                      A                      A
 Frequencies --   1508.8802              1887.9633              2966.3316
 Red. masses --      1.0618                12.6777                 1.0772
 Frc consts  --      1.4243                26.6243                 5.5846
 IR Inten    --      6.3217               290.0982                31.3427

                     43                     44                     45
                      A                      A                      A
 Frequencies --   2979.0088              3025.1800              3045.6662
 Red. masses --      1.0437                 1.1025                 1.0587
 Frc consts  --      5.4571                 5.9449                 5.7863
 IR Inten    --     70.4138                49.6149                13.0102

                     46                     47                     48
                      A                      A                      A
 Frequencies --   3073.2130              3096.5323              3109.9083
 Red. masses --      1.0587                 1.1049                 1.0887
 Frc consts  --      5.8912                 6.2422                 6.2040
 IR Inten    --     21.1779                10.0810                16.3867

                     49                     50                     51
                      A                      A                      A
 Frequencies --   3118.5893              3129.9646              3133.8591
 Red. masses --      1.0964                 1.0913                 1.1061
 Frc consts  --      6.2826                 6.2990                 6.4006
 IR Inten    --     29.1081                12.3405                15.9081

 - Thermochemistry -
 -------------------
 Temperature   298.150 Kelvin.  Pressure   1.00000 Atm.
 Atom     1 has atomic number  6 and mass  12.00000

 Molecular mass:   126.06808 amu.
 Principal axes and moments of inertia in atomic units:
                           1         2         3
     Eigenvalues --   416.017151795.496682020.87498
           X            0.99990  -0.01216  -0.00662
           Y            0.01220   0.99990   0.00678
           Z            0.00654  -0.00686   0.99996
 This molecule is an asymmetric top.
 Rotational symmetry number  1.
 Rotational temperatures (Kelvin)      0.20820     0.04824     0.04286
 Rotational constants (GHZ):           4.33814     1.00515     0.89305
 Zero-point vibrational energy     414612.4 (Joules/Mol)
                                   99.09475 (Kcal/Mol)
 Warning -- explicit consideration of  11 degrees of freedom as
           vibrations may cause significant error
 Vibrational temperatures:     55.67   168.20   192.23   251.49   373.82
          (Kelvin)            407.35   577.52   600.01   676.52   739.52
                              888.34  1013.35  1144.97  1199.43  1227.80
                             1271.11  1361.37  1364.34  1428.69  1458.44
                             1499.08  1549.24  1576.28  1619.85  1655.30
                             1680.28  1702.68  1734.31  1751.16  1779.54
                             1801.04  1814.11  1843.32  1852.94  2002.77
                             2062.31  2111.93  2130.96  2139.04  2170.94
                             2716.35  4267.88  4286.12  4352.55  4382.03
                             4421.66  4455.21  4474.46  4486.95  4503.32
                             4508.92

 Zero-point correction=                           0.157918 (Hartree/Particle)
 Thermal correction to Energy=                    0.166554
 Thermal correction to Enthalpy=                  0.167498
 Thermal correction to Gibbs Free Energy=         0.123813
 Sum of electronic and zero-point Energies=           -423.006491
 Sum of electronic and thermal Energies=              -422.997854
 Sum of electronic and thermal Enthalpies=            -422.996910
 Sum of electronic and thermal Free Energies=         -423.040595

                     E (Thermal)             CV                S
                      KCal/Mol        Cal/Mol-Kelvin    Cal/Mol-Kelvin
 Total                  104.514             31.971             91.943
 Electronic               0.000              0.000              0.000
 Translational            0.889              2.981             40.409
 Rotational               0.889              2.981             28.803
 Vibrational            102.737             26.009             22.732
 Vibration     1          0.594              1.981              5.325
 Vibration     2          0.608              1.935              3.151
 Vibration     3          0.613              1.920              2.893
 Vibration     4          0.627              1.873              2.383
 Vibration     5          0.668              1.746              1.663
 Vibration     6          0.682              1.705              1.515
 Vibration     7          0.767              1.467              0.958
 Vibration     8          0.780              1.433              0.902
 Vibration     9          0.827              1.316              0.737
 Vibration    10          0.869              1.219              0.624
 Vibration    11          0.977              0.995              0.421

 Optimization completed.
    -- Stationary point found.
 Normal termination of Gaussian 09 at Tue Jan 28 14:21:15 2020.
