 Gaussian 09, Revision D.01,
 Gaussian 09:  ES64L-G09RevD.01 24-Apr-2013

 -----------------------------
 # b3lyp 6-31G(2df,p) opt Freq
 -----------------------------

 -----
 titel
 -----
 Symbolic Z-matrix:
 Charge =  0 Multiplicity = 1

 SCF Done:  E(RB3LYP) =  -423.205301426     A.U. after   14 cycles
 Optimization completed.
    -- Stationary point found.
 Normal termination of Gaussian 09 at Tue Jan 28 00:36:42 2020.

 ----------------------------------------------------------------------
 #N Geom=AllCheck Guess=TCheck SCRF=Check GenChk RB3LYP/6-31G(2df,p) Fr
 eq
 ----------------------------------------------------------------------

 Structure from the checkpoint file:  "/scratch/puck/g09_2bcf1768-ce41-4798-a078-aa116c537fd0/Gau-806.chk"
 -----
 titel
 -----
 Charge =  0 Multiplicity = 1

                         Standard orientation:
 ---------------------------------------------------------------------
 Center     Atomic      Atomic             Coordinates (Angstroms)
 Number     Number       Type             X           Y           Z
 ---------------------------------------------------------------------
      1          6           0        2.250324   -1.756493   -0.292375
      2          6           0        1.540709   -0.578432    0.356634
      3          6           0        2.034953    0.863399    0.011641
      4          6           0        0.561742    1.261903   -0.130465
      5          8           0       -0.034844    2.299885   -0.072907
      6          6           0        0.109422   -0.207200   -0.168306
      7          6           0       -1.137000   -0.610819    0.624275
      8          6           0       -2.408156   -0.059169    0.003291
      9          8           0       -3.341667   -0.740228   -0.336962
     10          1           0        3.277011   -1.852259    0.075977
     11          1           0        1.732114   -2.698069   -0.081789
     12          1           0        2.295819   -1.635542   -1.380762
     13          1           0        1.506046   -0.706422    1.443761
     14          1           0        2.622186    1.413136    0.750589
     15          1           0        2.554323    0.906457   -0.952809
     16          1           0        0.014269   -0.524509   -1.216208
     17          1           0       -1.228528   -1.699132    0.693795
     18          1           0       -1.059022   -0.203983    1.642409
     19          1           0       -2.414105    1.043929   -0.124176
 ---------------------------------------------------------------------

 SCF Done:  E(RB3LYP) =  -423.205301426     A.U. after    1 cycles

 The electronic state is 1-A.
 Alpha  occ. eigenvalues --  -19.14811 -19.13852 -10.27940 -10.26963 -10.21409
 Alpha  occ. eigenvalues --  -10.21153 -10.20379 -10.20178 -10.19282  -1.05608
 Alpha  occ. eigenvalues --   -1.04472  -0.86937  -0.77451  -0.73261  -0.66385
 Alpha  occ. eigenvalues --   -0.59977  -0.57758  -0.53835  -0.49511  -0.47749
 Alpha  occ. eigenvalues --   -0.46190  -0.45659  -0.43088  -0.42611  -0.42113
 Alpha  occ. eigenvalues --   -0.40600  -0.39630  -0.38056  -0.36840  -0.34826
 Alpha  occ. eigenvalues --   -0.34057  -0.33276  -0.25386  -0.24590
 Alpha virt. eigenvalues --   -0.02956  -0.02141   0.07495   0.10106   0.11561
 Alpha virt. eigenvalues --    0.12078   0.12870   0.14013   0.14388   0.15570
 Alpha virt. eigenvalues --    0.15758   0.17547   0.17778   0.19149   0.21485

 Mulliken charges:
               1
     1  C   -0.411805
     2  C    0.006184
     3  C   -0.355480
     4  C    0.389360
     5  O   -0.298547
     6  C   -0.113217
     7  C   -0.305292
     8  C    0.147316
     9  O   -0.240201
    10  H    0.124690
    11  H    0.125559
    12  H    0.118336
    13  H    0.086721
    14  H    0.131749
    15  H    0.131594
    16  H    0.109952
    17  H    0.123476
    18  H    0.121276
    19  H    0.108328
 Sum of Mulliken charges =   0.00000

 Dipole moment (field-independent basis, Debye):
    X=              3.8230    Y=             -1.3799    Z=              0.7243  Tot=              4.1285
 Quadrupole moment (field-independent basis, Debye-Ang):
   XX=            -61.3990   YY=            -60.1915   ZZ=            -50.7915
   XY=             -2.8531   XZ=             -2.5682   YZ=             -0.3466

  Exact polarizability:  91.923  -0.224  79.716   2.075   0.453  60.040
 Approx polarizability: 122.617   1.158 119.754   5.372   2.395  95.153

                      1                      2                      3
                      A                      A                      A
 Frequencies --     58.7286                73.5588                83.3081
 Red. masses --      4.3674                 4.1205                 3.4310
 Frc consts  --      0.0089                 0.0131                 0.0140
 IR Inten    --      3.1157                 3.0761                 6.3147

                      4                      5                      6
                      A                      A                      A
 Frequencies --    153.0575               209.9051               227.4413
 Red. masses --      2.5268                 2.1237                 1.7286
 Frc consts  --      0.0349                 0.0551                 0.0527
 IR Inten    --      3.1428                 1.4443                 0.9175

                      7                      8                      9
                      A                      A                      A
 Frequencies --    263.0831               333.6935               385.5897
 Red. masses --      1.8800                 3.2930                 3.3069
 Frc consts  --      0.0767                 0.2160                 0.2897
 IR Inten    --      1.1898                 0.9706                 1.0515

                     10                     11                     12
                      A                      A                      A
 Frequencies --    434.6181               510.6297               576.8948
 Red. masses --      2.3375                 2.3703                 2.3761
 Frc consts  --      0.2601                 0.3641                 0.4659
 IR Inten    --      2.6465                14.2298                 0.9771

                     13                     14                     15
                      A                      A                      A
 Frequencies --    642.8565               749.8106               779.5750
 Red. masses --      4.3840                 2.2715                 2.0225
 Frc consts  --      1.0675                 0.7524                 0.7242
 IR Inten    --      3.8986                 2.5557                 3.0098

                     16                     17                     18
                      A                      A                      A
 Frequencies --    850.5417               882.7192               888.5777
 Red. masses --      2.4186                 2.3340                 1.6331
 Frc consts  --      1.0309                 1.0715                 0.7597
 IR Inten    --      8.6397                 0.6981                 3.8615

                     19                     20                     21
                      A                      A                      A
 Frequencies --    972.0272              1016.9349              1039.1178
 Red. masses --      1.1914                 1.5953                 3.2558
 Frc consts  --      0.6633                 0.9720                 2.0713
 IR Inten    --      0.0780                33.6076                25.8704

                     22                     23                     24
                      A                      A                      A
 Frequencies --   1077.5006              1100.3351              1112.1582
 Red. masses --      2.6049                 2.3769                 2.4022
 Frc consts  --      1.7818                 1.6956                 1.7506
 IR Inten    --     24.1161                 5.1382                 6.0071

                     25                     26                     27
                      A                      A                      A
 Frequencies --   1139.5800              1177.2172              1195.5833
 Red. masses --      2.1630                 1.7788                 1.3764
 Frc consts  --      1.6550                 1.4524                 1.1592
 IR Inten    --      9.0975                17.1869                 4.1442

                     28                     29                     30
                      A                      A                      A
 Frequencies --   1214.9067              1242.9979              1270.1194
 Red. masses --      1.4823                 1.4783                 1.3431
 Frc consts  --      1.2890                 1.3457                 1.2765
 IR Inten    --      1.8324                 3.8612                 3.9810

                     31                     32                     33
                      A                      A                      A
 Frequencies --   1303.7078              1337.7143              1374.4018
 Red. masses --      1.5268                 1.4781                 1.4844
 Frc consts  --      1.5290                 1.5584                 1.6521
 IR Inten    --      5.2809                 6.5715                10.2292

                     34                     35                     36
                      A                      A                      A
 Frequencies --   1413.7039              1424.9856              1444.4835
 Red. masses --      1.2605                 1.1870                 1.1205
 Frc consts  --      1.4843                 1.4201                 1.3775
 IR Inten    --      2.3609                 5.4180                 7.3630

                     37                     38                     39
                      A                      A                      A
 Frequencies --   1462.8355              1493.4907              1497.6384
 Red. masses --      1.0918                 1.0482                 1.0420
 Frc consts  --      1.3765                 1.3776                 1.3770
 IR Inten    --      3.7713                 1.7048                 6.6940

                     40                     41                     42
                      A                      A                      A
 Frequencies --   1830.4739              1879.8216              2921.2648
 Red. masses --      9.6315                12.5051                 1.0849
 Frc consts  --     19.0140                26.0358                 5.4546
 IR Inten    --    187.6365               233.9368                52.5718

                     43                     44                     45
                      A                      A                      A
 Frequencies --   3013.0526              3021.4169              3027.6563
 Red. masses --      1.0704                 1.0732                 1.0361
 Frc consts  --      5.7254                 5.7722                 5.5957
 IR Inten    --      1.0954                10.5805                21.7975

                     46                     47                     48
                      A                      A                      A
 Frequencies --   3047.0129              3053.3708              3091.8221
 Red. masses --      1.0702                 1.0769                 1.0988
 Frc consts  --      5.8541                 5.9154                 6.1885
 IR Inten    --      3.4815                19.1903                10.2605

                     49                     50                     51
                      A                      A                      A
 Frequencies --   3096.5742              3100.3027              3117.2689
 Red. masses --      1.1008                 1.1014                 1.1019
 Frc consts  --      6.2192                 6.2375                 6.3089
 IR Inten    --     32.5489                20.4428                12.5802

 - Thermochemistry -
 -------------------
 Temperature   298.150 Kelvin.  Pressure   1.00000 Atm.
 Atom     1 has atomic number  6 and mass  12.00000

 Molecular mass:   126.06808 amu.
 Principal axes and moments of inertia in atomic units:
                           1         2         3
     Eigenvalues --   742.274131677.322442277.70978
           X            0.99922  -0.03859  -0.00838
           Y            0.03862   0.99925   0.00327
           Z            0.00825  -0.00359   0.99996
 This molecule is an asymmetric top.
 Rotational symmetry number  1.
 Warning -- assumption of classical behavior for rotation
           may cause significant error
 Rotational temperatures (Kelvin)      0.11669     0.05164     0.03803
 Rotational constants (GHZ):           2.43137     1.07597     0.79235
 Zero-point vibrational energy     410415.2 (Joules/Mol)
                                   98.09159 (Kcal/Mol)
 Warning -- explicit consideration of  12 degrees of freedom as
           vibrations may cause significant error
 Vibrational temperatures:     84.50   105.83   119.86   220.22   302.01
          (Kelvin)            327.24   378.52   480.11   554.78   625.32
                              734.68   830.02   924.93  1078.81  1121.63
                             1223.74  1270.03  1278.46  1398.53  1463.14
                             1495.06  1550.28  1583.13  1600.15  1639.60
                             1693.75  1720.18  1747.98  1788.39  1827.42
                             1875.74  1924.67  1977.46  2034.00  2050.23
                             2078.29  2104.69  2148.80  2154.76  2633.64
                             2704.64  4203.04  4335.11  4347.14  4356.12
                             4383.97  4393.11  4448.44  4455.27  4460.64
                             4485.05

 Zero-point correction=                           0.156319 (Hartree/Particle)
 Thermal correction to Energy=                    0.165907
 Thermal correction to Enthalpy=                  0.166851
 Thermal correction to Gibbs Free Energy=         0.120839
 Sum of electronic and zero-point Energies=           -423.048983
 Sum of electronic and thermal Energies=              -423.039394
 Sum of electronic and thermal Enthalpies=            -423.038450
 Sum of electronic and thermal Free Energies=         -423.084463

                     E (Thermal)             CV                S
                      KCal/Mol        Cal/Mol-Kelvin    Cal/Mol-Kelvin
 Total                  104.108             34.043             96.841
 Electronic               0.000              0.000              0.000
 Translational            0.889              2.981             40.409
 Rotational               0.889              2.981             29.429
 Vibrational            102.331             28.081             27.004
 Vibration     1          0.596              1.974              4.499
 Vibration     2          0.599              1.966              4.056
 Vibration     3          0.600              1.961              3.811
 Vibration     4          0.619              1.899              2.634
 Vibration     5          0.642              1.826              2.045
 Vibration     6          0.651              1.799              1.899
 Vibration     7          0.670              1.741              1.641
 Vibration     8          0.715              1.608              1.242
 Vibration     9          0.754              1.501              1.017
 Vibration    10          0.795              1.395              0.844
 Vibration    11          0.866              1.226              0.632
 Vibration    12          0.933              1.081              0.491

 Optimization completed.
    -- Stationary point found.
 Normal termination of Gaussian 09 at Tue Jan 28 01:15:00 2020.
