 Gaussian 09, Revision D.01,
 Gaussian 09:  ES64L-G09RevD.01 24-Apr-2013

 -----------------------------
 # b3lyp 6-31G(2df,p) opt Freq
 -----------------------------

 -----
 titel
 -----
 Symbolic Z-matrix:
 Charge =  0 Multiplicity = 1

 SCF Done:  E(RB3LYP) =  -423.169001520     A.U. after   14 cycles
 Optimization completed.
    -- Stationary point found.
 Normal termination of Gaussian 09 at Tue Jan 28 13:30:39 2020.

 ----------------------------------------------------------------------
 #N Geom=AllCheck Guess=TCheck SCRF=Check GenChk RB3LYP/6-31G(2df,p) Fr
 eq
 ----------------------------------------------------------------------

 Structure from the checkpoint file:  "/scratch/puck/g09_a68b6ed1-2070-41d9-92af-8593f88ded5b/Gau-32019.chk"
 -----
 titel
 -----
 Charge =  0 Multiplicity = 1

                         Standard orientation:
 ---------------------------------------------------------------------
 Center     Atomic      Atomic             Coordinates (Angstroms)
 Number     Number       Type             X           Y           Z
 ---------------------------------------------------------------------
      1          8           0        2.711550   -1.164404    0.017896
      2          6           0        2.180942    0.079691    0.423993
      3          6           0        1.026871    0.508105   -0.488877
      4          8           0        0.039674   -0.541285   -0.482511
      5          6           0       -1.195742   -0.030938   -0.012766
      6          6           0       -2.061389   -0.932600    0.828625
      7          6           0       -2.457776   -0.608218   -0.598607
      8          6           0       -0.979090    1.406907    0.252091
      9          6           0        0.279303    1.730842   -0.031615
     10          1           0        1.953103   -1.755661   -0.062390
     11          1           0        1.817577    0.050291    1.463778
     12          1           0        2.994622    0.811734    0.369079
     13          1           0        1.416336    0.604758   -1.514072
     14          1           0       -1.671346   -1.925466    1.023487
     15          1           0       -2.629182   -0.497391    1.644320
     16          1           0       -2.325508   -1.386752   -1.341533
     17          1           0       -3.300947    0.051837   -0.772667
     18          1           0       -1.760265    2.061906    0.615585
     19          1           0        0.737108    2.707519    0.054269
 ---------------------------------------------------------------------

 SCF Done:  E(RB3LYP) =  -423.169001520     A.U. after    1 cycles

 The electronic state is 1-A.
 Alpha  occ. eigenvalues --  -19.14680 -19.12617 -10.24753 -10.23578 -10.22199
 Alpha  occ. eigenvalues --  -10.19475 -10.19025 -10.18856 -10.18780  -1.04802
 Alpha  occ. eigenvalues --   -1.00713  -0.85497  -0.79625  -0.72832  -0.63678
 Alpha  occ. eigenvalues --   -0.60831  -0.58281  -0.55708  -0.51411  -0.50618
 Alpha  occ. eigenvalues --   -0.47585  -0.46188  -0.43077  -0.41465  -0.40700
 Alpha  occ. eigenvalues --   -0.38499  -0.37325  -0.35953  -0.33927  -0.32580
 Alpha  occ. eigenvalues --   -0.30055  -0.28195  -0.26528  -0.21740
 Alpha virt. eigenvalues --    0.00776   0.08079   0.10585   0.11308   0.12143
 Alpha virt. eigenvalues --    0.13524   0.14318   0.14848   0.15793   0.16844
 Alpha virt. eigenvalues --    0.18046   0.18953   0.20463   0.21485   0.22234

 Mulliken charges:
               1
     1  O   -0.422677
     2  C   -0.053894
     3  C    0.032002
     4  O   -0.331641
     5  C    0.433360
     6  C   -0.324584
     7  C   -0.325335
     8  C   -0.160870
     9  C   -0.123239
    10  H    0.289474
    11  H    0.085808
    12  H    0.102430
    13  H    0.091459
    14  H    0.124173
    15  H    0.115847
    16  H    0.127740
    17  H    0.115628
    18  H    0.113750
    19  H    0.110569
 Sum of Mulliken charges =   0.00000

 Dipole moment (field-independent basis, Debye):
    X=             -1.9553    Y=              1.5265    Z=              0.5372  Tot=              2.5382
 Quadrupole moment (field-independent basis, Debye-Ang):
   XX=            -56.9188   YY=            -49.8044   ZZ=            -53.6352
   XY=              3.1380   XZ=             -0.6493   YZ=              0.2105

  Exact polarizability:  99.226   7.903  76.294  -3.839   0.502  61.710
 Approx polarizability: 139.148  12.656 110.837  -9.160   0.666  93.863

                      1                      2                      3
                      A                      A                      A
 Frequencies --     58.5775               113.7899               151.2288
 Red. masses --      4.9457                 2.9751                 3.2673
 Frc consts  --      0.0100                 0.0227                 0.0440
 IR Inten    --      0.1583                 4.0096                 0.4310

                      4                      5                      6
                      A                      A                      A
 Frequencies --    256.8901               302.8334               313.3854
 Red. masses --      2.7683                 2.8000                 2.2580
 Frc consts  --      0.1076                 0.1513                 0.1307
 IR Inten    --      0.7743                 2.0335                 0.0563

                      7                      8                      9
                      A                      A                      A
 Frequencies --    432.5686               459.1205               483.2677
 Red. masses --      3.4655                 1.2757                 2.6959
 Frc consts  --      0.3821                 0.1584                 0.3710
 IR Inten    --      2.2513                70.9814                39.9516

                     10                     11                     12
                      A                      A                      A
 Frequencies --    532.8876               571.5507               736.4470
 Red. masses --      3.5774                 3.1345                 1.5640
 Frc consts  --      0.5985                 0.6033                 0.4998
 IR Inten    --      4.6648                 2.3418                16.3987

                     13                     14                     15
                      A                      A                      A
 Frequencies --    761.2474               780.9210               823.0107
 Red. masses --      1.0699                 2.6447                 4.1013
 Frc consts  --      0.3653                 0.9502                 1.6367
 IR Inten    --      2.2801                 2.4066                17.3298

                     16                     17                     18
                      A                      A                      A
 Frequencies --    868.3130               891.2609               922.3496
 Red. masses --      2.6551                 1.4042                 3.2966
 Frc consts  --      1.1795                 0.6572                 1.6524
 IR Inten    --      7.0007                14.2067                26.9324

                     19                     20                     21
                      A                      A                      A
 Frequencies --    925.7305               946.7100               979.3359
 Red. masses --      2.2213                 1.2942                 2.3406
 Frc consts  --      1.1216                 0.6834                 1.3226
 IR Inten    --     35.2228                 0.0981                 7.1699

                     22                     23                     24
                      A                      A                      A
 Frequencies --   1013.0901              1045.4209              1064.8523
 Red. masses --      2.0108                 1.5748                 1.4369
 Frc consts  --      1.2159                 1.0140                 0.9600
 IR Inten    --      8.1019                12.7810                 1.9959

                     25                     26                     27
                      A                      A                      A
 Frequencies --   1068.5928              1083.0956              1085.9497
 Red. masses --      2.3920                 2.1047                 3.2478
 Frc consts  --      1.6093                 1.4547                 2.2566
 IR Inten    --     58.8569                84.1874                13.8388

                     28                     29                     30
                      A                      A                      A
 Frequencies --   1128.9734              1191.6328              1218.0956
 Red. masses --      1.8314                 1.2746                 1.1876
 Frc consts  --      1.3753                 1.0664                 1.0382
 IR Inten    --     37.0675                 0.0809                14.7589

                     31                     32                     33
                      A                      A                      A
 Frequencies --   1242.6514              1286.2562              1319.1700
 Red. masses --      1.6995                 1.8000                 1.8182
 Frc consts  --      1.5462                 1.7546                 1.8642
 IR Inten    --     18.3612                52.8592                 2.0496

                     34                     35                     36
                      A                      A                      A
 Frequencies --   1359.0228              1390.0688              1402.0680
 Red. masses --      1.4355                 1.2374                 2.2870
 Frc consts  --      1.5621                 1.4088                 2.6488
 IR Inten    --     12.5234                 9.8806                 1.4025

                     37                     38                     39
                      A                      A                      A
 Frequencies --   1432.3369              1450.0923              1489.7695
 Red. masses --      1.2873                 1.0891                 1.5073
 Frc consts  --      1.5560                 1.3492                 1.9710
 IR Inten    --     68.2966                 1.5502                 6.5895

                     40                     41                     42
                      A                      A                      A
 Frequencies --   1498.2220              1677.9921              2974.2378
 Red. masses --      1.0944                 6.9556                 1.0711
 Frc consts  --      1.4473                11.5390                 5.5824
 IR Inten    --      1.0168                 1.7160                18.2841

                     43                     44                     45
                      A                      A                      A
 Frequencies --   2990.6707              3068.6024              3130.2889
 Red. masses --      1.0796                 1.0949                 1.0506
 Frc consts  --      5.6894                 6.0747                 6.0653
 IR Inten    --     80.3417                41.7495                14.6637

                     46                     47                     48
                      A                      A                      A
 Frequencies --   3132.9682              3210.4561              3215.4638
 Red. masses --      1.0577                 1.0859                 1.1186
 Frc consts  --      6.1167                 6.5944                 6.8141
 IR Inten    --      6.9181                 0.7894                 0.3318

                     49                     50                     51
                      A                      A                      A
 Frequencies --   3230.2807              3234.1305              3787.7886
 Red. masses --      1.1153                 1.1068                 1.0652
 Frc consts  --      6.8567                 6.8208                 9.0046
 IR Inten    --      6.5782                 9.6026                24.3403

 - Thermochemistry -
 -------------------
 Temperature   298.150 Kelvin.  Pressure   1.00000 Atm.
 Atom     1 has atomic number  8 and mass  15.99491

 Molecular mass:   126.06808 amu.
 Principal axes and moments of inertia in atomic units:
                           1         2         3
     Eigenvalues --   567.765021506.520751836.84472
           X            0.99975   0.02214   0.00017
           Y           -0.02214   0.99975   0.00027
           Z           -0.00017  -0.00028   1.00000
 This molecule is an asymmetric top.
 Rotational symmetry number  1.
 Warning -- assumption of classical behavior for rotation
           may cause significant error
 Rotational temperatures (Kelvin)      0.15255     0.05749     0.04715
 Rotational constants (GHZ):           3.17868     1.19795     0.98252
 Zero-point vibrational energy     417100.0 (Joules/Mol)
                                   99.68928 (Kcal/Mol)
 Warning -- explicit consideration of  11 degrees of freedom as
           vibrations may cause significant error
 Vibrational temperatures:     84.28   163.72   217.58   369.61   435.71
          (Kelvin)            450.89   622.37   660.57   695.31   766.71
                              822.33  1059.58  1095.26  1123.57  1184.13
                             1249.31  1282.32  1327.05  1331.92  1362.10
                             1409.04  1457.61  1504.13  1532.08  1537.46
                             1558.33  1562.44  1624.34  1714.49  1752.57
                             1787.90  1850.63  1897.99  1955.33  2000.00
                             2017.26  2060.81  2086.36  2143.44  2155.60
                             2414.25  4279.26  4302.90  4415.03  4503.78
                             4507.64  4619.12  4626.33  4647.65  4653.19
                             5449.78

 Zero-point correction=                           0.158865 (Hartree/Particle)
 Thermal correction to Energy=                    0.167272
 Thermal correction to Enthalpy=                  0.168217
 Thermal correction to Gibbs Free Energy=         0.125490
 Sum of electronic and zero-point Energies=           -423.010137
 Sum of electronic and thermal Energies=              -423.001729
 Sum of electronic and thermal Enthalpies=            -423.000785
 Sum of electronic and thermal Free Energies=         -423.043512

                     E (Thermal)             CV                S
                      KCal/Mol        Cal/Mol-Kelvin    Cal/Mol-Kelvin
 Total                  104.965             32.492             89.926
 Electronic               0.000              0.000              0.000
 Translational            0.889              2.981             40.409
 Rotational               0.889              2.981             28.843
 Vibrational            103.188             26.531             20.675
 Vibration     1          0.596              1.974              4.505
 Vibration     2          0.607              1.938              3.203
 Vibration     3          0.619              1.901              2.657
 Vibration     4          0.666              1.751              1.683
 Vibration     5          0.694              1.668              1.401
 Vibration     6          0.701              1.648              1.344
 Vibration     7          0.793              1.399              0.850
 Vibration     8          0.817              1.341              0.769
 Vibration     9          0.839              1.287              0.701
 Vibration    10          0.888              1.177              0.581
 Vibration    11          0.928              1.093              0.501

 Optimization completed.
    -- Stationary point found.
 Normal termination of Gaussian 09 at Tue Jan 28 14:12:03 2020.
