 Gaussian 09, Revision D.01,
 Gaussian 09:  ES64L-G09RevD.01 24-Apr-2013

 -----------------------------
 # b3lyp 6-31G(2df,p) opt Freq
 -----------------------------

 -----
 titel
 -----
 Symbolic Z-matrix:
 Charge =  0 Multiplicity = 1

 SCF Done:  E(RB3LYP) =  -423.187325964     A.U. after   13 cycles
 Optimization completed.
    -- Stationary point found.
 Normal termination of Gaussian 09 at Mon Jan 27 11:28:25 2020.

 ----------------------------------------------------------------------
 #N Geom=AllCheck Guess=TCheck SCRF=Check GenChk RB3LYP/6-31G(2df,p) Fr
 eq
 ----------------------------------------------------------------------

 Structure from the checkpoint file:  "/scratch/puck/g09_19268c78-ae84-4b19-bbc6-877aab02f1a0/Gau-60898.chk"
 -----
 titel
 -----
 Charge =  0 Multiplicity = 1

                         Standard orientation:
 ---------------------------------------------------------------------
 Center     Atomic      Atomic             Coordinates (Angstroms)
 Number     Number       Type             X           Y           Z
 ---------------------------------------------------------------------
      1          6           0        2.187896   -0.280496    0.285467
      2          6           0        1.515950    1.112529    0.086512
      3          6           0        0.094596    0.688456   -0.200283
      4          8           0       -0.950486    1.479443   -0.738749
      5          6           0       -1.119720    0.908919    0.584551
      6          6           0       -1.933269   -0.366339    0.660720
      7          6           0       -1.253920   -1.338888   -0.345499
      8          6           0        0.140232   -0.765078   -0.636768
      9          8           0        1.156519   -1.275637    0.220948
     10          1           0        2.936776   -0.463514   -0.498331
     11          1           0        2.678966   -0.384102    1.256123
     12          1           0        1.601341    1.752560    0.967353
     13          1           0        1.948280    1.649004   -0.763342
     14          1           0       -1.165582    1.645521    1.383050
     15          1           0       -1.870102   -0.746416    1.686609
     16          1           0       -2.993000   -0.209755    0.437673
     17          1           0       -1.185459   -2.359821    0.036886
     18          1           0       -1.819341   -1.375703   -1.279690
     19          1           0        0.429262   -0.892835   -1.692114
 ---------------------------------------------------------------------

 SCF Done:  E(RB3LYP) =  -423.187325964     A.U. after    1 cycles

 The electronic state is 1-A.
 Alpha  occ. eigenvalues --  -19.15033 -19.13852 -10.23301 -10.23251 -10.23103
 Alpha  occ. eigenvalues --  -10.22659 -10.19201 -10.18730 -10.18360  -1.07254
 Alpha  occ. eigenvalues --   -1.03265  -0.80187  -0.77021  -0.71842  -0.66639
 Alpha  occ. eigenvalues --   -0.60522  -0.58025  -0.55774  -0.50143  -0.48168
 Alpha  occ. eigenvalues --   -0.47517  -0.46367  -0.44336  -0.40980  -0.38971
 Alpha  occ. eigenvalues --   -0.37692  -0.36949  -0.35792  -0.35128  -0.34065
 Alpha  occ. eigenvalues --   -0.32384  -0.28402  -0.26245  -0.24724
 Alpha virt. eigenvalues --    0.08359   0.08821   0.10059   0.10878   0.12836
 Alpha virt. eigenvalues --    0.13604   0.14655   0.15122   0.16360   0.16973
 Alpha virt. eigenvalues --    0.17738   0.18342   0.19845   0.22052   0.22562

 Mulliken charges:
               1
     1  C   -0.066107
     2  C   -0.386185
     3  C    0.459333
     4  O   -0.325229
     5  C   -0.024827
     6  C   -0.244623
     7  C   -0.255617
     8  C    0.055774
     9  O   -0.274243
    10  H    0.098443
    11  H    0.112821
    12  H    0.115884
    13  H    0.118774
    14  H    0.094002
    15  H    0.112492
    16  H    0.111434
    17  H    0.117867
    18  H    0.115277
    19  H    0.064730
 Sum of Mulliken charges =   0.00000

 Dipole moment (field-independent basis, Debye):
    X=              0.5076    Y=              0.0706    Z=              0.9042  Tot=              1.0393
 Quadrupole moment (field-independent basis, Debye-Ang):
   XX=            -49.9316   YY=            -56.9032   ZZ=            -51.9856
   XY=              4.2054   XZ=             -1.9058   YZ=              3.4077

  Exact polarizability:  85.606   3.122  69.538  -2.439   2.515  66.385
 Approx polarizability: 112.778   0.355 101.188  -2.226  -1.579 105.101

                      1                      2                      3
                      A                      A                      A
 Frequencies --     72.4895               144.3771               200.1414
 Red. masses --      2.0258                 2.1399                 2.7760
 Frc consts  --      0.0063                 0.0263                 0.0655
 IR Inten    --      0.3467                 2.7698                 4.6230

                      4                      5                      6
                      A                      A                      A
 Frequencies --    296.8865               358.8112               423.7666
 Red. masses --      2.8824                 2.5160                 4.1998
 Frc consts  --      0.1497                 0.1908                 0.4444
 IR Inten    --      5.5917                 1.2214                 6.7274

                      7                      8                      9
                      A                      A                      A
 Frequencies --    529.4153               584.7237               699.9782
 Red. masses --      7.7572                 4.4625                 2.1440
 Frc consts  --      1.2810                 0.8989                 0.6189
 IR Inten    --      1.3775                 2.1107                 1.4575

                     10                     11                     12
                      A                      A                      A
 Frequencies --    702.8228               772.0873               802.0691
 Red. masses --      5.1000                 3.4175                 2.5139
 Frc consts  --      1.4843                 1.2003                 0.9528
 IR Inten    --      4.0171                 7.0999                 5.9205

                     13                     14                     15
                      A                      A                      A
 Frequencies --    818.7208               866.9001               903.1960
 Red. masses --      1.4925                 3.3500                 2.3341
 Frc consts  --      0.5894                 1.4833                 1.1218
 IR Inten    --      4.0397                 2.9189                 7.3729

                     16                     17                     18
                      A                      A                      A
 Frequencies --    933.7177               945.3675               956.0496
 Red. masses --      2.0258                 2.5235                 2.7286
 Frc consts  --      1.0406                 1.3288                 1.4694
 IR Inten    --     11.2674                 6.3655                23.2759

                     19                     20                     21
                      A                      A                      A
 Frequencies --    976.7903              1029.6625              1051.5896
 Red. masses --      2.5096                 3.5094                 1.5647
 Frc consts  --      1.4108                 2.1922                 1.0194
 IR Inten    --     13.9720                26.7381                 6.1725

                     22                     23                     24
                      A                      A                      A
 Frequencies --   1079.7211              1098.4056              1115.9434
 Red. masses --      1.9669                 2.9083                 2.7335
 Frc consts  --      1.3510                 2.0673                 2.0056
 IR Inten    --     32.0187                39.1279                 9.8538

                     25                     26                     27
                      A                      A                      A
 Frequencies --   1188.8720              1201.0812              1224.3332
 Red. masses --      1.5447                 1.4104                 1.3883
 Frc consts  --      1.2864                 1.1988                 1.2261
 IR Inten    --      2.3508                17.9067                 6.4542

                     28                     29                     30
                      A                      A                      A
 Frequencies --   1233.2077              1253.3676              1270.5756
 Red. masses --      1.6805                 1.1231                 1.4781
 Frc consts  --      1.5057                 1.0395                 1.4059
 IR Inten    --      1.1314                 6.4239                 9.2480

                     31                     32                     33
                      A                      A                      A
 Frequencies --   1298.6802              1319.4318              1330.1365
 Red. masses --      1.2534                 1.4063                 1.6320
 Frc consts  --      1.2455                 1.4424                 1.7012
 IR Inten    --      1.8916                 4.9599                 3.3507

                     34                     35                     36
                      A                      A                      A
 Frequencies --   1355.6000              1368.7051              1390.1611
 Red. masses --      1.5742                 1.4332                 1.3436
 Frc consts  --      1.7044                 1.5819                 1.5299
 IR Inten    --      1.3343                 9.2697                 9.6322

                     37                     38                     39
                      A                      A                      A
 Frequencies --   1466.3186              1486.4468              1490.4553
 Red. masses --      1.1412                 1.1508                 1.4655
 Frc consts  --      1.4457                 1.4982                 1.9180
 IR Inten    --      3.9757                 7.1832                 8.0499

                     40                     41                     42
                      A                      A                      A
 Frequencies --   1496.0653              1521.0838              2975.5454
 Red. masses --      1.8658                 1.1184                 1.0832
 Frc consts  --      2.4605                 1.5245                 5.6508
 IR Inten    --      8.3835                 0.3145                49.7283

                     43                     44                     45
                      A                      A                      A
 Frequencies --   2999.6188              3046.1655              3061.5040
 Red. masses --      1.0711                 1.0607                 1.0608
 Frc consts  --      5.6784                 5.7988                 5.8582
 IR Inten    --     77.9529                26.5769                27.1972

                     46                     47                     48
                      A                      A                      A
 Frequencies --   3073.4808              3087.5467              3089.1552
 Red. masses --      1.0656                 1.0980                 1.0954
 Frc consts  --      5.9307                 6.1673                 6.1590
 IR Inten    --     17.9188                20.3632                16.8611

                     49                     50                     51
                      A                      A                      A
 Frequencies --   3112.0233              3121.1668              3145.0561
 Red. masses --      1.1037                 1.1048                 1.0909
 Frc consts  --      6.2979                 6.3409                 6.3578
 IR Inten    --     28.4580                16.3800                25.7531

 - Thermochemistry -
 -------------------
 Temperature   298.150 Kelvin.  Pressure   1.00000 Atm.
 Atom     1 has atomic number  6 and mass  12.00000

 Molecular mass:   126.06808 amu.
 Principal axes and moments of inertia in atomic units:
                           1         2         3
     Eigenvalues --   640.061011004.539071363.39291
           X            0.99631   0.08515  -0.01075
           Y           -0.08465   0.99557   0.04098
           Z            0.01419  -0.03992   0.99910
 This molecule is an asymmetric top.
 Rotational symmetry number  1.
 Warning -- assumption of classical behavior for rotation
           may cause significant error
 Rotational temperatures (Kelvin)      0.13532     0.08622     0.06353
 Rotational constants (GHZ):           2.81964     1.79659     1.32371
 Zero-point vibrational energy     424491.4 (Joules/Mol)
                                  101.45587 (Kcal/Mol)
 Warning -- explicit consideration of   8 degrees of freedom as
           vibrations may cause significant error
 Vibrational temperatures:    104.30   207.73   287.96   427.15   516.25
          (Kelvin)            609.70   761.71   841.29  1007.11  1011.20
                             1110.86  1154.00  1177.96  1247.27  1299.50
                             1343.41  1360.17  1375.54  1405.38  1481.45
                             1513.00  1553.48  1580.36  1605.59  1710.52
                             1728.09  1761.54  1774.31  1803.31  1828.07
                             1868.51  1898.37  1913.77  1950.40  1969.26
                             2000.13  2109.70  2138.66  2144.43  2152.50
                             2188.50  4281.14  4315.78  4382.75  4404.82
                             4422.05  4442.29  4444.60  4477.50  4490.66
                             4525.03

 Zero-point correction=                           0.161680 (Hartree/Particle)
 Thermal correction to Energy=                    0.169014
 Thermal correction to Enthalpy=                  0.169958
 Thermal correction to Gibbs Free Energy=         0.129621
 Sum of electronic and zero-point Energies=           -423.025646
 Sum of electronic and thermal Energies=              -423.018312
 Sum of electronic and thermal Enthalpies=            -423.017368
 Sum of electronic and thermal Free Energies=         -423.057705

                     E (Thermal)             CV                S
                      KCal/Mol        Cal/Mol-Kelvin    Cal/Mol-Kelvin
 Total                  106.058             28.771             84.896
 Electronic               0.000              0.000              0.000
 Translational            0.889              2.981             40.409
 Rotational               0.889              2.981             28.263
 Vibrational            104.280             22.809             16.224
 Vibration     1          0.599              1.967              4.085
 Vibration     2          0.616              1.909              2.745
 Vibration     3          0.638              1.840              2.132
 Vibration     4          0.691              1.680              1.434
 Vibration     5          0.734              1.557              1.127
 Vibration     6          0.786              1.419              0.879
 Vibration     7          0.884              1.185              0.589
 Vibration     8          0.942              1.064              0.477

 Optimization completed.
    -- Stationary point found.
 Normal termination of Gaussian 09 at Mon Jan 27 13:41:41 2020.
