 Gaussian 09, Revision D.01,
 Gaussian 09:  ES64L-G09RevD.01 24-Apr-2013

 -----------------------------
 # b3lyp 6-31G(2df,p) opt Freq
 -----------------------------

 -----
 titel
 -----
 Symbolic Z-matrix:
 Charge =  0 Multiplicity = 1

 SCF Done:  E(RB3LYP) =  -423.092039095     A.U. after   14 cycles
 Optimization completed.
    -- Stationary point found.
 Normal termination of Gaussian 09 at Mon Jan 27 15:34:18 2020.

 ----------------------------------------------------------------------
 #N Geom=AllCheck Guess=TCheck SCRF=Check GenChk RB3LYP/6-31G(2df,p) Fr
 eq
 ----------------------------------------------------------------------

 Structure from the checkpoint file:  "/scratch/puck/g09_4be8ee19-f295-4f98-92e6-f0cc1fb553bf/Gau-54753.chk"
 -----
 titel
 -----
 Charge =  0 Multiplicity = 1

                         Standard orientation:
 ---------------------------------------------------------------------
 Center     Atomic      Atomic             Coordinates (Angstroms)
 Number     Number       Type             X           Y           Z
 ---------------------------------------------------------------------
      1          6           0        2.177439    0.968738   -0.645562
      2          6           0        1.345905    0.311008    0.459077
      3          8           0        1.950252   -0.886371    0.933432
      4          6           0       -0.048969   -0.004800   -0.004604
      5          8           0       -0.157136   -1.011940   -1.075342
      6          6           0       -1.533963   -0.656948   -0.748231
      7          6           0       -1.290195   -0.540197    0.784741
      8          6           0       -1.935837    0.861076    0.846547
      9          6           0       -1.241073    0.860733   -0.532689
     10          1           0        3.207604    1.094881   -0.303837
     11          1           0        2.177026    0.343452   -1.543636
     12          1           0        1.772509    1.950201   -0.913105
     13          1           0        1.283781    0.979879    1.326409
     14          1           0        1.774544   -1.562391    0.266663
     15          1           0       -2.340533   -1.142075   -1.296829
     16          1           0       -1.292603   -1.352276    1.510457
     17          1           0       -3.028500    0.893882    0.839324
     18          1           0       -1.540481    1.551623    1.596064
     19          1           0       -1.198113    1.631644   -1.301904
 ---------------------------------------------------------------------

 SCF Done:  E(RB3LYP) =  -423.092039095     A.U. after    1 cycles

 The electronic state is 1-A.
 Alpha  occ. eigenvalues --  -19.13311 -19.13181 -10.25171 -10.24970 -10.23761
 Alpha  occ. eigenvalues --  -10.20617 -10.20290 -10.19496 -10.17414  -1.06486
 Alpha  occ. eigenvalues --   -1.01418  -0.87090  -0.76078  -0.66779  -0.65525
 Alpha  occ. eigenvalues --   -0.64751  -0.60542  -0.53147  -0.51117  -0.48085
 Alpha  occ. eigenvalues --   -0.46210  -0.44804  -0.43311  -0.42116  -0.39519
 Alpha  occ. eigenvalues --   -0.38303  -0.36896  -0.35347  -0.32790  -0.31294
 Alpha  occ. eigenvalues --   -0.30586  -0.29997  -0.26488  -0.23943
 Alpha virt. eigenvalues --    0.06815   0.09682   0.10376   0.11655   0.11972
 Alpha virt. eigenvalues --    0.12762   0.14284   0.15319   0.15936   0.16717
 Alpha virt. eigenvalues --    0.17257   0.17618   0.18271   0.19122   0.19512

 Mulliken charges:
               1
     1  C   -0.403878
     2  C   -0.027863
     3  O   -0.432577
     4  C    0.502137
     5  O   -0.380378
     6  C    0.085041
     7  C   -0.140100
     8  C   -0.282036
     9  C   -0.154491
    10  H    0.123388
    11  H    0.131354
    12  H    0.113576
    13  H    0.094462
    14  H    0.291223
    15  H    0.097350
    16  H    0.090933
    17  H    0.101545
    18  H    0.104838
    19  H    0.085477
 Sum of Mulliken charges =   0.00000

 Dipole moment (field-independent basis, Debye):
    X=             -1.6157    Y=              1.1542    Z=             -0.1851  Tot=              1.9943
 Quadrupole moment (field-independent basis, Debye-Ang):
   XX=            -52.5358   YY=            -51.9306   ZZ=            -55.6179
   XY=              1.7975   XZ=             -1.6105   YZ=              0.2878

  Exact polarizability:  83.609   0.430  71.605  -0.913   0.581  69.154
 Approx polarizability: 111.931  -2.184 110.957   0.966   2.756 107.904

                      1                      2                      3
                      A                      A                      A
 Frequencies --     71.0609               154.2789               169.1106
 Red. masses --      3.9075                 3.2736                 2.8847
 Frc consts  --      0.0116                 0.0459                 0.0486
 IR Inten    --      3.0350                 1.6365                 3.2268

                      4                      5                      6
                      A                      A                      A
 Frequencies --    238.1030               286.3304               362.7377
 Red. masses --      1.1378                 2.7576                 1.3123
 Frc consts  --      0.0380                 0.1332                 0.1017
 IR Inten    --      0.3203                 4.1913                79.0872

                      7                      8                      9
                      A                      A                      A
 Frequencies --    405.0503               434.5486               512.5072
 Red. masses --      2.2266                 3.1644                 2.6811
 Frc consts  --      0.2152                 0.3521                 0.4149
 IR Inten    --     13.2269                31.8070                 4.7269

                     10                     11                     12
                      A                      A                      A
 Frequencies --    557.4005               655.6739               757.4204
 Red. masses --      4.0816                 3.1383                 3.5821
 Frc consts  --      0.7472                 0.7949                 1.2108
 IR Inten    --      1.3182                12.9419                 0.6228

                     13                     14                     15
                      A                      A                      A
 Frequencies --    770.8611               810.9018               859.2201
 Red. masses --      5.0261                 3.3625                 2.1012
 Frc consts  --      1.7597                 1.3027                 0.9139
 IR Inten    --     15.3071                23.7105                 1.2464

                     16                     17                     18
                      A                      A                      A
 Frequencies --    872.7003               896.1522               913.1168
 Red. masses --      2.0958                 2.0591                 1.7764
 Frc consts  --      0.9405                 0.9743                 0.8726
 IR Inten    --     10.9562                 8.6040                 4.9951

                     19                     20                     21
                      A                      A                      A
 Frequencies --    931.1942               981.3155              1018.0373
 Red. masses --      2.2356                 2.1792                 1.4426
 Frc consts  --      1.1421                 1.2364                 0.8809
 IR Inten    --      7.1134                40.4012                 7.1338

                     22                     23                     24
                      A                      A                      A
 Frequencies --   1031.2432              1053.3122              1076.5427
 Red. masses --      1.6395                 2.3583                 2.6407
 Frc consts  --      1.0272                 1.5415                 1.8032
 IR Inten    --     14.0466                 6.8293                28.5355

                     25                     26                     27
                      A                      A                      A
 Frequencies --   1095.8873              1105.4984              1124.8044
 Red. masses --      1.6111                 1.9363                 2.3210
 Frc consts  --      1.1400                 1.3942                 1.7301
 IR Inten    --      0.6839                28.9034                25.4036

                     28                     29                     30
                      A                      A                      A
 Frequencies --   1144.7565              1168.9062              1182.8279
 Red. masses --      1.4988                 1.5904                 1.9754
 Frc consts  --      1.1572                 1.2804                 1.6283
 IR Inten    --      5.2802                 1.9763                22.1281

                     31                     32                     33
                      A                      A                      A
 Frequencies --   1229.7126              1244.2790              1277.5894
 Red. masses --      1.6598                 1.6956                 2.0805
 Frc consts  --      1.4788                 1.5468                 2.0008
 IR Inten    --      5.0675                 7.8704                12.1265

                     34                     35                     36
                      A                      A                      A
 Frequencies --   1287.8722              1332.1283              1384.1165
 Red. masses --      1.5075                 1.5378                 2.0213
 Frc consts  --      1.4732                 1.6079                 2.2815
 IR Inten    --     14.6437                 9.5394                19.1926

                     37                     38                     39
                      A                      A                      A
 Frequencies --   1398.9211              1435.9329              1488.9441
 Red. masses --      1.2542                 1.4216                 1.0504
 Frc consts  --      1.4461                 1.7270                 1.3720
 IR Inten    --      6.8340                46.6178                 9.2476

                     40                     41                     42
                      A                      A                      A
 Frequencies --   1498.4745              1513.7271              3039.6423
 Red. masses --      1.1034                 1.1198                 1.0559
 Frc consts  --      1.4597                 1.5117                 5.7481
 IR Inten    --      2.7681                 0.8019                15.8106

                     43                     44                     45
                      A                      A                      A
 Frequencies --   3039.9609              3055.7747              3111.1333
 Red. masses --      1.0618                 1.0552                 1.1092
 Frc consts  --      5.7815                 5.8054                 6.3254
 IR Inten    --     11.2497                48.9787                26.9902

                     46                     47                     48
                      A                      A                      A
 Frequencies --   3112.3091              3118.3551              3126.5708
 Red. masses --      1.1015                 1.0884                 1.0920
 Frc consts  --      6.2865                 6.2356                 6.2893
 IR Inten    --     19.0646                34.6356                49.5304

                     49                     50                     51
                      A                      A                      A
 Frequencies --   3128.2979              3137.9311              3778.2731
 Red. masses --      1.1024                 1.0979                 1.0658
 Frc consts  --      6.3561                 6.3694                 8.9640
 IR Inten    --     28.2445                21.5849                26.4265

 - Thermochemistry -
 -------------------
 Temperature   298.150 Kelvin.  Pressure   1.00000 Atm.
 Atom     1 has atomic number  6 and mass  12.00000

 Molecular mass:   126.06808 amu.
 Principal axes and moments of inertia in atomic units:
                           1         2         3
     Eigenvalues --   590.476501339.050271359.89967
           X            0.99946   0.00990  -0.03126
           Y           -0.01681   0.97324  -0.22916
           Z            0.02815   0.22956   0.97289
 This molecule is an asymmetric top.
 Rotational symmetry number  1.
 Warning -- assumption of classical behavior for rotation
           may cause significant error
 Rotational temperatures (Kelvin)      0.14668     0.06468     0.06369
 Rotational constants (GHZ):           3.05641     1.34778     1.32711
 Zero-point vibrational energy     414993.2 (Joules/Mol)
                                   99.18576 (Kcal/Mol)
 Warning -- explicit consideration of  10 degrees of freedom as
           vibrations may cause significant error
 Vibrational temperatures:    102.24   221.97   243.31   342.58   411.97
          (Kelvin)            521.90   582.78   625.22   737.38   801.97
                              943.37  1089.76  1109.10  1166.71  1236.22
                             1255.62  1289.36  1313.77  1339.78  1411.89
                             1464.73  1483.73  1515.48  1548.90  1576.74
                             1590.56  1618.34  1647.05  1681.79  1701.82
                             1769.28  1790.24  1838.16  1852.96  1916.63
                             1991.43  2012.73  2065.98  2142.26  2155.97
                             2177.91  4373.36  4373.82  4396.57  4476.22
                             4477.91  4486.61  4498.43  4500.92  4514.78
                             5436.09

 Zero-point correction=                           0.158063 (Hartree/Particle)
 Thermal correction to Energy=                    0.166260
 Thermal correction to Enthalpy=                  0.167204
 Thermal correction to Gibbs Free Energy=         0.125313
 Sum of electronic and zero-point Energies=           -422.933977
 Sum of electronic and thermal Energies=              -422.925779
 Sum of electronic and thermal Enthalpies=            -422.924835
 Sum of electronic and thermal Free Energies=         -422.966726

                     E (Thermal)             CV                S
                      KCal/Mol        Cal/Mol-Kelvin    Cal/Mol-Kelvin
 Total                  104.330             32.030             88.166
 Electronic               0.000              0.000              0.000
 Translational            0.889              2.981             40.409
 Rotational               0.889              2.981             28.466
 Vibrational            102.552             26.068             19.292
 Vibration     1          0.598              1.968              4.124
 Vibration     2          0.620              1.898              2.619
 Vibration     3          0.625              1.880              2.445
 Vibration     4          0.656              1.782              1.817
 Vibration     5          0.684              1.699              1.496
 Vibration     6          0.737              1.549              1.110
 Vibration     7          0.770              1.459              0.944
 Vibration     8          0.795              1.395              0.844
 Vibration     9          0.868              1.222              0.628
 Vibration    10          0.913              1.124              0.529

 Optimization completed.
    -- Stationary point found.
 Normal termination of Gaussian 09 at Mon Jan 27 16:18:22 2020.
