 Gaussian 09, Revision D.01,
 Gaussian 09:  ES64L-G09RevD.01 24-Apr-2013

 -----------------------------
 # b3lyp 6-31G(2df,p) opt Freq
 -----------------------------

 -----
 titel
 -----
 Symbolic Z-matrix:
 Charge =  0 Multiplicity = 1

 SCF Done:  E(RB3LYP) =  -423.137231910     A.U. after   12 cycles
 Optimization completed.
    -- Stationary point found.
 Normal termination of Gaussian 09 at Tue Jan 28 01:56:41 2020.

 ----------------------------------------------------------------------
 #N Geom=AllCheck Guess=TCheck SCRF=Check GenChk RB3LYP/6-31G(2df,p) Fr
 eq
 ----------------------------------------------------------------------

 Structure from the checkpoint file:  "/scratch/puck/g09_5210b4b6-961d-432a-960a-8c41b4cd7fdb/Gau-193677.chk"
 -----
 titel
 -----
 Charge =  0 Multiplicity = 1

                         Standard orientation:
 ---------------------------------------------------------------------
 Center     Atomic      Atomic             Coordinates (Angstroms)
 Number     Number       Type             X           Y           Z
 ---------------------------------------------------------------------
      1          6           0       -2.812096   -0.143605   -0.526931
      2          6           0       -1.438875   -0.693011   -0.249207
      3          8           0       -1.019007   -0.730052    1.131322
      4          6           0       -0.331662    0.131071    0.245386
      5          6           0       -0.191678    1.657059    0.363530
      6          6           0        1.213014    1.536114   -0.316678
      7          6           0        1.134542    0.017508   -0.103239
      8          6           0        2.115012   -0.914085    0.453781
      9          8           0        1.701134   -0.984052   -0.922117
     10          1           0       -2.925023    0.080312   -1.593346
     11          1           0       -3.579696   -0.875868   -0.255859
     12          1           0       -2.994464    0.769688    0.045124
     13          1           0       -1.163546   -1.589914   -0.805585
     14          1           0       -0.936921    2.262021   -0.156333
     15          1           0       -0.132395    1.980632    1.405480
     16          1           0        1.192558    1.798446   -1.377308
     17          1           0        2.040437    2.058947    0.165940
     18          1           0        3.140970   -0.585697    0.614236
     19          1           0        1.771518   -1.732042    1.084159
 ---------------------------------------------------------------------

 SCF Done:  E(RB3LYP) =  -423.137231910     A.U. after    1 cycles

 The electronic state is 1-A.
 Alpha  occ. eigenvalues --  -19.15324 -19.14930 -10.24035 -10.23763 -10.23697
 Alpha  occ. eigenvalues --  -10.23288 -10.19289 -10.19269 -10.18475  -1.07815
 Alpha  occ. eigenvalues --   -1.06518  -0.83665  -0.74693  -0.66793  -0.65063
 Alpha  occ. eigenvalues --   -0.64178  -0.60091  -0.53229  -0.51317  -0.49304
 Alpha  occ. eigenvalues --   -0.46968  -0.45376  -0.43358  -0.41991  -0.40619
 Alpha  occ. eigenvalues --   -0.38355  -0.37137  -0.35496  -0.35161  -0.33552
 Alpha  occ. eigenvalues --   -0.31480  -0.28394  -0.27658  -0.25060
 Alpha virt. eigenvalues --    0.05382   0.09411   0.11050   0.11328   0.11961
 Alpha virt. eigenvalues --    0.12837   0.14326   0.14971   0.15777   0.16392
 Alpha virt. eigenvalues --    0.17265   0.17697   0.18727   0.19726   0.20439

 Mulliken charges:
               1
     1  C   -0.420555
     2  C   -0.021622
     3  O   -0.302000
     4  C    0.369154
     5  C   -0.338924
     6  C   -0.337713
     7  C    0.389321
     8  C   -0.262959
     9  O   -0.278132
    10  H    0.124351
    11  H    0.132577
    12  H    0.126734
    13  H    0.104978
    14  H    0.112497
    15  H    0.121719
    16  H    0.121730
    17  H    0.113222
    18  H    0.116425
    19  H    0.129198
 Sum of Mulliken charges =   0.00000

 Dipole moment (field-independent basis, Debye):
    X=             -0.2280    Y=              1.5511    Z=             -0.1177  Tot=              1.5722
 Quadrupole moment (field-independent basis, Debye-Ang):
   XX=            -49.9145   YY=            -52.3618   ZZ=            -55.7171
   XY=              1.0649   XZ=              5.7186   YZ=             -0.3763

  Exact polarizability:  90.144   0.508  75.496   5.204  -0.912  63.272
 Approx polarizability: 113.417   0.652 107.893   4.765  -0.725 104.474

                      1                      2                      3
                      A                      A                      A
 Frequencies --     88.3000               126.2631               174.4250
 Red. masses --      2.7640                 3.2798                 2.9974
 Frc consts  --      0.0127                 0.0308                 0.0537
 IR Inten    --      1.9141                 4.0660                 0.7622

                      4                      5                      6
                      A                      A                      A
 Frequencies --    178.9416               243.5125               281.3435
 Red. masses --      1.1017                 3.1936                 2.5239
 Frc consts  --      0.0208                 0.1116                 0.1177
 IR Inten    --      0.1819                 1.9587                 3.0544

                      7                      8                      9
                      A                      A                      A
 Frequencies --    341.2759               439.0081               471.1011
 Red. masses --      2.7031                 3.3620                 3.1284
 Frc consts  --      0.1855                 0.3818                 0.4091
 IR Inten    --      2.3760                 4.4811                 3.0402

                     10                     11                     12
                      A                      A                      A
 Frequencies --    518.0293               580.7908               626.3393
 Red. masses --      3.5839                 4.4009                 4.6454
 Frc consts  --      0.5666                 0.8747                 1.0737
 IR Inten    --      3.7970                10.8029                 3.9801

                     13                     14                     15
                      A                      A                      A
 Frequencies --    755.1394               799.5448               855.9764
 Red. masses --      1.2792                 2.6921                 2.8865
 Frc consts  --      0.4298                 1.0140                 1.2461
 IR Inten    --      1.0329                 7.5759                20.4072

                     16                     17                     18
                      A                      A                      A
 Frequencies --    871.1802               902.5340               905.1886
 Red. masses --      2.2272                 2.3468                 2.9409
 Frc consts  --      0.9959                 1.1263                 1.4198
 IR Inten    --     23.1432                24.2958                 5.3039

                     19                     20                     21
                      A                      A                      A
 Frequencies --    946.4519               965.4320              1029.9167
 Red. masses --      2.8343                 1.5624                 2.7088
 Frc consts  --      1.4959                 0.8580                 1.6929
 IR Inten    --     11.9435                 3.7526                17.2480

                     22                     23                     24
                      A                      A                      A
 Frequencies --   1085.8315              1100.5039              1113.0756
 Red. masses --      1.9624                 1.6562                 2.5961
 Frc consts  --      1.3632                 1.1818                 1.8950
 IR Inten    --     17.2818                11.9038                 5.0676

                     25                     26                     27
                      A                      A                      A
 Frequencies --   1126.5189              1141.2157              1163.1544
 Red. masses --      1.4584                 1.6512                 1.6050
 Frc consts  --      1.0904                 1.2670                 1.2794
 IR Inten    --      2.6405                 7.6373                 1.8773

                     28                     29                     30
                      A                      A                      A
 Frequencies --   1164.6146              1189.4201              1222.2918
 Red. masses --      1.7049                 1.6252                 1.3665
 Frc consts  --      1.3625                 1.3546                 1.2029
 IR Inten    --      3.1213                 8.4320                 3.3893

                     31                     32                     33
                      A                      A                      A
 Frequencies --   1246.4432              1254.3792              1346.1593
 Red. masses --      1.6548                 1.5261                 1.3907
 Frc consts  --      1.5147                 1.4148                 1.4849
 IR Inten    --      0.3961                 0.8148                 7.8342

                     34                     35                     36
                      A                      A                      A
 Frequencies --   1407.0008              1428.8681              1470.2089
 Red. masses --      1.2780                 2.1676                 1.2416
 Frc consts  --      1.4906                 2.6074                 1.5812
 IR Inten    --      4.7191                11.3674                 4.9352

                     37                     38                     39
                      A                      A                      A
 Frequencies --   1471.9173              1487.5322              1492.2638
 Red. masses --      1.0899                 1.0946                 1.0835
 Frc consts  --      1.3912                 1.4271                 1.4216
 IR Inten    --      0.8671                 2.5407                 4.1729

                     40                     41                     42
                      A                      A                      A
 Frequencies --   1519.4819              1538.2073              3036.7616
 Red. masses --      1.7764                 2.5095                 1.0358
 Frc consts  --      2.4165                 3.4983                 5.6277
 IR Inten    --      7.2843                15.9158                17.9829

                     43                     44                     45
                      A                      A                      A
 Frequencies --   3070.0540              3074.1844              3086.1910
 Red. masses --      1.0569                 1.0604                 1.0501
 Frc consts  --      5.8692                 5.9044                 5.8931
 IR Inten    --     18.9639                21.1832                23.9774

                     46                     47                     48
                      A                      A                      A
 Frequencies --   3100.8731              3103.0724              3118.8797
 Red. masses --      1.1005                 1.0886                 1.1081
 Frc consts  --      6.2348                 6.1760                 6.3505
 IR Inten    --     16.0699                 5.1006                 2.6716

                     49                     50                     51
                      A                      A                      A
 Frequencies --   3126.6467              3133.7526              3179.8001
 Red. masses --      1.0997                 1.1077                 1.1198
 Frc consts  --      6.3342                 6.4091                 6.6708
 IR Inten    --     31.7409                23.5547                15.3578

 - Thermochemistry -
 -------------------
 Temperature   298.150 Kelvin.  Pressure   1.00000 Atm.
 Atom     1 has atomic number  6 and mass  12.00000

 Molecular mass:   126.06808 amu.
 Principal axes and moments of inertia in atomic units:
                           1         2         3
     Eigenvalues --   635.949671341.700921600.81420
           X            0.99944   0.00724   0.03265
           Y           -0.00702   0.99995  -0.00703
           Z           -0.03270   0.00679   0.99944
 This molecule is an asymmetric top.
 Rotational symmetry number  1.
 Warning -- assumption of classical behavior for rotation
           may cause significant error
 Rotational temperatures (Kelvin)      0.13620     0.06456     0.05411
 Rotational constants (GHZ):           2.83787     1.34511     1.12739
 Zero-point vibrational energy     413309.8 (Joules/Mol)
                                   98.78341 (Kcal/Mol)
 Warning -- explicit consideration of  11 degrees of freedom as
           vibrations may cause significant error
 Vibrational temperatures:    127.04   181.66   250.96   257.46   350.36
          (Kelvin)            404.79   491.02   631.63   677.81   745.33
                              835.63   901.16  1086.48  1150.37  1231.56
                             1253.43  1298.54  1302.36  1361.73  1389.04
                             1481.82  1562.27  1583.38  1601.47  1620.81
                             1641.95  1673.52  1675.62  1711.31  1758.60
                             1793.35  1804.77  1936.82  2024.36  2055.82
                             2115.30  2117.76  2140.22  2147.03  2186.19
                             2213.13  4369.22  4417.12  4423.06  4440.33
                             4461.46  4464.62  4487.37  4498.54  4508.77
                             4575.02

 Zero-point correction=                           0.157421 (Hartree/Particle)
 Thermal correction to Energy=                    0.166044
 Thermal correction to Enthalpy=                  0.166988
 Thermal correction to Gibbs Free Energy=         0.124158
 Sum of electronic and zero-point Energies=           -422.979811
 Sum of electronic and thermal Energies=              -422.971188
 Sum of electronic and thermal Enthalpies=            -422.970244
 Sum of electronic and thermal Free Energies=         -423.013074

                     E (Thermal)             CV                S
                      KCal/Mol        Cal/Mol-Kelvin    Cal/Mol-Kelvin
 Total                  104.194             32.635             90.143
 Electronic               0.000              0.000              0.000
 Translational            0.889              2.981             40.409
 Rotational               0.889              2.981             28.703
 Vibrational            102.416             26.673             21.031
 Vibration     1          0.601              1.957              3.697
 Vibration     2          0.611              1.927              3.002
 Vibration     3          0.627              1.874              2.387
 Vibration     4          0.629              1.868              2.339
 Vibration     5          0.659              1.773              1.777
 Vibration     6          0.681              1.708              1.525
 Vibration     7          0.721              1.593              1.206
 Vibration     8          0.799              1.385              0.830
 Vibration     9          0.828              1.314              0.734
 Vibration    10          0.873              1.210              0.615
 Vibration    11          0.937              1.073              0.484

 Normal termination of Gaussian 09 at Tue Jan 28 02:41:23 2020.
