 Gaussian 09, Revision D.01,
 Gaussian 09:  ES64L-G09RevD.01 24-Apr-2013

 -----------------------------
 # b3lyp 6-31G(2df,p) opt Freq
 -----------------------------

 -----
 titel
 -----
 Symbolic Z-matrix:
 Charge =  0 Multiplicity = 1

 SCF Done:  E(RB3LYP) =  -423.208579392     A.U. after   14 cycles
 Optimization completed.
    -- Stationary point found.
 Normal termination of Gaussian 09 at Mon Jan 27 18:45:18 2020.

 ----------------------------------------------------------------------
 #N Geom=AllCheck Guess=TCheck SCRF=Check GenChk RB3LYP/6-31G(2df,p) Fr
 eq
 ----------------------------------------------------------------------

 Structure from the checkpoint file:  "/scratch/puck/g09_c2fabf2c-cb3a-44d8-9413-b1883ea44d06/Gau-183156.chk"
 -----
 titel
 -----
 Charge =  0 Multiplicity = 1

                         Standard orientation:
 ---------------------------------------------------------------------
 Center     Atomic      Atomic             Coordinates (Angstroms)
 Number     Number       Type             X           Y           Z
 ---------------------------------------------------------------------
      1          8           0       -1.726942   -1.430621    0.603713
      2          6           0       -0.859132   -0.502077   -0.004840
      3          6           0       -1.616833    0.410033   -0.994030
      4          6           0       -0.901724    1.648950   -0.389781
      5          6           0       -0.417919    0.781605    0.810308
      6          6           0        1.086134    0.713818    1.041333
      7          6           0        1.601238   -0.198781   -0.079608
      8          8           0        2.714796   -0.202143   -0.534117
      9          6           0        0.452995   -1.115377   -0.529534
     10          1           0       -1.227831   -1.954567    1.239703
     11          1           0       -1.481111    0.211900   -2.060173
     12          1           0       -2.683978    0.393223   -0.762540
     13          1           0       -0.070983    2.007482   -1.005540
     14          1           0       -1.533917    2.504163   -0.145005
     15          1           0       -1.010494    0.933468    1.713462
     16          1           0        1.606115    1.675319    1.025185
     17          1           0        1.327355    0.230988    1.999071
     18          1           0        0.483782   -1.268582   -1.611305
     19          1           0        0.619667   -2.100315   -0.072713
 ---------------------------------------------------------------------

 SCF Done:  E(RB3LYP) =  -423.208579392     A.U. after    1 cycles

 The electronic state is 1-A.
 Alpha  occ. eigenvalues --  -19.14441 -19.13207 -10.27100 -10.24318 -10.19252
 Alpha  occ. eigenvalues --  -10.19221 -10.19087 -10.18789 -10.18281  -1.04339
 Alpha  occ. eigenvalues --   -1.02885  -0.86146  -0.76774  -0.73439  -0.64104
 Alpha  occ. eigenvalues --   -0.63410  -0.54653  -0.54307  -0.51782  -0.48110
 Alpha  occ. eigenvalues --   -0.46473  -0.44196  -0.43312  -0.42333  -0.40740
 Alpha  occ. eigenvalues --   -0.38956  -0.37685  -0.35384  -0.34545  -0.33883
 Alpha  occ. eigenvalues --   -0.32418  -0.30427  -0.26277  -0.23962
 Alpha virt. eigenvalues --   -0.02017   0.06590   0.08583   0.10317   0.11619
 Alpha virt. eigenvalues --    0.13059   0.13548   0.14620   0.15157   0.17302
 Alpha virt. eigenvalues --    0.18630   0.19285   0.20121   0.21843   0.22509

 Mulliken charges:
               1
     1  O   -0.484410
     2  C    0.423910
     3  C   -0.260525
     4  C   -0.240203
     5  C   -0.068799
     6  C   -0.343951
     7  C    0.391114
     8  O   -0.304235
     9  C   -0.404925
    10  H    0.271991
    11  H    0.100970
    12  H    0.117809
    13  H    0.108302
    14  H    0.108336
    15  H    0.076319
    16  H    0.128886
    17  H    0.121339
    18  H    0.135048
    19  H    0.123025
 Sum of Mulliken charges =   0.00000

 Dipole moment (field-independent basis, Debye):
    X=             -1.3143    Y=              0.0536    Z=              1.4002  Tot=              1.9211
 Quadrupole moment (field-independent basis, Debye-Ang):
   XX=            -66.1354   YY=            -50.2355   ZZ=            -50.2002
   XY=             -1.8902   XZ=              3.1746   YZ=             -1.8118

  Exact polarizability:  80.402  -0.396  73.011   0.413   0.857  69.340
 Approx polarizability: 116.705   1.887 104.313  -4.702  -0.315 104.931

                      1                      2                      3
                      A                      A                      A
 Frequencies --     48.5518               109.6970               252.7280
 Red. masses --      3.4929                 2.4140                 1.6995
 Frc consts  --      0.0049                 0.0171                 0.0640
 IR Inten    --      5.1437                 0.7306                11.7306

                      4                      5                      6
                      A                      A                      A
 Frequencies --    297.7291               340.0686               363.0392
 Red. masses --      1.3329                 2.4662                 4.0295
 Frc consts  --      0.0696                 0.1680                 0.3129
 IR Inten    --     69.6893                 4.1312                14.5096

                      7                      8                      9
                      A                      A                      A
 Frequencies --    409.8668               435.3947               488.5513
 Red. masses --      2.6556                 2.3903                 3.9705
 Frc consts  --      0.2628                 0.2670                 0.5584
 IR Inten    --      7.5381                 2.6522                 2.2361

                     10                     11                     12
                      A                      A                      A
 Frequencies --    565.3919               606.0430               651.2754
 Red. masses --      4.4103                 3.0338                 3.3335
 Frc consts  --      0.8306                 0.6565                 0.8331
 IR Inten    --      6.8462                 1.7557                 5.2839

                     13                     14                     15
                      A                      A                      A
 Frequencies --    735.9509               769.0508               803.4454
 Red. masses --      1.4915                 2.7729                 2.4618
 Frc consts  --      0.4760                 0.9663                 0.9363
 IR Inten    --      0.3336                 6.7324                 0.9658

                     16                     17                     18
                      A                      A                      A
 Frequencies --    821.2395               875.2968               905.0385
 Red. masses --      1.8389                 2.3003                 2.1374
 Frc consts  --      0.7307                 1.0384                 1.0315
 IR Inten    --      3.0293                 2.4800                 5.1113

                     19                     20                     21
                      A                      A                      A
 Frequencies --    949.9761               965.3066              1023.2157
 Red. masses --      2.2860                 1.7736                 1.7819
 Frc consts  --      1.2155                 0.9737                 1.0992
 IR Inten    --      0.3945                 2.3770                13.2182

                     22                     23                     24
                      A                      A                      A
 Frequencies --   1046.9825              1064.3320              1110.3146
 Red. masses --      1.6199                 1.6181                 2.5879
 Frc consts  --      1.0462                 1.0800                 1.8797
 IR Inten    --      9.8606                10.1339                37.0633

                     25                     26                     27
                      A                      A                      A
 Frequencies --   1131.0648              1149.3847              1182.8087
 Red. masses --      2.4809                 1.8202                 2.4308
 Frc consts  --      1.8700                 1.4168                 2.0037
 IR Inten    --     20.2851                11.8296               107.2357

                     28                     29                     30
                      A                      A                      A
 Frequencies --   1208.3286              1218.8891              1241.9832
 Red. masses --      1.3419                 1.4382                 1.4284
 Frc consts  --      1.1543                 1.2589                 1.2982
 IR Inten    --      4.5601                 2.5686                 6.6289

                     31                     32                     33
                      A                      A                      A
 Frequencies --   1254.7451              1266.6561              1285.9368
 Red. masses --      1.5500                 1.3811                 1.7349
 Frc consts  --      1.4378                 1.3056                 1.6903
 IR Inten    --      5.0084                 1.2701                 1.1325

                     34                     35                     36
                      A                      A                      A
 Frequencies --   1312.7992              1341.3576              1379.1924
 Red. masses --      1.8114                 1.6075                 1.8084
 Frc consts  --      1.8394                 1.7040                 2.0267
 IR Inten    --     64.5596                 6.2170                29.5373

                     37                     38                     39
                      A                      A                      A
 Frequencies --   1439.4021              1453.1287              1479.7818
 Red. masses --      1.0876                 1.0927                 1.0933
 Frc consts  --      1.3277                 1.3595                 1.4105
 IR Inten    --     10.3906                 4.9933                 1.8109

                     40                     41                     42
                      A                      A                      A
 Frequencies --   1501.7358              1846.6029              3018.5693
 Red. masses --      1.1195                12.5519                 1.0678
 Frc consts  --      1.4875                25.2178                 5.7324
 IR Inten    --      3.2666               211.5227                11.6058

                     43                     44                     45
                      A                      A                      A
 Frequencies --   3029.0215              3056.9474              3065.5927
 Red. masses --      1.0685                 1.0616                 1.0606
 Frc consts  --      5.7762                 5.8451                 5.8724
 IR Inten    --     11.9753                25.4257                28.4822

                     46                     47                     48
                      A                      A                      A
 Frequencies --   3097.4072              3099.3190              3100.9296
 Red. masses --      1.0908                 1.0933                 1.0942
 Frc consts  --      6.1660                 6.1877                 6.1992
 IR Inten    --     14.5157                 9.7965                 4.5280

                     49                     50                     51
                      A                      A                      A
 Frequencies --   3112.6621              3128.2249              3800.9791
 Red. masses --      1.1025                 1.1058                 1.0658
 Frc consts  --      6.2937                 6.3758                 9.0725
 IR Inten    --     10.4561                36.2325                10.1417

 - Thermochemistry -
 -------------------
 Temperature   298.150 Kelvin.  Pressure   1.00000 Atm.
 Atom     1 has atomic number  8 and mass  15.99491

 Molecular mass:   126.06808 amu.
 Principal axes and moments of inertia in atomic units:
                           1         2         3
     Eigenvalues --   680.106351253.082601459.08054
           X            0.99952  -0.01807   0.02536
           Y            0.01791   0.99982   0.00625
           Z           -0.02547  -0.00579   0.99966
 This molecule is an asymmetric top.
 Rotational symmetry number  1.
 Warning -- assumption of classical behavior for rotation
           may cause significant error
 Rotational temperatures (Kelvin)      0.12735     0.06912     0.05936
 Rotational constants (GHZ):           2.65362     1.44024     1.23690
 Zero-point vibrational energy     417747.5 (Joules/Mol)
                                   99.84406 (Kcal/Mol)
 Warning -- explicit consideration of  11 degrees of freedom as
           vibrations may cause significant error
 Vibrational temperatures:     69.86   157.83   363.62   428.37   489.28
          (Kelvin)            522.33   589.71   626.44   702.92   813.47
                              871.96   937.04  1058.87  1106.49  1155.98
                             1181.58  1259.36  1302.15  1366.80  1388.86
                             1472.18  1506.37  1531.33  1597.49  1627.35
                             1653.71  1701.80  1738.51  1753.71  1786.93
                             1805.30  1822.43  1850.17  1888.82  1929.91
                             1984.35  2070.98  2090.73  2129.07  2160.66
                             2656.85  4343.04  4358.08  4398.26  4410.70
                             4456.47  4459.22  4461.54  4478.42  4500.81
                             5468.75

 Zero-point correction=                           0.159112 (Hartree/Particle)
 Thermal correction to Energy=                    0.167252
 Thermal correction to Enthalpy=                  0.168196
 Thermal correction to Gibbs Free Energy=         0.126103
 Sum of electronic and zero-point Energies=           -423.049468
 Sum of electronic and thermal Energies=              -423.041327
 Sum of electronic and thermal Enthalpies=            -423.040383
 Sum of electronic and thermal Free Energies=         -423.082476

                     E (Thermal)             CV                S
                      KCal/Mol        Cal/Mol-Kelvin    Cal/Mol-Kelvin
 Total                  104.952             32.017             88.593
 Electronic               0.000              0.000              0.000
 Translational            0.889              2.981             40.409
 Rotational               0.889              2.981             28.610
 Vibrational            103.175             26.055             19.574
 Vibration     1          0.595              1.978              4.876
 Vibration     2          0.606              1.941              3.274
 Vibration     3          0.664              1.758              1.711
 Vibration     4          0.691              1.678              1.430
 Vibration     5          0.720              1.595              1.212
 Vibration     6          0.737              1.548              1.109
 Vibration     7          0.774              1.449              0.927
 Vibration     8          0.796              1.393              0.841
 Vibration     9          0.844              1.275              0.687
 Vibration    10          0.921              1.106              0.513
 Vibration    11          0.965              1.019              0.439

 Normal termination of Gaussian 09 at Mon Jan 27 19:26:58 2020.
