 Gaussian 09, Revision D.01,
 Gaussian 09:  ES64L-G09RevD.01 24-Apr-2013

 -----------------------------
 # b3lyp 6-31G(2df,p) opt Freq
 -----------------------------

 -----
 titel
 -----
 Symbolic Z-matrix:
 Charge =  0 Multiplicity = 1

 SCF Done:  E(RB3LYP) =  -423.159262993     A.U. after   14 cycles
 Optimization completed.
    -- Stationary point found.
 Normal termination of Gaussian 09 at Tue Jan 28 00:01:33 2020.

 ----------------------------------------------------------------------
 #N Geom=AllCheck Guess=TCheck SCRF=Check GenChk RB3LYP/6-31G(2df,p) Fr
 eq
 ----------------------------------------------------------------------

 Structure from the checkpoint file:  "/scratch/puck/g09_759d2c78-0bc6-4dd5-9e60-bb67720e86d5/Gau-104922.chk"
 -----
 titel
 -----
 Charge =  0 Multiplicity = 1

                         Standard orientation:
 ---------------------------------------------------------------------
 Center     Atomic      Atomic             Coordinates (Angstroms)
 Number     Number       Type             X           Y           Z
 ---------------------------------------------------------------------
      1          8           0        2.997818   -0.193772    0.154091
      2          6           0        1.718030   -0.006628   -0.369732
      3          6           0        0.608783   -0.737774    0.304767
      4          8           0       -0.336968   -1.280325   -0.558835
      5          6           0       -1.679547   -1.273775   -0.097353
      6          6           0       -2.149504    0.066469    0.510678
      7          6           0       -1.639564    1.281901   -0.226707
      8          6           0       -0.345890    1.608176   -0.245373
      9          6           0        0.688491    0.780129    0.430083
     10          1           0        3.481819    0.633377    0.058848
     11          1           0        1.643577    0.049899   -1.455546
     12          1           0        0.863381   -1.335786    1.180266
     13          1           0       -2.273369   -1.518117   -0.983446
     14          1           0       -1.836970   -2.074843    0.641658
     15          1           0       -3.243929    0.052067    0.535518
     16          1           0       -1.820103    0.116787    1.554670
     17          1           0       -2.360489    1.904874   -0.749627
     18          1           0       -0.016930    2.506449   -0.764773
     19          1           0        1.071424    1.147080    1.382204
 ---------------------------------------------------------------------

 SCF Done:  E(RB3LYP) =  -423.159262993     A.U. after    1 cycles

 The electronic state is 1-A.
 Alpha  occ. eigenvalues --  -19.14336 -19.14079 -10.23135 -10.22943 -10.22853
 Alpha  occ. eigenvalues --  -10.18813 -10.18586 -10.18194 -10.18106  -1.04044
 Alpha  occ. eigenvalues --   -1.02465  -0.84472  -0.79675  -0.71498  -0.66063
 Alpha  occ. eigenvalues --   -0.60340  -0.56638  -0.54336  -0.52593  -0.48730
 Alpha  occ. eigenvalues --   -0.46660  -0.45442  -0.43858  -0.43060  -0.40787
 Alpha  occ. eigenvalues --   -0.38799  -0.37132  -0.35345  -0.32955  -0.31397
 Alpha  occ. eigenvalues --   -0.28447  -0.27779  -0.24008  -0.23409
 Alpha virt. eigenvalues --    0.01272   0.08004   0.09787   0.10958   0.12349
 Alpha virt. eigenvalues --    0.12905   0.14991   0.15921   0.16480   0.16910
 Alpha virt. eigenvalues --    0.17814   0.18574   0.19952   0.23390   0.24988

 Mulliken charges:
               1
     1  O   -0.428658
     2  C    0.043983
     3  C    0.077120
     4  O   -0.242379
     5  C   -0.056336
     6  C   -0.286773
     7  C   -0.044791
     8  C   -0.070708
     9  C   -0.161007
    10  H    0.286764
    11  H    0.099508
    12  H    0.092822
    13  H    0.110711
    14  H    0.090439
    15  H    0.101461
    16  H    0.118663
    17  H    0.089212
    18  H    0.084178
    19  H    0.095791
 Sum of Mulliken charges =   0.00000

 Dipole moment (field-independent basis, Debye):
    X=             -0.7691    Y=              1.6413    Z=              0.5430  Tot=              1.8922
 Quadrupole moment (field-independent basis, Debye-Ang):
   XX=            -48.8695   YY=            -53.4503   ZZ=            -53.0861
   XY=              6.1144   XZ=             -0.6698   YZ=             -2.1471

  Exact polarizability:  98.685   4.652  73.440   1.289  -4.594  60.390
 Approx polarizability: 138.889   8.156 106.481   1.979  -4.579  94.199

                      1                      2                      3
                      A                      A                      A
 Frequencies --    140.6065               177.5334               228.0224
 Red. masses --      3.6672                 2.1343                 2.6464
 Frc consts  --      0.0427                 0.0396                 0.0811
 IR Inten    --      0.4262                 3.7657                20.2113

                      4                      5                      6
                      A                      A                      A
 Frequencies --    261.6829               303.6430               322.5819
 Red. masses --      2.4692                 4.8019                 1.3775
 Frc consts  --      0.0996                 0.2608                 0.0845
 IR Inten    --      1.2336                 3.6110                81.9425

                      7                      8                      9
                      A                      A                      A
 Frequencies --    363.8405               403.7377               461.8390
 Red. masses --      2.7718                 3.9599                 4.6733
 Frc consts  --      0.2162                 0.3803                 0.5873
 IR Inten    --      4.8344                12.6770                11.3002

                     10                     11                     12
                      A                      A                      A
 Frequencies --    498.7563               623.4522               721.4789
 Red. masses --      3.1229                 2.0442                 1.6773
 Frc consts  --      0.4577                 0.4681                 0.5144
 IR Inten    --      0.0702                 3.8686                12.5184

                     13                     14                     15
                      A                      A                      A
 Frequencies --    784.5951               804.8203               858.1159
 Red. masses --      2.9144                 3.0974                 3.0204
 Frc consts  --      1.0570                 1.1821                 1.3104
 IR Inten    --     27.5332                 3.2939                 4.5805

                     16                     17                     18
                      A                      A                      A
 Frequencies --    899.1681               913.2378               940.5280
 Red. masses --      2.4304                 2.0359                 2.4920
 Frc consts  --      1.1578                 1.0004                 1.2988
 IR Inten    --      1.7239                12.1233                 2.9773

                     19                     20                     21
                      A                      A                      A
 Frequencies --    986.7918              1003.2077              1034.8755
 Red. masses --      1.3572                 2.1475                 1.9579
 Frc consts  --      0.7787                 1.2734                 1.2354
 IR Inten    --      4.2622                 8.0683                11.5103

                     22                     23                     24
                      A                      A                      A
 Frequencies --   1060.7339              1074.1452              1096.9977
 Red. masses --      2.0612                 1.3586                 1.6865
 Frc consts  --      1.3664                 0.9235                 1.1958
 IR Inten    --      4.0865                 0.2960                 2.9604

                     25                     26                     27
                      A                      A                      A
 Frequencies --   1113.6792              1153.3424              1165.4773
 Red. masses --      2.2082                 2.4315                 3.5502
 Frc consts  --      1.6137                 1.9056                 2.8412
 IR Inten    --     16.6423                88.2272               126.7241

                     28                     29                     30
                      A                      A                      A
 Frequencies --   1204.6511              1220.5129              1268.9900
 Red. masses --      1.6257                 1.2253                 1.1941
 Frc consts  --      1.3900                 1.0754                 1.1330
 IR Inten    --      8.9958                 3.8179                 3.2323

                     31                     32                     33
                      A                      A                      A
 Frequencies --   1276.5751              1290.5125              1317.5176
 Red. masses --      1.2465                 1.1850                 1.5279
 Frc consts  --      1.1968                 1.1628                 1.5627
 IR Inten    --     49.1751                39.6852                10.2142

                     34                     35                     36
                      A                      A                      A
 Frequencies --   1333.9278              1361.0955              1406.6430
 Red. masses --      1.3214                 1.2737                 1.4335
 Frc consts  --      1.3853                 1.3902                 1.6712
 IR Inten    --     14.4345                 1.5135                 4.0772

                     37                     38                     39
                      A                      A                      A
 Frequencies --   1422.7609              1477.9984              1484.4183
 Red. masses --      1.4139                 2.3795                 1.0930
 Frc consts  --      1.6863                 3.0625                 1.4190
 IR Inten    --      5.2786                 8.3946                 4.7387

                     40                     41                     42
                      A                      A                      A
 Frequencies --   1507.8053              1706.2438              2983.1578
 Red. masses --      1.1302                 7.0874                 1.0700
 Frc consts  --      1.5139                12.1568                 5.6102
 IR Inten    --      0.6564                 3.6358                75.4028

                     43                     44                     45
                      A                      A                      A
 Frequencies --   3038.2111              3070.1751              3088.1482
 Red. masses --      1.0631                 1.0941                 1.0986
 Frc consts  --      5.7817                 6.0760                 6.1726
 IR Inten    --     26.1689                11.1607                45.6966

                     46                     47                     48
                      A                      A                      A
 Frequencies --   3097.6725              3106.0436              3113.4629
 Red. masses --      1.0862                 1.0900                 1.0850
 Frc consts  --      6.1409                 6.1955                 6.1970
 IR Inten    --     12.6528                 4.1348                44.7314

                     49                     50                     51
                      A                      A                      A
 Frequencies --   3134.7567              3166.9845              3803.9588
 Red. masses --      1.0845                 1.0956                 1.0661
 Frc consts  --      6.2788                 6.4744                 9.0893
 IR Inten    --     12.2879                34.9402                21.8554

 - Thermochemistry -
 -------------------
 Temperature   298.150 Kelvin.  Pressure   1.00000 Atm.
 Atom     1 has atomic number  8 and mass  15.99491

 Molecular mass:   126.06808 amu.
 Principal axes and moments of inertia in atomic units:
                           1         2         3
     Eigenvalues --   559.475041373.540681750.42739
           X            0.99979   0.02007  -0.00474
           Y           -0.02019   0.99940  -0.02821
           Z            0.00417   0.02830   0.99959
 This molecule is an asymmetric top.
 Rotational symmetry number  1.
 Warning -- assumption of classical behavior for rotation
           may cause significant error
 Rotational temperatures (Kelvin)      0.15481     0.06306     0.04948
 Rotational constants (GHZ):           3.22578     1.31393     1.03103
 Zero-point vibrational energy     420362.4 (Joules/Mol)
                                  100.46904 (Kcal/Mol)
 Warning -- explicit consideration of  10 degrees of freedom as
           vibrations may cause significant error
 Vibrational temperatures:    202.30   255.43   328.07   376.50   436.87
          (Kelvin)            464.12   523.48   580.89   664.48   717.60
                              897.01  1038.05  1128.86  1157.96  1234.64
                             1293.70  1313.94  1353.21  1419.77  1443.39
                             1488.95  1526.16  1545.45  1578.33  1602.33
                             1659.40  1676.86  1733.22  1756.04  1825.79
                             1836.70  1856.76  1895.61  1919.22  1958.31
                             2023.84  2047.03  2126.51  2135.74  2169.39
                             2454.90  4292.09  4371.30  4417.29  4443.15
                             4456.85  4468.90  4479.57  4510.21  4556.58
                             5473.04

 Zero-point correction=                           0.160108 (Hartree/Particle)
 Thermal correction to Energy=                    0.168132
 Thermal correction to Enthalpy=                  0.169077
 Thermal correction to Gibbs Free Energy=         0.127938
 Sum of electronic and zero-point Energies=           -422.999155
 Sum of electronic and thermal Energies=              -422.991131
 Sum of electronic and thermal Enthalpies=            -422.990186
 Sum of electronic and thermal Free Energies=         -423.031325

                     E (Thermal)             CV                S
                      KCal/Mol        Cal/Mol-Kelvin    Cal/Mol-Kelvin
 Total                  105.505             31.735             86.583
 Electronic               0.000              0.000              0.000
 Translational            0.889              2.981             40.409
 Rotational               0.889              2.981             28.688
 Vibrational            103.727             25.773             17.486
 Vibration     1          0.615              1.913              2.796
 Vibration     2          0.628              1.870              2.354
 Vibration     3          0.651              1.798              1.894
 Vibration     4          0.669              1.743              1.651
 Vibration     5          0.695              1.667              1.397
 Vibration     6          0.708              1.630              1.297
 Vibration     7          0.737              1.547              1.106
 Vibration     8          0.769              1.462              0.949
 Vibration     9          0.820              1.335              0.761
 Vibration    10          0.854              1.253              0.661

 Optimization completed.
    -- Stationary point found.
 Normal termination of Gaussian 09 at Tue Jan 28 00:42:57 2020.
