 Gaussian 09, Revision D.01,
 Gaussian 09:  ES64L-G09RevD.01 24-Apr-2013

 -----------------------------
 # b3lyp 6-31G(2df,p) opt Freq
 -----------------------------

 -----
 titel
 -----
 Symbolic Z-matrix:
 Charge =  0 Multiplicity = 1

 SCF Done:  E(RB3LYP) =  -423.173300286     A.U. after   14 cycles
 Optimization completed.
    -- Stationary point found.
 Normal termination of Gaussian 09 at Tue Jan 28 09:18:14 2020.

 ----------------------------------------------------------------------
 #N Geom=AllCheck Guess=TCheck SCRF=Check GenChk RB3LYP/6-31G(2df,p) Fr
 eq
 ----------------------------------------------------------------------

 Structure from the checkpoint file:  "/scratch/puck/g09_6340dff5-b2c1-41c5-a905-12395ea55574/Gau-28617.chk"
 -----
 titel
 -----
 Charge =  0 Multiplicity = 1

                         Standard orientation:
 ---------------------------------------------------------------------
 Center     Atomic      Atomic             Coordinates (Angstroms)
 Number     Number       Type             X           Y           Z
 ---------------------------------------------------------------------
      1          6           0        1.135908    2.233431   -0.137837
      2          6           0        0.152634    1.141077   -0.506050
      3          6           0       -0.811971    0.691378    0.597103
      4          6           0       -1.846692   -0.221529    0.016464
      5          8           0       -3.033176   -0.321241    0.153687
      6          6           0       -0.778597   -1.132577   -0.644250
      7          6           0        0.292600   -0.249135    0.026611
      8          6           0        1.496379   -0.816723    0.722168
      9          8           0        2.387421   -1.449252   -0.187924
     10          1           0        1.493893    2.134921    0.890876
     11          1           0        2.008249    2.219683   -0.800731
     12          1           0        0.666054    3.217466   -0.230535
     13          1           0       -0.257352    1.247405   -1.509603
     14          1           0       -0.864487    1.236386    1.532649
     15          1           0       -0.837302   -2.144229   -0.231447
     16          1           0       -0.760314   -1.193383   -1.736049
     17          1           0        2.006620   -0.042301    1.313280
     18          1           0        1.188233   -1.603564    1.419168
     19          1           0        2.680873   -0.783977   -0.818958
 ---------------------------------------------------------------------

 SCF Done:  E(RB3LYP) =  -423.173300286     A.U. after    1 cycles

 The electronic state is 1-A.
 Alpha  occ. eigenvalues --  -19.14439 -19.12754 -10.26821 -10.24162 -10.21962
 Alpha  occ. eigenvalues --  -10.21752 -10.20600 -10.19925 -10.19418  -1.03857
 Alpha  occ. eigenvalues --   -1.02527  -0.91470  -0.76673  -0.71708  -0.69273
 Alpha  occ. eigenvalues --   -0.62824  -0.56674  -0.53486  -0.50627  -0.49314
 Alpha  occ. eigenvalues --   -0.46203  -0.46058  -0.43507  -0.42534  -0.40969
 Alpha  occ. eigenvalues --   -0.40335  -0.38731  -0.37884  -0.35739  -0.34915
 Alpha  occ. eigenvalues --   -0.29762  -0.29117  -0.27118  -0.24065
 Alpha virt. eigenvalues --   -0.00914   0.05288   0.09254   0.09922   0.10222
 Alpha virt. eigenvalues --    0.12275   0.12914   0.14191   0.15726   0.16125
 Alpha virt. eigenvalues --    0.16779   0.17531   0.18161   0.20185   0.21417

 Mulliken charges:
               1
     1  C   -0.434661
     2  C   -0.058537
     3  C   -0.247527
     4  C    0.426415
     5  O   -0.320341
     6  C   -0.416503
     7  C    0.304456
     8  C   -0.177326
     9  O   -0.408852
    10  H    0.127015
    11  H    0.120905
    12  H    0.135023
    13  H    0.094692
    14  H    0.106421
    15  H    0.134786
    16  H    0.119132
    17  H    0.093026
    18  H    0.117940
    19  H    0.283935
 Sum of Mulliken charges =   0.00000

 Dipole moment (field-independent basis, Debye):
    X=              2.9649    Y=              1.9550    Z=             -0.3819  Tot=              3.5719
 Quadrupole moment (field-independent basis, Debye-Ang):
   XX=            -66.5852   YY=            -53.6922   ZZ=            -49.8706
   XY=              3.5963   XZ=             -0.3689   YZ=             -0.5143

  Exact polarizability:  87.950   4.268  78.834  -2.200   1.488  65.055
 Approx polarizability: 130.814   2.422 111.631  -7.284   2.521 101.796

                      1                      2                      3
                      A                      A                      A
 Frequencies --     76.5516               100.9721               160.0699
 Red. masses --      4.3659                 4.2024                 2.1369
 Frc consts  --      0.0151                 0.0252                 0.0323
 IR Inten    --      3.6556                 2.8419                 0.1507

                      4                      5                      6
                      A                      A                      A
 Frequencies --    219.5057               243.3557               257.1029
 Red. masses --      1.5130                 2.6298                 1.9524
 Frc consts  --      0.0430                 0.0918                 0.0760
 IR Inten    --      0.9577                 0.1466                 6.9069

                      7                      8                      9
                      A                      A                      A
 Frequencies --    296.9014               367.3553               394.8586
 Red. masses --      1.2493                 1.8985                 5.3501
 Frc consts  --      0.0649                 0.1509                 0.4915
 IR Inten    --     79.8199                26.8210                 6.4814

                     10                     11                     12
                      A                      A                      A
 Frequencies --    458.7341               492.4707               539.7105
 Red. masses --      2.8259                 3.5204                 2.8007
 Frc consts  --      0.3504                 0.5030                 0.4807
 IR Inten    --      1.3862                 2.5131                 3.0958

                     13                     14                     15
                      A                      A                      A
 Frequencies --    643.3669               713.9525               780.3152
 Red. masses --      3.3669                 3.0470                 3.2947
 Frc consts  --      0.8211                 0.9151                 1.1820
 IR Inten    --      1.5947                 7.7515                21.7011

                     16                     17                     18
                      A                      A                      A
 Frequencies --    841.2178               916.7359               933.4360
 Red. masses --      3.1591                 1.9595                 1.6970
 Frc consts  --      1.3171                 0.9702                 0.8712
 IR Inten    --     14.3129                16.4843                10.1418

                     19                     20                     21
                      A                      A                      A
 Frequencies --    941.7276               976.1885              1028.4026
 Red. masses --      1.7957                 1.8683                 1.6807
 Frc consts  --      0.9383                 1.0490                 1.0473
 IR Inten    --      6.4798                 4.6217                23.8096

                     22                     23                     24
                      A                      A                      A
 Frequencies --   1049.3678              1055.4563              1082.9200
 Red. masses --      3.2339                 1.8760                 2.3999
 Frc consts  --      2.0982                 1.2313                 1.6582
 IR Inten    --     71.0536                10.7635                27.7206

                     25                     26                     27
                      A                      A                      A
 Frequencies --   1110.7197              1125.7451              1145.8791
 Red. masses --      1.4962                 1.9067                 1.5673
 Frc consts  --      1.0876                 1.4237                 1.2125
 IR Inten    --      7.1282                 7.0333                 7.4509

                     28                     29                     30
                      A                      A                      A
 Frequencies --   1188.7757              1206.6797              1223.4934
 Red. masses --      1.6053                 1.5035                 1.9622
 Frc consts  --      1.3366                 1.2899                 1.7306
 IR Inten    --     20.8608                11.2124                 8.2299

                     31                     32                     33
                      A                      A                      A
 Frequencies --   1269.8006              1359.0248              1377.3749
 Red. masses --      1.6768                 1.5828                 1.3280
 Frc consts  --      1.5930                 1.7224                 1.4844
 IR Inten    --     15.6447                 0.4048                 9.2164

                     34                     35                     36
                      A                      A                      A
 Frequencies --   1417.6305              1421.8405              1428.5801
 Red. masses --      1.2479                 1.3445                 2.1948
 Frc consts  --      1.4775                 1.6014                 2.6391
 IR Inten    --      1.8623                44.7634                15.3885

                     37                     38                     39
                      A                      A                      A
 Frequencies --   1459.9684              1491.0166              1500.9931
 Red. masses --      1.2203                 1.0614                 1.1005
 Frc consts  --      1.5325                 1.3902                 1.4608
 IR Inten    --      5.3680                 3.0722                 2.8675

                     40                     41                     42
                      A                      A                      A
 Frequencies --   1508.4914              1880.9186              2998.7211
 Red. masses --      1.0746                12.4005                 1.0675
 Frc consts  --      1.4408                25.8482                 5.6555
 IR Inten    --      5.3787               397.0125                43.6265

                     43                     44                     45
                      A                      A                      A
 Frequencies --   3034.7136              3057.2107              3069.9828
 Red. masses --      1.0371                 1.0584                 1.0946
 Frc consts  --      5.6273                 5.8285                 6.0783
 IR Inten    --     29.2426                14.1850                28.7835

                     46                     47                     48
                      A                      A                      A
 Frequencies --   3095.9785              3101.0892              3111.2895
 Red. masses --      1.0982                 1.0929                 1.1063
 Frc consts  --      6.2019                 6.1926                 6.3096
 IR Inten    --     13.4861                 4.7937                 7.6744

                     49                     50                     51
                      A                      A                      A
 Frequencies --   3118.9264              3186.7981              3815.0040
 Red. masses --      1.0972                 1.0932                 1.0661
 Frc consts  --      6.2885                 6.5410                 9.1423
 IR Inten    --     36.4770                 5.7310                14.8478

 - Thermochemistry -
 -------------------
 Temperature   298.150 Kelvin.  Pressure   1.00000 Atm.
 Atom     1 has atomic number  6 and mass  12.00000

 Molecular mass:   126.06808 amu.
 Principal axes and moments of inertia in atomic units:
                           1         2         3
     Eigenvalues --   737.832451403.489251902.37735
           X            0.99923   0.03856   0.00693
           Y           -0.03858   0.99925   0.00226
           Z           -0.00683  -0.00253   0.99997
 This molecule is an asymmetric top.
 Rotational symmetry number  1.
 Warning -- assumption of classical behavior for rotation
           may cause significant error
 Rotational temperatures (Kelvin)      0.11739     0.06171     0.04553
 Rotational constants (GHZ):           2.44600     1.28590     0.94868
 Zero-point vibrational energy     414370.4 (Joules/Mol)
                                   99.03690 (Kcal/Mol)
 Warning -- explicit consideration of  12 degrees of freedom as
           vibrations may cause significant error
 Vibrational temperatures:    110.14   145.28   230.30   315.82   350.13
          (Kelvin)            369.91   427.17   528.54   568.11   660.02
                              708.55   776.52   925.66  1027.22  1122.70
                             1210.32  1318.98  1343.00  1354.93  1404.52
                             1479.64  1509.80  1518.56  1558.08  1598.08
                             1619.69  1648.66  1710.38  1736.14  1760.33
                             1826.96  1955.33  1981.73  2039.65  2045.71
                             2055.41  2100.57  2145.24  2159.59  2170.38
                             2706.22  4314.49  4366.27  4398.64  4417.02
                             4454.42  4461.77  4476.45  4487.43  4585.09
                             5488.93

 Zero-point correction=                           0.157825 (Hartree/Particle)
 Thermal correction to Energy=                    0.166953
 Thermal correction to Enthalpy=                  0.167897
 Thermal correction to Gibbs Free Energy=         0.123858
 Sum of electronic and zero-point Energies=           -423.015475
 Sum of electronic and thermal Energies=              -423.006348
 Sum of electronic and thermal Enthalpies=            -423.005404
 Sum of electronic and thermal Free Energies=         -423.049443

                     E (Thermal)             CV                S
                      KCal/Mol        Cal/Mol-Kelvin    Cal/Mol-Kelvin
 Total                  104.764             34.057             92.688
 Electronic               0.000              0.000              0.000
 Translational            0.889              2.981             40.409
 Rotational               0.889              2.981             29.067
 Vibrational            102.987             28.095             23.212
 Vibration     1          0.599              1.965              3.977
 Vibration     2          0.604              1.948              3.435
 Vibration     3          0.622              1.891              2.549
 Vibration     4          0.647              1.811              1.963
 Vibration     5          0.659              1.774              1.778
 Vibration     6          0.667              1.751              1.681
 Vibration     7          0.691              1.680              1.434
 Vibration     8          0.740              1.539              1.091
 Vibration     9          0.762              1.481              0.982
 Vibration    10          0.817              1.342              0.770
 Vibration    11          0.848              1.267              0.677
 Vibration    12          0.895              1.162              0.566

 Optimization completed.
    -- Stationary point found.
 Normal termination of Gaussian 09 at Tue Jan 28 10:03:13 2020.
