 Gaussian 09, Revision D.01,
 Gaussian 09:  ES64L-G09RevD.01 24-Apr-2013

 -----------------------------
 # b3lyp 6-31G(2df,p) opt Freq
 -----------------------------

 -----
 titel
 -----
 Symbolic Z-matrix:
 Charge =  0 Multiplicity = 1

 SCF Done:  E(RB3LYP) =  -423.138815222     A.U. after   14 cycles
 Optimization completed.
    -- Stationary point found.
 Normal termination of Gaussian 09 at Tue Jan 28 14:04:24 2020.

 ----------------------------------------------------------------------
 #N Geom=AllCheck Guess=TCheck SCRF=Check GenChk RB3LYP/6-31G(2df,p) Fr
 eq
 ----------------------------------------------------------------------

 Structure from the checkpoint file:  "/scratch/puck/g09_fd9a6370-65da-4187-9ef9-0debee112759/Gau-110866.chk"
 -----
 titel
 -----
 Charge =  0 Multiplicity = 1

                         Standard orientation:
 ---------------------------------------------------------------------
 Center     Atomic      Atomic             Coordinates (Angstroms)
 Number     Number       Type             X           Y           Z
 ---------------------------------------------------------------------
      1          6           0        2.833026   -0.279277   -0.257673
      2          8           0        1.649342    0.415732    0.077753
      3          6           0        0.481264   -0.158861   -0.437144
      4          6           0       -0.255002   -1.259153    0.441890
      5          6           0       -0.673571   -0.080607    1.381715
      6          6           0       -0.782045    0.665700    0.001770
      7          8           0       -0.852254    2.040987   -0.142820
      8          6           0       -1.859428   -0.158205   -0.694832
      9          6           0       -1.513614   -1.419091   -0.409301
     10          1           0        2.949267   -0.369431   -1.347907
     11          1           0        3.671721    0.294916    0.142803
     12          1           0        2.852684   -1.288107    0.178100
     13          1           0        0.584557   -0.386181   -1.507326
     14          1           0        0.255866   -2.145228    0.812927
     15          1           0       -1.593973   -0.201753    1.955970
     16          1           0        0.148132    0.285882    2.001130
     17          1           0       -0.005964    2.397571    0.151607
     18          1           0       -2.659713    0.244587   -1.298325
     19          1           0       -1.963066   -2.349052   -0.726988
 ---------------------------------------------------------------------

 SCF Done:  E(RB3LYP) =  -423.138815222     A.U. after    1 cycles

 The electronic state is 1-A.
 Alpha  occ. eigenvalues --  -19.15127 -19.13852 -10.23790 -10.23205 -10.23152
 Alpha  occ. eigenvalues --  -10.19339 -10.17926 -10.17640 -10.17529  -1.04818
 Alpha  occ. eigenvalues --   -1.02297  -0.88439  -0.73102  -0.69477  -0.66229
 Alpha  occ. eigenvalues --   -0.63620  -0.55500  -0.53288  -0.52439  -0.49903
 Alpha  occ. eigenvalues --   -0.46677  -0.45634  -0.43019  -0.41148  -0.40213
 Alpha  occ. eigenvalues --   -0.38899  -0.36794  -0.35501  -0.34005  -0.32776
 Alpha  occ. eigenvalues --   -0.29435  -0.26700  -0.25502  -0.22639
 Alpha virt. eigenvalues --    0.01398   0.08496   0.09405   0.11894   0.13609
 Alpha virt. eigenvalues --    0.14154   0.15041   0.16111   0.16772   0.17090
 Alpha virt. eigenvalues --    0.17375   0.18534   0.19792   0.20590   0.22524

 Mulliken charges:
               1
     1  C   -0.243858
     2  O   -0.270424
     3  C    0.113426
     4  C   -0.139611
     5  C   -0.278180
     6  C    0.352914
     7  O   -0.497189
     8  C   -0.121436
     9  C   -0.092445
    10  H    0.112296
    11  H    0.129224
    12  H    0.113337
    13  H    0.063849
    14  H    0.065955
    15  H    0.093460
    16  H    0.101731
    17  H    0.288024
    18  H    0.107523
    19  H    0.101404
 Sum of Mulliken charges =   0.00000

 Dipole moment (field-independent basis, Debye):
    X=              1.6805    Y=             -1.3299    Z=             -0.0957  Tot=              2.1452
 Quadrupole moment (field-independent basis, Debye-Ang):
   XX=            -50.2012   YY=            -52.8950   ZZ=            -53.3695
   XY=              1.9068   XZ=              0.0964   YZ=              1.1752

  Exact polarizability:  86.260   1.432  76.548   3.610  -0.100  66.096
 Approx polarizability: 115.326  -1.490 125.038   6.857  -2.621 100.056

                      1                      2                      3
                      A                      A                      A
 Frequencies --     79.1296               146.6554               178.6700
 Red. masses --      2.7299                 2.3826                 1.3086
 Frc consts  --      0.0101                 0.0302                 0.0246
 IR Inten    --      1.9513                 2.0856                 0.2962

                      4                      5                      6
                      A                      A                      A
 Frequencies --    260.5596               300.2187               370.5611
 Red. masses --      3.1704                 2.9283                 1.4194
 Frc consts  --      0.1268                 0.1555                 0.1148
 IR Inten    --      9.2612                 5.3865                56.4129

                      7                      8                      9
                      A                      A                      A
 Frequencies --    390.7087               433.1810               476.1864
 Red. masses --      3.2568                 2.3503                 3.0408
 Frc consts  --      0.2929                 0.2598                 0.4062
 IR Inten    --     36.2581                13.9865                 1.3065

                     10                     11                     12
                      A                      A                      A
 Frequencies --    546.0558               580.7056               661.1434
 Red. masses --      2.9729                 2.8594                 5.1094
 Frc consts  --      0.5223                 0.5681                 1.3159
 IR Inten    --      3.9444                 3.1771                 5.0014

                     13                     14                     15
                      A                      A                      A
 Frequencies --    692.5013               705.0620               853.3508
 Red. masses --      1.9873                 2.2137                 2.8887
 Frc consts  --      0.5615                 0.6484                 1.2394
 IR Inten    --     24.8786                16.7330                 5.2406

                     16                     17                     18
                      A                      A                      A
 Frequencies --    868.5593               909.2681               928.4070
 Red. masses --      3.1129                 1.3472                 1.9443
 Frc consts  --      1.3836                 0.6563                 0.9874
 IR Inten    --      4.0477                 0.5791                 0.9098

                     19                     20                     21
                      A                      A                      A
 Frequencies --    953.4616               981.6081               997.7868
 Red. masses --      2.7015                 3.4058                 3.1276
 Frc consts  --      1.4470                 1.9335                 1.8346
 IR Inten    --      1.8336                 9.0934                16.1568

                     22                     23                     24
                      A                      A                      A
 Frequencies --   1024.9138              1054.2614              1082.6679
 Red. masses --      2.9282                 1.1988                 1.8479
 Frc consts  --      1.8123                 0.7850                 1.2762
 IR Inten    --      6.9326                 7.0092                 1.8669

                     25                     26                     27
                      A                      A                      A
 Frequencies --   1102.9283              1135.0348              1155.5639
 Red. masses --      1.2571                 2.3552                 1.8241
 Frc consts  --      0.9009                 1.7877                 1.4351
 IR Inten    --     10.2778               106.7827                79.6465

                     28                     29                     30
                      A                      A                      A
 Frequencies --   1183.9554              1202.8582              1219.5849
 Red. masses --      1.2987                 1.5647                 1.7621
 Frc consts  --      1.0726                 1.3339                 1.5442
 IR Inten    --      6.7952                 3.5396                68.1284

                     31                     32                     33
                      A                      A                      A
 Frequencies --   1228.9139              1248.4068              1285.8885
 Red. masses --      1.6609                 1.4236                 2.8822
 Frc consts  --      1.4779                 1.3072                 2.8079
 IR Inten    --     59.7365                 0.8495                88.4281

                     34                     35                     36
                      A                      A                      A
 Frequencies --   1314.1364              1373.1253              1408.1192
 Red. masses --      1.5662                 1.3059                 2.0708
 Frc consts  --      1.5936                 1.4508                 2.4192
 IR Inten    --    134.3923                47.6177                 1.3594

                     37                     38                     39
                      A                      A                      A
 Frequencies --   1478.9498              1487.5903              1491.4508
 Red. masses --      1.1390                 1.0704                 1.1407
 Frc consts  --      1.4678                 1.3956                 1.4950
 IR Inten    --      0.8054                12.6623                 2.5928

                     40                     41                     42
                      A                      A                      A
 Frequencies --   1508.2693              1621.2586              2986.5661
 Red. masses --      1.0635                 5.8679                 1.0366
 Frc consts  --      1.4254                 9.0874                 5.4476
 IR Inten    --      6.4619                 3.8830                51.0873

                     43                     44                     45
                      A                      A                      A
 Frequencies --   3014.0305              3039.5841              3068.7701
 Red. masses --      1.0847                 1.1033                 1.0553
 Frc consts  --      5.8057                 6.0060                 5.8555
 IR Inten    --     63.7584                41.9530                33.2248

                     46                     47                     48
                      A                      A                      A
 Frequencies --   3118.2031              3138.8607              3139.9742
 Red. masses --      1.0979                 1.0985                 1.1027
 Frc consts  --      6.2893                 6.3765                 6.4056
 IR Inten    --     28.1259                21.0876                33.4000

                     49                     50                     51
                      A                      A                      A
 Frequencies --   3223.2181              3251.1729              3796.7835
 Red. masses --      1.0871                 1.1093                 1.0655
 Frc consts  --      6.6543                 6.9086                 9.0496
 IR Inten    --      4.3621                 7.2952                30.2148

 - Thermochemistry -
 -------------------
 Temperature   298.150 Kelvin.  Pressure   1.00000 Atm.
 Atom     1 has atomic number  6 and mass  12.00000

 Molecular mass:   126.06808 amu.
 Principal axes and moments of inertia in atomic units:
                           1         2         3
     Eigenvalues --   675.614191188.196191495.77026
           X            0.99998  -0.00172  -0.00669
           Y            0.00180   0.99992   0.01233
           Z            0.00667  -0.01234   0.99990
 This molecule is an asymmetric top.
 Rotational symmetry number  1.
 Warning -- assumption of classical behavior for rotation
           may cause significant error
 Rotational temperatures (Kelvin)      0.12820     0.07290     0.05791
 Rotational constants (GHZ):           2.67126     1.51889     1.20656
 Zero-point vibrational energy     416891.5 (Joules/Mol)
                                   99.63947 (Kcal/Mol)
 Warning -- explicit consideration of  11 degrees of freedom as
           vibrations may cause significant error
 Vibrational temperatures:    113.85   211.00   257.07   374.89   431.95
          (Kelvin)            533.15   562.14   623.25   685.13   785.65
                              835.50   951.24   996.35  1014.43  1227.78
                             1249.66  1308.23  1335.77  1371.82  1412.31
                             1435.59  1474.62  1516.85  1557.72  1586.87
                             1633.06  1662.60  1703.45  1730.64  1754.71
                             1768.13  1796.18  1850.10  1890.75  1975.62
                             2025.97  2127.88  2140.31  2145.86  2170.06
                             2332.63  4297.00  4336.51  4373.28  4415.27
                             4486.39  4516.11  4517.72  4637.49  4677.71
                             5462.72

 Zero-point correction=                           0.158786 (Hartree/Particle)
 Thermal correction to Energy=                    0.167069
 Thermal correction to Enthalpy=                  0.168013
 Thermal correction to Gibbs Free Energy=         0.126057
 Sum of electronic and zero-point Energies=           -422.980030
 Sum of electronic and thermal Energies=              -422.971746
 Sum of electronic and thermal Enthalpies=            -422.970802
 Sum of electronic and thermal Free Energies=         -423.012759

                     E (Thermal)             CV                S
                      KCal/Mol        Cal/Mol-Kelvin    Cal/Mol-Kelvin
 Total                  104.838             32.480             88.306
 Electronic               0.000              0.000              0.000
 Translational            0.889              2.981             40.409
 Rotational               0.889              2.981             28.575
 Vibrational            103.060             26.518             19.322
 Vibration     1          0.600              1.963              3.912
 Vibration     2          0.617              1.906              2.715
 Vibration     3          0.629              1.869              2.342
 Vibration     4          0.669              1.745              1.658
 Vibration     5          0.693              1.673              1.416
 Vibration     6          0.743              1.533              1.077
 Vibration     7          0.758              1.490              0.997
 Vibration     8          0.794              1.398              0.848
 Vibration     9          0.833              1.303              0.720
 Vibration    10          0.901              1.148              0.552
 Vibration    11          0.937              1.073              0.484

 Normal termination of Gaussian 09 at Tue Jan 28 14:47:13 2020.
