 Gaussian 09, Revision D.01,
 Gaussian 09:  ES64L-G09RevD.01 24-Apr-2013

 -----------------------------
 # b3lyp 6-31G(2df,p) opt Freq
 -----------------------------

 -----
 titel
 -----
 Symbolic Z-matrix:
 Charge =  0 Multiplicity = 1

 SCF Done:  E(RB3LYP) =  -423.150258225     A.U. after   13 cycles
 Optimization completed.
    -- Stationary point found.
 Normal termination of Gaussian 09 at Mon Jan 27 12:15:14 2020.

 ----------------------------------------------------------------------
 #N Geom=AllCheck Guess=TCheck SCRF=Check GenChk RB3LYP/6-31G(2df,p) Fr
 eq
 ----------------------------------------------------------------------

 Structure from the checkpoint file:  "/scratch/puck/g09_fc0bda3b-a0ea-4b1a-878d-b50376faded6/Gau-166871.chk"
 -----
 titel
 -----
 Charge =  0 Multiplicity = 1

                         Standard orientation:
 ---------------------------------------------------------------------
 Center     Atomic      Atomic             Coordinates (Angstroms)
 Number     Number       Type             X           Y           Z
 ---------------------------------------------------------------------
      1          6           0        2.403605   -0.720384   -0.000314
      2          6           0        2.087754    0.790845    0.000348
      3          6           0        0.635864    0.322897    0.000071
      4          8           0        0.997095   -1.059836   -0.000612
      5          6           0       -0.518377    0.884295   -0.765243
      6          6           0       -1.614702   -0.090053   -1.162035
      7          8           0       -1.923673   -0.847934   -0.000356
      8          6           0       -1.614482   -0.091258    1.162063
      9          6           0       -0.518289    0.883515    0.766056
     10          1           0        2.911503   -1.100616   -0.893623
     11          1           0        2.911312   -1.101431    0.892760
     12          1           0        2.403849    1.336564    0.891751
     13          1           0        2.403956    1.337358   -0.890529
     14          1           0       -0.388966    1.790757   -1.347932
     15          1           0       -2.492910    0.468533   -1.525775
     16          1           0       -1.311722   -0.801172   -1.937846
     17          1           0       -2.492635    0.466876    1.526604
     18          1           0       -1.311230   -0.803221    1.937007
     19          1           0       -0.388762    1.789369    1.349663
 ---------------------------------------------------------------------

 SCF Done:  E(RB3LYP) =  -423.150258225     A.U. after    1 cycles

 The electronic state is 1-A.
 Alpha  occ. eigenvalues --  -19.13365 -19.12899 -10.24058 -10.23289 -10.22412
 Alpha  occ. eigenvalues --  -10.22410 -10.19378 -10.18914 -10.18892  -1.04442
 Alpha  occ. eigenvalues --   -1.02537  -0.85269  -0.74401  -0.73255  -0.65965
 Alpha  occ. eigenvalues --   -0.61262  -0.57895  -0.52498  -0.50964  -0.48732
 Alpha  occ. eigenvalues --   -0.48500  -0.45273  -0.43706  -0.43397  -0.40142
 Alpha  occ. eigenvalues --   -0.38195  -0.37268  -0.36022  -0.32957  -0.31949
 Alpha  occ. eigenvalues --   -0.30202  -0.28301  -0.24097  -0.22743
 Alpha virt. eigenvalues --    0.06678   0.10395   0.10444   0.11338   0.13414
 Alpha virt. eigenvalues --    0.14005   0.14739   0.14748   0.15277   0.16751
 Alpha virt. eigenvalues --    0.17617   0.18348   0.18971   0.20346   0.20931

 Mulliken charges:
               1
     1  C   -0.067923
     2  C   -0.371224
     3  C    0.482783
     4  O   -0.302199
     5  C   -0.176757
     6  C   -0.081683
     7  O   -0.249325
     8  C   -0.081684
     9  C   -0.176716
    10  H    0.107243
    11  H    0.107241
    12  H    0.114308
    13  H    0.114310
    14  H    0.087932
    15  H    0.088211
    16  H    0.114672
    17  H    0.088216
    18  H    0.114670
    19  H    0.087925
 Sum of Mulliken charges =   0.00000

 Dipole moment (field-independent basis, Debye):
    X=              1.6199    Y=              2.5382    Z=              0.0014  Tot=              3.0111
 Quadrupole moment (field-independent basis, Debye-Ang):
   XX=            -51.0074   YY=            -55.0218   ZZ=            -49.7749
   XY=             -2.1822   XZ=             -0.0006   YZ=             -0.0028

  Exact polarizability:  86.179  -3.378  66.872  -0.001  -0.004  73.572
 Approx polarizability: 108.744  -3.500 102.038   0.000  -0.004 109.278

                      1                      2                      3
                      A                      A                      A
 Frequencies --     79.7817               151.0547               164.9794
 Red. masses --      2.2210                 6.1232                 3.5976
 Frc consts  --      0.0083                 0.0823                 0.0577
 IR Inten    --      1.4229                 0.1806                 1.2696

                      4                      5                      6
                      A                      A                      A
 Frequencies --    199.6525               240.1285               401.3526
 Red. masses --      2.3851                 2.1805                 3.5881
 Frc consts  --      0.0560                 0.0741                 0.3405
 IR Inten    --     10.8929                 0.0209                 0.2035

                      7                      8                      9
                      A                      A                      A
 Frequencies --    508.9648               574.2537               713.7727
 Red. masses --      2.7237                 4.2227                 5.0201
 Frc consts  --      0.4157                 0.8204                 1.5069
 IR Inten    --      0.5654                 3.9313                 1.8558

                     10                     11                     12
                      A                      A                      A
 Frequencies --    739.8588               778.0507               826.1558
 Red. masses --      5.3688                 1.3238                 1.8752
 Frc consts  --      1.7315                 0.4721                 0.7541
 IR Inten    --      9.0406                 0.2817                 1.1991

                     13                     14                     15
                      A                      A                      A
 Frequencies --    832.2049               872.2057               923.3623
 Red. masses --      1.6238                 3.5044                 3.7987
 Frc consts  --      0.6626                 1.5707                 1.9082
 IR Inten    --     12.6327                 3.9322                 9.8300

                     16                     17                     18
                      A                      A                      A
 Frequencies --    954.7522               979.6071               982.9946
 Red. masses --      2.7380                 2.7965                 1.3731
 Frc consts  --      1.4705                 1.5811                 0.7817
 IR Inten    --      9.4124                 3.2499                13.9693

                     19                     20                     21
                      A                      A                      A
 Frequencies --   1009.1115              1011.1347              1025.7276
 Red. masses --      2.8151                 1.5753                 3.6798
 Frc consts  --      1.6890                 0.9489                 2.2811
 IR Inten    --     58.7493                 2.0784                76.6150

                     22                     23                     24
                      A                      A                      A
 Frequencies --   1094.4375              1111.5554              1121.5189
 Red. masses --      2.2546                 1.7345                 5.3017
 Frc consts  --      1.5911                 1.2627                 3.9290
 IR Inten    --     15.9342                 0.4331                64.7283

                     25                     26                     27
                      A                      A                      A
 Frequencies --   1133.6619              1160.6517              1164.7336
 Red. masses --      2.0157                 2.9553                 1.1663
 Frc consts  --      1.5263                 2.3456                 0.9322
 IR Inten    --      8.4642                14.6815                 0.1763

                     28                     29                     30
                      A                      A                      A
 Frequencies --   1213.8049              1226.3670              1229.3431
 Red. masses --      1.1976                 1.7116                 1.1223
 Frc consts  --      1.0396                 1.5167                 0.9993
 IR Inten    --      0.1743                19.3587                12.9539

                     31                     32                     33
                      A                      A                      A
 Frequencies --   1245.6518              1263.9179              1296.0726
 Red. masses --      1.1734                 1.5247                 1.8165
 Frc consts  --      1.0727                 1.4351                 1.7978
 IR Inten    --      0.2432                 7.2387                 8.2107

                     34                     35                     36
                      A                      A                      A
 Frequencies --   1351.3547              1357.8283              1389.9273
 Red. masses --      1.4647                 1.2670                 1.7472
 Frc consts  --      1.5760                 1.3763                 1.9888
 IR Inten    --      6.3035                 0.0095                33.7601

                     37                     38                     39
                      A                      A                      A
 Frequencies --   1463.1148              1490.4955              1509.1381
 Red. masses --      2.5896                 1.1350                 1.0848
 Frc consts  --      3.2662                 1.4857                 1.4556
 IR Inten    --     26.2934                 2.4079                 0.4056

                     40                     41                     42
                      A                      A                      A
 Frequencies --   1520.4834              1532.1162              2963.8109
 Red. masses --      1.0946                 1.1724                 1.0701
 Frc consts  --      1.4910                 1.6214                 5.5385
 IR Inten    --      0.9294                 0.0862                75.1238

                     43                     44                     45
                      A                      A                      A
 Frequencies --   2970.4010              3027.8193              3065.3509
 Red. masses --      1.0725                 1.0551                 1.0901
 Frc consts  --      5.5755                 5.6989                 6.0351
 IR Inten    --    112.0259                82.5941                31.4972

                     46                     47                     48
                      A                      A                      A
 Frequencies --   3068.4218              3070.2399              3070.9846
 Red. masses --      1.0922                 1.1121                 1.0591
 Frc consts  --      6.0588                 6.1765                 5.8849
 IR Inten    --     26.9606                31.0887                29.5352

                     49                     50                     51
                      A                      A                      A
 Frequencies --   3124.2200              3157.2877              3165.7953
 Red. masses --      1.1089                 1.0884                 1.0929
 Frc consts  --      6.3772                 6.3924                 6.4533
 IR Inten    --     24.1887                12.6814                13.3969

 - Thermochemistry -
 -------------------
 Temperature   298.150 Kelvin.  Pressure   1.00000 Atm.
 Atom     1 has atomic number  6 and mass  12.00000

 Molecular mass:   126.06808 amu.
 Principal axes and moments of inertia in atomic units:
                           1         2         3
     Eigenvalues --   511.225141361.306941403.90455
           X            0.99998  -0.00642   0.00000
           Y            0.00642   0.99998  -0.00025
           Z            0.00000   0.00025   1.00000
 This molecule is an asymmetric top.
 Rotational symmetry number  1.
 Warning -- assumption of classical behavior for rotation
           may cause significant error
 Rotational temperatures (Kelvin)      0.16942     0.06363     0.06169
 Rotational constants (GHZ):           3.53023     1.32574     1.28552
 Zero-point vibrational energy     421860.8 (Joules/Mol)
                                  100.82714 (Kcal/Mol)
 Warning -- explicit consideration of   8 degrees of freedom as
           vibrations may cause significant error
 Vibrational temperatures:    114.79   217.33   237.37   287.26   345.49
          (Kelvin)            577.46   732.29   826.22  1026.96  1064.49
                             1119.44  1188.65  1197.36  1254.91  1328.51
                             1373.67  1409.43  1414.31  1451.88  1454.80
                             1475.79  1574.65  1599.28  1613.61  1631.08
                             1669.92  1675.79  1746.39  1764.47  1768.75
                             1792.21  1818.49  1864.76  1944.30  1953.61
                             1999.79  2105.09  2144.49  2171.31  2187.63
                             2204.37  4264.26  4273.74  4356.35  4410.35
                             4414.77  4417.38  4418.46  4495.05  4542.63
                             4554.87

 Zero-point correction=                           0.160678 (Hartree/Particle)
 Thermal correction to Energy=                    0.168341
 Thermal correction to Enthalpy=                  0.169285
 Thermal correction to Gibbs Free Energy=         0.128176
 Sum of electronic and zero-point Energies=           -422.989580
 Sum of electronic and thermal Energies=              -422.981918
 Sum of electronic and thermal Enthalpies=            -422.980973
 Sum of electronic and thermal Free Energies=         -423.022083

                     E (Thermal)             CV                S
                      KCal/Mol        Cal/Mol-Kelvin    Cal/Mol-Kelvin
 Total                  105.635             29.209             86.522
 Electronic               0.000              0.000              0.000
 Translational            0.889              2.981             40.409
 Rotational               0.889              2.981             28.371
 Vibrational            103.858             23.248             17.743
 Vibration     1          0.600              1.963              3.896
 Vibration     2          0.618              1.902              2.659
 Vibration     3          0.623              1.885              2.492
 Vibration     4          0.638              1.840              2.136
 Vibration     5          0.657              1.779              1.802
 Vibration     6          0.767              1.467              0.958
 Vibration     7          0.864              1.230              0.636
 Vibration     8          0.931              1.087              0.496

 Optimization completed.
    -- Stationary point found.
 Normal termination of Gaussian 09 at Mon Jan 27 12:59:16 2020.
