 Gaussian 09, Revision D.01,
 Gaussian 09:  ES64L-G09RevD.01 24-Apr-2013

 -----------------------------
 # b3lyp 6-31G(2df,p) opt Freq
 -----------------------------

 -----
 titel
 -----
 Symbolic Z-matrix:
 Charge =  0 Multiplicity = 1

 SCF Done:  E(RB3LYP) =  -423.206441147     A.U. after   14 cycles
 Optimization completed.
    -- Stationary point found.
 Normal termination of Gaussian 09 at Mon Jan 27 17:21:33 2020.

 ----------------------------------------------------------------------
 #N Geom=AllCheck Guess=TCheck SCRF=Check GenChk RB3LYP/6-31G(2df,p) Fr
 eq
 ----------------------------------------------------------------------

 Structure from the checkpoint file:  "/scratch/puck/g09_d3cbcb84-4e27-4b93-8e04-f967362a8688/Gau-78895.chk"
 -----
 titel
 -----
 Charge =  0 Multiplicity = 1

                         Standard orientation:
 ---------------------------------------------------------------------
 Center     Atomic      Atomic             Coordinates (Angstroms)
 Number     Number       Type             X           Y           Z
 ---------------------------------------------------------------------
      1          8           0       -0.743251    1.774901   -0.432581
      2          6           0        0.131401    0.864549    0.111469
      3          6           0       -0.137891    0.218340    1.416112
      4          6           0       -0.207711   -0.679548    0.171353
      5          6           0        1.048188   -1.447798   -0.199128
      6          6           0        2.197851   -0.410433   -0.102317
      7          6           0        1.558478    0.965212   -0.387724
      8          6           0       -1.527632   -1.028624   -0.340854
      9          8           0       -2.528568   -0.352881   -0.155656
     10          1           0       -1.643950    1.446611   -0.267374
     11          1           0        0.667994    0.021237    2.115952
     12          1           0       -1.099240    0.436721    1.869511
     13          1           0        1.233273   -2.313639    0.446358
     14          1           0        0.952936   -1.824698   -1.224797
     15          1           0        2.626236   -0.423140    0.904755
     16          1           0        3.016067   -0.634597   -0.790635
     17          1           0        2.107181    1.787650    0.082602
     18          1           0        1.514713    1.172185   -1.462378
     19          1           0       -1.576762   -1.934682   -0.981563
 ---------------------------------------------------------------------

 SCF Done:  E(RB3LYP) =  -423.206441147     A.U. after    1 cycles

 The electronic state is 1-A.
 Alpha  occ. eigenvalues --  -19.14387 -19.13681 -10.26968 -10.25801 -10.20277
 Alpha  occ. eigenvalues --  -10.19815 -10.19728 -10.19471 -10.19220  -1.04981
 Alpha  occ. eigenvalues --   -1.02967  -0.88353  -0.77584  -0.73142  -0.66595
 Alpha  occ. eigenvalues --   -0.61769  -0.56871  -0.56028  -0.51825  -0.48472
 Alpha  occ. eigenvalues --   -0.47024  -0.44657  -0.43401  -0.41432  -0.41343
 Alpha  occ. eigenvalues --   -0.39918  -0.37354  -0.36278  -0.35200  -0.34798
 Alpha  occ. eigenvalues --   -0.33969  -0.28864  -0.26318  -0.23624
 Alpha virt. eigenvalues --   -0.02856   0.08128   0.09780   0.11160   0.11901
 Alpha virt. eigenvalues --    0.13374   0.14058   0.14691   0.16278   0.16370
 Alpha virt. eigenvalues --    0.18814   0.19313   0.19623   0.22213   0.23487

 Mulliken charges:
               1
     1  O   -0.470720
     2  C    0.426412
     3  C   -0.389556
     4  C    0.173648
     5  C   -0.301240
     6  C   -0.231558
     7  C   -0.257422
     8  C    0.066068
     9  O   -0.318300
    10  H    0.303023
    11  H    0.119978
    12  H    0.135059
    13  H    0.104500
    14  H    0.107408
    15  H    0.110996
    16  H    0.108453
    17  H    0.112072
    18  H    0.118215
    19  H    0.082964
 Sum of Mulliken charges =   0.00000

 Dipole moment (field-independent basis, Debye):
    X=              2.5724    Y=             -1.5750    Z=              0.5013  Tot=              3.0576
 Quadrupole moment (field-independent basis, Debye-Ang):
   XX=            -57.2677   YY=            -54.7247   ZZ=            -51.6443
   XY=              0.0980   XZ=             -0.4588   YZ=              1.8319

  Exact polarizability:  86.922   2.136  76.479   1.283   3.686  66.036
 Approx polarizability: 126.840   2.291 118.213   3.224   4.405 102.349

                      1                      2                      3
                      A                      A                      A
 Frequencies --    145.3261               209.6688               213.1351
 Red. masses --      4.2867                 3.3181                 2.5054
 Frc consts  --      0.0533                 0.0859                 0.0671
 IR Inten    --      3.0530                10.9211                 2.5865

                      4                      5                      6
                      A                      A                      A
 Frequencies --    228.8946               292.9574               361.3163
 Red. masses --      2.2147                 2.4972                 2.8762
 Frc consts  --      0.0684                 0.1263                 0.2212
 IR Inten    --      2.8895                 8.0765                 5.2614

                      7                      8                      9
                      A                      A                      A
 Frequencies --    414.3380               456.7148               512.7982
 Red. masses --      5.3474                 2.6160                 2.2368
 Frc consts  --      0.5409                 0.3215                 0.3466
 IR Inten    --      4.5976                17.4770                19.9239

                     10                     11                     12
                      A                      A                      A
 Frequencies --    548.2069               572.9549               636.5348
 Red. masses --      1.2798                 3.0877                 3.6422
 Frc consts  --      0.2266                 0.5972                 0.8695
 IR Inten    --     74.4459                 1.7357                44.8642

                     13                     14                     15
                      A                      A                      A
 Frequencies --    666.9970               723.2824               789.6748
 Red. masses --      3.5110                 2.8886                 2.4421
 Frc consts  --      0.9203                 0.8903                 0.8972
 IR Inten    --      4.3271                13.7392                17.8938

                     16                     17                     18
                      A                      A                      A
 Frequencies --    879.2796               898.0942               921.9812
 Red. masses --      2.7480                 1.4947                 1.9531
 Frc consts  --      1.2518                 0.7103                 0.9782
 IR Inten    --     17.5911                 3.3253                24.1124

                     19                     20                     21
                      A                      A                      A
 Frequencies --    938.9310               953.8354              1020.3349
 Red. masses --      1.3650                 1.8579                 1.8895
 Frc consts  --      0.7090                 0.9959                 1.1590
 IR Inten    --      7.6434                 3.5482                 0.3688

                     22                     23                     24
                      A                      A                      A
 Frequencies --   1034.7690              1061.1378              1077.3494
 Red. masses --      1.7563                 1.7714                 1.4251
 Frc consts  --      1.1080                 1.1752                 0.9746
 IR Inten    --     17.8246                20.8463                22.4156

                     25                     26                     27
                      A                      A                      A
 Frequencies --   1117.7778              1187.7601              1194.8397
 Red. masses --      2.0475                 1.4740                 1.5897
 Frc consts  --      1.5072                 1.2252                 1.3371
 IR Inten    --     21.5266                17.0346                74.3495

                     28                     29                     30
                      A                      A                      A
 Frequencies --   1231.3886              1243.0106              1281.2842
 Red. masses --      2.2998                 1.3695                 1.5486
 Frc consts  --      2.0547                 1.2467                 1.4979
 IR Inten    --     24.4481                19.6343                25.1624

                     31                     32                     33
                      A                      A                      A
 Frequencies --   1307.6206              1343.4367              1353.2549
 Red. masses --      2.0337                 1.3330                 1.6296
 Frc consts  --      2.0488                 1.4175                 1.7583
 IR Inten    --      5.7454                 3.7075                45.2477

                     34                     35                     36
                      A                      A                      A
 Frequencies --   1374.1246              1427.3176              1454.9625
 Red. masses --      2.1415                 1.3879                 1.3586
 Frc consts  --      2.3824                 1.6659                 1.6945
 IR Inten    --     49.0974                 6.6373                14.9900

                     37                     38                     39
                      A                      A                      A
 Frequencies --   1470.8643              1492.1644              1494.6454
 Red. masses --      1.7719                 1.1076                 1.0912
 Frc consts  --      2.2586                 1.4530                 1.4362
 IR Inten    --     73.7848                 0.0698                 6.0185

                     40                     41                     42
                      A                      A                      A
 Frequencies --   1513.6510              1743.4175              2903.7430
 Red. masses --      1.1108                 8.7476                 1.0836
 Frc consts  --      1.4995                15.6654                 5.3831
 IR Inten    --      2.0791               181.1376               106.6760

                     43                     44                     45
                      A                      A                      A
 Frequencies --   3028.5630              3047.3390              3052.8000
 Red. masses --      1.0593                 1.0589                 1.0766
 Frc consts  --      5.7243                 5.7935                 5.9116
 IR Inten    --     39.8947                24.6207                 9.4966

                     46                     47                     48
                      A                      A                      A
 Frequencies --   3069.2213              3087.3147              3106.9758
 Red. masses --      1.0941                 1.1004                 1.1026
 Frc consts  --      6.0724                 6.1796                 6.2712
 IR Inten    --     34.6118                19.0311                31.9861

                     49                     50                     51
                      A                      A                      A
 Frequencies --   3125.2666              3218.9190              3648.7641
 Red. masses --      1.0546                 1.1168                 1.0652
 Frc consts  --      6.0687                 6.8180                 8.3558
 IR Inten    --     10.6223                 2.5166                63.3308

 - Thermochemistry -
 -------------------
 Temperature   298.150 Kelvin.  Pressure   1.00000 Atm.
 Atom     1 has atomic number  8 and mass  15.99491

 Molecular mass:   126.06808 amu.
 Principal axes and moments of inertia in atomic units:
                           1         2         3
     Eigenvalues --   659.233271136.547481466.56539
           X            0.99988  -0.01470  -0.00579
           Y            0.01482   0.99963   0.02280
           Z            0.00546  -0.02288   0.99972
 This molecule is an asymmetric top.
 Rotational symmetry number  1.
 Warning -- assumption of classical behavior for rotation
           may cause significant error
 Rotational temperatures (Kelvin)      0.13139     0.07621     0.05906
 Rotational constants (GHZ):           2.73764     1.58792     1.23059
 Zero-point vibrational energy     419165.1 (Joules/Mol)
                                  100.18287 (Kcal/Mol)
 Warning -- explicit consideration of  11 degrees of freedom as
           vibrations may cause significant error
 Vibrational temperatures:    209.09   301.67   306.65   329.33   421.50
          (Kelvin)            519.85   596.14   657.11   737.80   788.75
                              824.35   915.83   959.66  1040.64  1136.16
                             1265.09  1292.16  1326.52  1350.91  1372.35
                             1468.03  1488.80  1526.74  1550.06  1608.23
                             1708.92  1719.11  1771.69  1788.41  1843.48
                             1881.37  1932.90  1947.03  1977.06  2053.59
                             2093.36  2116.24  2146.89  2150.46  2177.80
                             2508.39  4177.83  4357.42  4384.44  4392.29
                             4415.92  4441.95  4470.24  4496.56  4631.30
                             5249.75

 Zero-point correction=                           0.159652 (Hartree/Particle)
 Thermal correction to Energy=                    0.167651
 Thermal correction to Enthalpy=                  0.168595
 Thermal correction to Gibbs Free Energy=         0.127673
 Sum of electronic and zero-point Energies=           -423.046790
 Sum of electronic and thermal Energies=              -423.038790
 Sum of electronic and thermal Enthalpies=            -423.037846
 Sum of electronic and thermal Free Energies=         -423.078768

                     E (Thermal)             CV                S
                      KCal/Mol        Cal/Mol-Kelvin    Cal/Mol-Kelvin
 Total                  105.202             32.031             86.127
 Electronic               0.000              0.000              0.000
 Translational            0.889              2.981             40.409
 Rotational               0.889              2.981             28.487
 Vibrational            103.425             26.070             17.231
 Vibration     1          0.617              1.908              2.733
 Vibration     2          0.642              1.826              2.047
 Vibration     3          0.644              1.821              2.017
 Vibration     4          0.652              1.797              1.888
 Vibration     5          0.688              1.687              1.457
 Vibration     6          0.735              1.552              1.116
 Vibration     7          0.778              1.439              0.911
 Vibration     8          0.815              1.346              0.776
 Vibration     9          0.868              1.222              0.627
 Vibration    10          0.903              1.144              0.548
 Vibration    11          0.929              1.090              0.499

 Optimization completed.
    -- Stationary point found.
 Normal termination of Gaussian 09 at Mon Jan 27 18:15:19 2020.
