 Gaussian 09, Revision D.01,
 Gaussian 09:  ES64L-G09RevD.01 24-Apr-2013

 -----------------------------
 # b3lyp 6-31G(2df,p) opt Freq
 -----------------------------

 -----
 titel
 -----
 Symbolic Z-matrix:
 Charge =  0 Multiplicity = 1

 SCF Done:  E(RB3LYP) =  -423.177656045     A.U. after   14 cycles
 Optimization completed.
    -- Stationary point found.
 Normal termination of Gaussian 09 at Tue Jan 28 13:26:19 2020.

 ----------------------------------------------------------------------
 #N Geom=AllCheck Guess=TCheck SCRF=Check GenChk RB3LYP/6-31G(2df,p) Fr
 eq
 ----------------------------------------------------------------------

 Structure from the checkpoint file:  "/scratch/puck/g09_500d0906-5b4a-40c5-bc4a-8ebdb9f394fc/Gau-159600.chk"
 -----
 titel
 -----
 Charge =  0 Multiplicity = 1

                         Standard orientation:
 ---------------------------------------------------------------------
 Center     Atomic      Atomic             Coordinates (Angstroms)
 Number     Number       Type             X           Y           Z
 ---------------------------------------------------------------------
      1          6           0       -2.594429    0.680737    0.965579
      2          6           0       -2.044194    0.053573   -0.320651
      3          6           0       -0.940962   -0.937835   -0.043423
      4          8           0       -0.128487   -1.342672   -1.145579
      5          6           0        0.493056   -0.581553   -0.130096
      6          6           0        1.689126   -1.010895    0.737679
      7          6           0        2.188571    0.468459    0.747453
      8          6           0        1.087041    0.812866   -0.281687
      9          8           0        0.824718    1.773155   -0.946272
     10          1           0       -2.971738   -0.082566    1.655158
     11          1           0       -1.821906    1.252714    1.489914
     12          1           0       -3.419079    1.362898    0.742062
     13          1           0       -2.847859   -0.468667   -0.855049
     14          1           0       -1.657872    0.825449   -0.992446
     15          1           0       -1.188237   -1.753545    0.640895
     16          1           0        1.442732   -1.441770    1.709362
     17          1           0        2.362112   -1.687030    0.205800
     18          1           0        2.055878    0.993654    1.697544
     19          1           0        3.206863    0.642879    0.392450
 ---------------------------------------------------------------------

 SCF Done:  E(RB3LYP) =  -423.177656045     A.U. after    1 cycles

 The electronic state is 1-A.
 Alpha  occ. eigenvalues --  -19.16521 -19.14458 -10.27345 -10.24964 -10.24758
 Alpha  occ. eigenvalues --  -10.20073 -10.20042 -10.18903 -10.18382  -1.08819
 Alpha  occ. eigenvalues --   -1.05028  -0.84323  -0.78410  -0.67381  -0.65792
 Alpha  occ. eigenvalues --   -0.63953  -0.60023  -0.53005  -0.48856  -0.47987
 Alpha  occ. eigenvalues --   -0.46895  -0.45246  -0.44088  -0.42410  -0.39605
 Alpha  occ. eigenvalues --   -0.38016  -0.37857  -0.37309  -0.35764  -0.35318
 Alpha  occ. eigenvalues --   -0.34880  -0.30091  -0.28376  -0.24356
 Alpha virt. eigenvalues --   -0.03847   0.08192   0.09843   0.11275   0.12167
 Alpha virt. eigenvalues --    0.13059   0.14048   0.14725   0.15702   0.16590
 Alpha virt. eigenvalues --    0.16889   0.18109   0.18613   0.19557   0.21963

 Mulliken charges:
               1
     1  C   -0.384519
     2  C   -0.224367
     3  C   -0.019246
     4  O   -0.279893
     5  C    0.327744
     6  C   -0.340932
     7  C   -0.343662
     8  C    0.341075
     9  O   -0.304770
    10  H    0.116396
    11  H    0.121154
    12  H    0.125144
    13  H    0.110166
    14  H    0.138645
    15  H    0.097095
    16  H    0.116355
    17  H    0.128548
    18  H    0.136137
    19  H    0.138931
 Sum of Mulliken charges =   0.00000

 Dipole moment (field-independent basis, Debye):
    X=             -0.0140    Y=             -1.1663    Z=              2.8174  Tot=              3.0493
 Quadrupole moment (field-independent basis, Debye-Ang):
   XX=            -46.9876   YY=            -58.1224   ZZ=            -55.5264
   XY=             -1.0697   XZ=              1.1006   YZ=              0.3991

  Exact polarizability:  90.925   1.914  73.620   3.932  -2.837  66.306
 Approx polarizability: 117.012   4.716 114.500   5.311  -6.049 104.482

                      1                      2                      3
                      A                      A                      A
 Frequencies --     62.5153                80.1472               136.9135
 Red. masses --      2.7937                 3.3627                 2.4877
 Frc consts  --      0.0064                 0.0127                 0.0275
 IR Inten    --      0.0152                 3.9099                 1.3831

                      4                      5                      6
                      A                      A                      A
 Frequencies --    150.2398               217.1427               240.8569
 Red. masses --      1.9051                 1.3716                 5.1912
 Frc consts  --      0.0253                 0.0381                 0.1774
 IR Inten    --      1.1011                 0.9909                 1.5355

                      7                      8                      9
                      A                      A                      A
 Frequencies --    315.6547               395.1125               448.3455
 Red. masses --      2.9701                 2.7727                 4.0176
 Frc consts  --      0.1744                 0.2550                 0.4758
 IR Inten    --      1.1170                 0.9982                 3.0845

                     10                     11                     12
                      A                      A                      A
 Frequencies --    484.7026               534.7927               633.2598
 Red. masses --      4.5302                 2.1039                 4.6471
 Frc consts  --      0.6271                 0.3545                 1.0980
 IR Inten    --      3.7282                 2.9102                11.3547

                     13                     14                     15
                      A                      A                      A
 Frequencies --    711.9344               757.1190               767.7818
 Red. masses --      3.7296                 1.3781                 1.5855
 Frc consts  --      1.1137                 0.4655                 0.5507
 IR Inten    --      5.0718                 6.0092                 1.9783

                     16                     17                     18
                      A                      A                      A
 Frequencies --    847.3278               886.0766               923.2507
 Red. masses --      1.7437                 3.5299                 2.8461
 Frc consts  --      0.7376                 1.6329                 1.4293
 IR Inten    --     11.1446                16.4159                25.2630

                     19                     20                     21
                      A                      A                      A
 Frequencies --    944.6118               991.2589              1026.4618
 Red. masses --      2.3704                 2.1104                 2.2507
 Frc consts  --      1.2462                 1.2218                 1.3972
 IR Inten    --      2.7786                 9.1902                44.6967

                     22                     23                     24
                      A                      A                      A
 Frequencies --   1045.3713              1057.3590              1094.3746
 Red. masses --      2.0446                 2.5986                 2.0566
 Frc consts  --      1.3164                 1.7117                 1.4512
 IR Inten    --     25.0809                 9.5938                 7.5202

                     25                     26                     27
                      A                      A                      A
 Frequencies --   1119.9051              1163.1812              1169.3240
 Red. masses --      2.3112                 2.0966                 1.5682
 Frc consts  --      1.7078                 1.6713                 1.2633
 IR Inten    --     32.6641                 1.4509                 2.7233

                     28                     29                     30
                      A                      A                      A
 Frequencies --   1211.5714              1223.2849              1243.5551
 Red. masses --      1.2105                 1.6808                 1.4962
 Frc consts  --      1.0469                 1.4819                 1.3632
 IR Inten    --      3.0415                 2.0959                 4.9601

                     31                     32                     33
                      A                      A                      A
 Frequencies --   1287.3609              1333.0643              1360.2494
 Red. masses --      1.1987                 1.3347                 1.7064
 Frc consts  --      1.1704                 1.3975                 1.8603
 IR Inten    --      0.6284                 3.8057                 7.7564

                     34                     35                     36
                      A                      A                      A
 Frequencies --   1412.6416              1438.8778              1471.7396
 Red. masses --      1.2386                 1.1103                 2.0111
 Frc consts  --      1.4563                 1.3544                 2.5665
 IR Inten    --      1.0256                 8.7959                20.3429

                     37                     38                     39
                      A                      A                      A
 Frequencies --   1485.6524              1488.7267              1499.9987
 Red. masses --      1.2401                 1.1103                 1.0395
 Frc consts  --      1.6127                 1.4499                 1.3781
 IR Inten    --      8.5347                 1.6941                 5.6801

                     40                     41                     42
                      A                      A                      A
 Frequencies --   1508.3263              1883.0638              3032.2631
 Red. masses --      1.1502                12.7936                 1.0583
 Frc consts  --      1.5418                26.7283                 5.7332
 IR Inten    --      8.1107               204.1882                12.7372

                     43                     44                     45
                      A                      A                      A
 Frequencies --   3035.5239              3068.7650              3076.8704
 Red. masses --      1.0442                 1.0587                 1.0851
 Frc consts  --      5.6689                 5.8743                 6.0523
 IR Inten    --     29.2597                 9.2735                15.2661

                     46                     47                     48
                      A                      A                      A
 Frequencies --   3078.7847              3089.5383              3110.2269
 Red. masses --      1.0612                 1.0968                 1.1004
 Frc consts  --      5.9269                 6.1685                 6.2719
 IR Inten    --     20.5952                 3.5967                35.1575

                     49                     50                     51
                      A                      A                      A
 Frequencies --   3114.5683              3119.1476              3135.7945
 Red. masses --      1.1003                 1.1061                 1.1071
 Frc consts  --      6.2886                 6.3403                 6.4142
 IR Inten    --     26.4775                 0.9089                15.7528

 - Thermochemistry -
 -------------------
 Temperature   298.150 Kelvin.  Pressure   1.00000 Atm.
 Atom     1 has atomic number  6 and mass  12.00000

 Molecular mass:   126.06808 amu.
 Principal axes and moments of inertia in atomic units:
                           1         2         3
     Eigenvalues --   754.598651413.529121628.61003
           X            0.99937  -0.03545   0.00227
           Y            0.03544   0.99936   0.00479
           Z           -0.00244  -0.00471   0.99999
 This molecule is an asymmetric top.
 Rotational symmetry number  1.
 Warning -- assumption of classical behavior for rotation
           may cause significant error
 Rotational temperatures (Kelvin)      0.11478     0.06127     0.05318
 Rotational constants (GHZ):           2.39166     1.27676     1.10815
 Zero-point vibrational energy     412200.9 (Joules/Mol)
                                   98.51839 (Kcal/Mol)
 Warning -- explicit consideration of  11 degrees of freedom as
           vibrations may cause significant error
 Vibrational temperatures:     89.95   115.31   196.99   216.16   312.42
          (Kelvin)            346.54   454.16   568.48   645.07   697.38
                              769.45   911.12  1024.31  1089.32  1104.67
                             1219.11  1274.86  1328.35  1359.08  1426.20
                             1476.85  1504.05  1521.30  1574.56  1611.29
                             1673.56  1682.39  1743.18  1760.03  1789.20
                             1852.22  1917.98  1957.09  2032.47  2070.22
                             2117.50  2137.52  2141.94  2158.16  2170.14
                             2709.31  4362.74  4367.44  4415.26  4426.92
                             4429.68  4445.15  4474.92  4481.16  4487.75
                             4511.70

 Zero-point correction=                           0.156999 (Hartree/Particle)
 Thermal correction to Energy=                    0.166155
 Thermal correction to Enthalpy=                  0.167099
 Thermal correction to Gibbs Free Energy=         0.122503
 Sum of electronic and zero-point Energies=           -423.020657
 Sum of electronic and thermal Energies=              -423.011501
 Sum of electronic and thermal Enthalpies=            -423.010557
 Sum of electronic and thermal Free Energies=         -423.055153

                     E (Thermal)             CV                S
                      KCal/Mol        Cal/Mol-Kelvin    Cal/Mol-Kelvin
 Total                  104.264             33.422             93.860
 Electronic               0.000              0.000              0.000
 Translational            0.889              2.981             40.409
 Rotational               0.889              2.981             28.942
 Vibrational            102.486             27.460             24.510
 Vibration     1          0.597              1.972              4.376
 Vibration     2          0.600              1.963              3.887
 Vibration     3          0.614              1.916              2.847
 Vibration     4          0.618              1.902              2.669
 Vibration     5          0.646              1.815              1.983
 Vibration     6          0.658              1.778              1.797
 Vibration     7          0.703              1.644              1.333
 Vibration     8          0.762              1.481              0.981
 Vibration     9          0.807              1.365              0.801
 Vibration    10          0.841              1.284              0.697
 Vibration    11          0.890              1.173              0.577

 Normal termination of Gaussian 09 at Tue Jan 28 14:08:21 2020.
