 Gaussian 09, Revision D.01,
 Gaussian 09:  ES64L-G09RevD.01 24-Apr-2013

 -----------------------------
 # b3lyp 6-31G(2df,p) opt Freq
 -----------------------------

 -----
 titel
 -----
 Symbolic Z-matrix:
 Charge =  0 Multiplicity = 1

 SCF Done:  E(RB3LYP) =  -423.163672454     A.U. after   15 cycles
 Optimization completed.
    -- Stationary point found.
 Normal termination of Gaussian 09 at Mon Jan 27 14:11:01 2020.

 ----------------------------------------------------------------------
 #N Geom=AllCheck Guess=TCheck SCRF=Check GenChk RB3LYP/6-31G(2df,p) Fr
 eq
 ----------------------------------------------------------------------

 Structure from the checkpoint file:  "/scratch/puck/g09_d194848c-8135-4f53-afce-2285989a9966/Gau-70755.chk"
 -----
 titel
 -----
 Charge =  0 Multiplicity = 1

                         Standard orientation:
 ---------------------------------------------------------------------
 Center     Atomic      Atomic             Coordinates (Angstroms)
 Number     Number       Type             X           Y           Z
 ---------------------------------------------------------------------
      1          6           0        2.240747   -1.193543   -0.025015
      2          6           0        1.066963   -0.262418    0.337134
      3          6           0        1.389821    1.139255    0.079752
      4          6           0        1.655028    2.289812   -0.146087
      5          6           0       -0.214867   -0.670912   -0.418076
      6          8           0       -0.564491   -1.971664    0.053108
      7          6           0       -1.416898    0.267975   -0.193797
      8          6           0       -1.816470    0.547173    1.240675
      9          8           0       -2.035308    0.693000   -1.141703
     10          1           0        2.501898   -1.087785   -1.082190
     11          1           0        3.123160   -0.944506    0.569347
     12          1           0        1.960978   -2.230905    0.167705
     13          1           0        0.854858   -0.382600    1.407907
     14          1           0        1.885796    3.307232   -0.344826
     15          1           0       -0.017311   -0.674615   -1.497908
     16          1           0       -1.231463   -2.333329   -0.539740
     17          1           0       -2.816969    0.980498    1.265480
     18          1           0       -1.778816   -0.369347    1.835758
     19          1           0       -1.109692    1.260616    1.679703
 ---------------------------------------------------------------------

 SCF Done:  E(RB3LYP) =  -423.163672454     A.U. after    1 cycles

 The electronic state is 1-A.
 Alpha  occ. eigenvalues --  -19.15942 -19.13150 -10.26866 -10.24629 -10.22238
 Alpha  occ. eigenvalues --  -10.18673 -10.18553 -10.18422 -10.17888  -1.04916
 Alpha  occ. eigenvalues --   -1.03135  -0.82465  -0.74894  -0.73206  -0.69384
 Alpha  occ. eigenvalues --   -0.62754  -0.56369  -0.53259  -0.51881  -0.47571
 Alpha  occ. eigenvalues --   -0.46172  -0.45244  -0.43378  -0.42063  -0.40193
 Alpha  occ. eigenvalues --   -0.38605  -0.38545  -0.37354  -0.35140  -0.35079
 Alpha  occ. eigenvalues --   -0.30625  -0.27385  -0.27148  -0.23789
 Alpha virt. eigenvalues --   -0.01964   0.04719   0.04977   0.07132   0.10207
 Alpha virt. eigenvalues --    0.12041   0.12565   0.14110   0.15210   0.16456
 Alpha virt. eigenvalues --    0.17223   0.18088   0.18465   0.20871   0.21555

 Mulliken charges:
               1
     1  C   -0.397539
     2  C   -0.165727
     3  C    0.318561
     4  C   -0.466295
     5  C    0.029050
     6  O   -0.433044
     7  C    0.368120
     8  C   -0.489249
     9  O   -0.304205
    10  H    0.126298
    11  H    0.125593
    12  H    0.137361
    13  H    0.117186
    14  H    0.201425
    15  H    0.094737
    16  H    0.297642
    17  H    0.139244
    18  H    0.145944
    19  H    0.154899
 Sum of Mulliken charges =   0.00000

 Dipole moment (field-independent basis, Debye):
    X=              0.7646    Y=             -0.9719    Z=              1.0220  Tot=              1.6043
 Quadrupole moment (field-independent basis, Debye-Ang):
   XX=            -54.8560   YY=            -49.4045   ZZ=            -54.3167
   XY=              4.5418   XZ=             -3.4139   YZ=              3.5178

  Exact polarizability:  77.643   2.152  88.435  -0.162  -2.560  65.609
 Approx polarizability: 100.779   6.002 137.537   5.035 -12.013 104.240

                      1                      2                      3
                      A                      A                      A
 Frequencies --     44.9849                65.7378               113.3694
 Red. masses --      5.2726                 4.0231                 4.2815
 Frc consts  --      0.0063                 0.0102                 0.0324
 IR Inten    --      5.2789                 0.2546                 0.4405

                      4                      5                      6
                      A                      A                      A
 Frequencies --    165.7073               197.5946               211.6741
 Red. masses --      1.0566                 2.9407                 2.1317
 Frc consts  --      0.0171                 0.0676                 0.0563
 IR Inten    --      0.0552                 1.8339                 1.2712

                      7                      8                      9
                      A                      A                      A
 Frequencies --    226.0577               260.4065               299.5285
 Red. masses --      1.4464                 3.0026                 2.8979
 Frc consts  --      0.0435                 0.1200                 0.1532
 IR Inten    --      1.0000                 5.4012                 6.2645

                     10                     11                     12
                      A                      A                      A
 Frequencies --    327.0082               348.6415               478.9379
 Red. masses --      1.1689                 4.9657                 5.4247
 Frc consts  --      0.0736                 0.3556                 0.7331
 IR Inten    --     93.0785                11.7012                 2.6996

                     13                     14                     15
                      A                      A                      A
 Frequencies --    503.0689               540.8053               557.2172
 Red. masses --      3.6805                 3.9079                 3.7027
 Frc consts  --      0.5488                 0.6734                 0.6774
 IR Inten    --     11.4374                14.7406                 2.6016

                     16                     17                     18
                      A                      A                      A
 Frequencies --    613.9206               638.9177               652.0638
 Red. masses --      2.6603                 1.2151                 1.2355
 Frc consts  --      0.5908                 0.2923                 0.3095
 IR Inten    --      4.2800                40.3984                41.8372

                     19                     20                     21
                      A                      A                      A
 Frequencies --    788.0101               855.3172               942.3582
 Red. masses --      3.1542                 2.4393                 1.7814
 Frc consts  --      1.1540                 1.0514                 0.9321
 IR Inten    --      3.5205                 6.5254                15.7001

                     22                     23                     24
                      A                      A                      A
 Frequencies --    985.8239              1026.8594              1051.9972
 Red. masses --      1.8097                 2.3218                 2.3361
 Frc consts  --      1.0362                 1.4424                 1.5232
 IR Inten    --      7.2142                38.7881                30.7802

                     25                     26                     27
                      A                      A                      A
 Frequencies --   1073.5534              1092.0441              1133.5473
 Red. masses --      3.1507                 2.1968                 1.5638
 Frc consts  --      2.1395                 1.5436                 1.1839
 IR Inten    --     12.1738                 1.6252                 8.2960

                     28                     29                     30
                      A                      A                      A
 Frequencies --   1235.6836              1243.0377              1302.9434
 Red. masses --      1.6242                 2.2674                 1.2973
 Frc consts  --      1.4612                 2.0642                 1.2976
 IR Inten    --     26.1695                44.3628                20.6088

                     31                     32                     33
                      A                      A                      A
 Frequencies --   1326.1279              1335.0041              1372.8212
 Red. masses --      1.2724                 1.5165                 1.3437
 Frc consts  --      1.3184                 1.5924                 1.4921
 IR Inten    --      1.8835                 2.0315                42.2450

                     34                     35                     36
                      A                      A                      A
 Frequencies --   1395.2795              1412.3049              1470.1599
 Red. masses --      1.2608                 1.3074                 1.0501
 Frc consts  --      1.4461                 1.5364                 1.3372
 IR Inten    --      5.3104                 6.0628                 8.7387

                     37                     38                     39
                      A                      A                      A
 Frequencies --   1475.2100              1493.9767              1499.5881
 Red. masses --      1.0525                 1.0456                 1.0493
 Frc consts  --      1.3495                 1.3750                 1.3903
 IR Inten    --      6.8987                 4.9812                 3.6967

                     40                     41                     42
                      A                      A                      A
 Frequencies --   1813.9061              2236.2149              3017.6425
 Red. masses --     10.8391                 5.9243                 1.0809
 Frc consts  --     21.0123                17.4547                 5.7993
 IR Inten    --    138.1777                 0.4246                 0.6287

                     43                     44                     45
                      A                      A                      A
 Frequencies --   3033.7933              3043.1236              3050.1164
 Red. masses --      1.0839                 1.0375                 1.0355
 Frc consts  --      5.8777                 5.6606                 5.6758
 IR Inten    --     28.3323                 2.1038                22.6511

                     46                     47                     48
                      A                      A                      A
 Frequencies --   3112.6738              3122.3675              3142.6115
 Red. masses --      1.0960                 1.1019                 1.1025
 Frc consts  --      6.2565                 6.3293                 6.4149
 IR Inten    --      4.7306                19.5193                11.5248

                     49                     50                     51
                      A                      A                      A
 Frequencies --   3154.6831              3503.2596              3819.5398
 Red. masses --      1.1036                 1.1623                 1.0666
 Frc consts  --      6.4708                 8.4047                 9.1677
 IR Inten    --      8.4261                66.5165                39.9580

 - Thermochemistry -
 -------------------
 Temperature   298.150 Kelvin.  Pressure   1.00000 Atm.
 Atom     1 has atomic number  6 and mass  12.00000

 Molecular mass:   126.06808 amu.
 Principal axes and moments of inertia in atomic units:
                           1         2         3
     Eigenvalues --   928.953311290.841921810.94302
           X            0.99845  -0.04533  -0.03244
           Y            0.04614   0.99863   0.02462
           Z            0.03128  -0.02608   0.99917
 This molecule is an asymmetric top.
 Rotational symmetry number  1.
 Warning -- assumption of classical behavior for rotation
           may cause significant error
 Rotational temperatures (Kelvin)      0.09324     0.06710     0.04783
 Rotational constants (GHZ):           1.94277     1.39811     0.99658
 Zero-point vibrational energy     405577.3 (Joules/Mol)
                                   96.93529 (Kcal/Mol)
 Warning -- explicit consideration of  16 degrees of freedom as
           vibrations may cause significant error
 Vibrational temperatures:     64.72    94.58   163.11   238.42   284.29
          (Kelvin)            304.55   325.25   374.67   430.95   470.49
                              501.62   689.08   723.80   778.10   801.71
                              883.29   919.26   938.17  1133.77  1230.61
                             1355.84  1418.38  1477.42  1513.59  1544.60
                             1571.21  1630.92  1777.87  1788.45  1874.64
                             1908.00  1920.77  1975.18  2007.49  2031.99
                             2115.23  2122.50  2149.50  2157.57  2609.80
                             3217.41  4341.71  4364.95  4378.37  4388.43
                             4478.44  4492.38  4521.51  4538.88  5040.40
                             5495.46

 Zero-point correction=                           0.154476 (Hartree/Particle)
 Thermal correction to Energy=                    0.165296
 Thermal correction to Enthalpy=                  0.166240
 Thermal correction to Gibbs Free Energy=         0.118236
 Sum of electronic and zero-point Energies=           -423.009196
 Sum of electronic and thermal Energies=              -422.998376
 Sum of electronic and thermal Enthalpies=            -422.997432
 Sum of electronic and thermal Free Energies=         -423.045436

                     E (Thermal)             CV                S
                      KCal/Mol        Cal/Mol-Kelvin    Cal/Mol-Kelvin
 Total                  103.725             38.556            101.033
 Electronic               0.000              0.000              0.000
 Translational            0.889              2.981             40.409
 Rotational               0.889              2.981             29.164
 Vibrational            101.947             32.594             31.460
 Vibration     1          0.595              1.979              5.027
 Vibration     2          0.597              1.971              4.277
 Vibration     3          0.607              1.938              3.210
 Vibration     4          0.624              1.885              2.484
 Vibration     5          0.637              1.843              2.155
 Vibration     6          0.643              1.823              2.029
 Vibration     7          0.650              1.801              1.910
 Vibration     8          0.668              1.745              1.659
 Vibration     9          0.692              1.675              1.420
 Vibration    10          0.711              1.622              1.275
 Vibration    11          0.726              1.578              1.172
 Vibration    12          0.835              1.297              0.713
 Vibration    13          0.858              1.243              0.650
 Vibration    14          0.896              1.160              0.564
 Vibration    15          0.913              1.124              0.529
 Vibration    16          0.973              1.002              0.426

 Optimization completed.
    -- Stationary point found.
 Normal termination of Gaussian 09 at Mon Jan 27 14:58:52 2020.
