 Gaussian 09, Revision D.01,
 Gaussian 09:  ES64L-G09RevD.01 24-Apr-2013

 -----------------------------
 # b3lyp 6-31G(2df,p) opt Freq
 -----------------------------

 -----
 titel
 -----
 Symbolic Z-matrix:
 Charge =  0 Multiplicity = 1

 SCF Done:  E(RB3LYP) =  -423.166177768     A.U. after   14 cycles
 Optimization completed.
    -- Stationary point found.
 Normal termination of Gaussian 09 at Mon Jan 27 18:47:09 2020.

 ----------------------------------------------------------------------
 #N Geom=AllCheck Guess=TCheck SCRF=Check GenChk RB3LYP/6-31G(2df,p) Fr
 eq
 ----------------------------------------------------------------------

 Structure from the checkpoint file:  "/scratch/puck/g09_59cb137b-87e5-48aa-965c-67bbcdd6d0e5/Gau-43342.chk"
 -----
 titel
 -----
 Charge =  0 Multiplicity = 1

                         Standard orientation:
 ---------------------------------------------------------------------
 Center     Atomic      Atomic             Coordinates (Angstroms)
 Number     Number       Type             X           Y           Z
 ---------------------------------------------------------------------
      1          6           0        1.233176    1.841917   -0.619587
      2          6           0        0.932254    0.505370    0.002216
      3          6           0        2.079697   -0.495552    0.303737
      4          6           0        1.235348   -1.647183   -0.327243
      5          6           0        0.079340   -0.654997   -0.610822
      6          6           0       -0.848336   -0.403536    0.584460
      7          8           0        0.017856    0.613750    1.134655
      8          6           0       -2.209677    0.187832    0.271421
      9          8           0       -2.897156   -0.144489   -0.659042
     10          1           0        0.312576    2.357347   -0.909174
     11          1           0        1.768942    2.477497    0.094806
     12          1           0        1.862167    1.723149   -1.507413
     13          1           0        3.007139   -0.283086   -0.234567
     14          1           0        2.301719   -0.584644    1.369014
     15          1           0        1.678141   -2.052438   -1.239569
     16          1           0        0.985598   -2.484038    0.330192
     17          1           0       -0.385447   -0.642586   -1.595415
     18          1           0       -0.989008   -1.251166    1.274470
     19          1           0       -2.518236    0.982753    0.987652
 ---------------------------------------------------------------------

 SCF Done:  E(RB3LYP) =  -423.166177768     A.U. after    1 cycles

 The electronic state is 1-A.
 Alpha  occ. eigenvalues --  -19.14675 -19.14281 -10.27269 -10.24468 -10.24456
 Alpha  occ. eigenvalues --  -10.19593 -10.19191 -10.18566 -10.18349  -1.05767
 Alpha  occ. eigenvalues --   -1.04399  -0.83174  -0.75910  -0.71771  -0.66185
 Alpha  occ. eigenvalues --   -0.62685  -0.57311  -0.51956  -0.50596  -0.48634
 Alpha  occ. eigenvalues --   -0.47904  -0.45070  -0.43490  -0.42109  -0.41651
 Alpha  occ. eigenvalues --   -0.39358  -0.38087  -0.37621  -0.34315  -0.33382
 Alpha  occ. eigenvalues --   -0.31023  -0.28601  -0.27981  -0.24027
 Alpha virt. eigenvalues --   -0.03049   0.06791   0.09151   0.10028   0.11771
 Alpha virt. eigenvalues --    0.11969   0.13409   0.14685   0.15079   0.16550
 Alpha virt. eigenvalues --    0.16826   0.17667   0.19006   0.21395   0.21615

 Mulliken charges:
               1
     1  C   -0.472705
     2  C    0.453276
     3  C   -0.271810
     4  C   -0.243885
     5  C   -0.132153
     6  C    0.033549
     7  O   -0.344448
     8  C    0.129422
     9  O   -0.241783
    10  H    0.125261
    11  H    0.131444
    12  H    0.120612
    13  H    0.103235
    14  H    0.112230
    15  H    0.109367
    16  H    0.103822
    17  H    0.094905
    18  H    0.099171
    19  H    0.090491
 Sum of Mulliken charges =   0.00000

 Dipole moment (field-independent basis, Debye):
    X=              2.1781    Y=             -0.3410    Z=              0.1310  Tot=              2.2086
 Quadrupole moment (field-independent basis, Debye-Ang):
   XX=            -58.0131   YY=            -51.9274   ZZ=            -54.3577
   XY=             -0.5389   XZ=             -5.3545   YZ=             -2.0092

  Exact polarizability:  86.156  -0.831  74.126  -0.176   1.366  66.660
 Approx polarizability: 115.024   2.228 103.524   4.511   5.873 107.869

                      1                      2                      3
                      A                      A                      A
 Frequencies --     44.0004                86.4554               172.0036
 Red. masses --      4.6759                 2.4817                 4.2790
 Frc consts  --      0.0053                 0.0109                 0.0746
 IR Inten    --      4.7807                 5.1846                 6.7309

                      4                      5                      6
                      A                      A                      A
 Frequencies --    199.0268               215.3885               309.5149
 Red. masses --      1.9670                 1.0971                 2.4954
 Frc consts  --      0.0459                 0.0300                 0.1408
 IR Inten    --      1.1264                 0.7190                 1.3865

                      7                      8                      9
                      A                      A                      A
 Frequencies --    324.3970               381.3984               438.2830
 Red. masses --      2.4710                 3.3909                 2.9394
 Frc consts  --      0.1532                 0.2906                 0.3327
 IR Inten    --      0.1036                 2.7756                10.2609

                     10                     11                     12
                      A                      A                      A
 Frequencies --    567.1969               657.0791               691.3366
 Red. masses --      4.5133                 4.1674                 4.1149
 Frc consts  --      0.8555                 1.0601                 1.1588
 IR Inten    --      7.3999                 3.0928                 2.3151

                     13                     14                     15
                      A                      A                      A
 Frequencies --    728.9711               790.5284               843.6574
 Red. masses --      1.3189                 2.1624                 1.9007
 Frc consts  --      0.4129                 0.7962                 0.7971
 IR Inten    --      1.5187                12.7382                12.6387

                     16                     17                     18
                      A                      A                      A
 Frequencies --    905.5974               917.1147               932.8948
 Red. masses --      2.7992                 2.0256                 1.9391
 Frc consts  --      1.3525                 1.0038                 0.9943
 IR Inten    --      3.6045                20.3706                 2.4081

                     19                     20                     21
                      A                      A                      A
 Frequencies --    959.6404               991.2840              1013.2604
 Red. masses --      2.2271                 1.9462                 3.1600
 Frc consts  --      1.2084                 1.1268                 1.9115
 IR Inten    --      2.3668                22.6705                29.7034

                     22                     23                     24
                      A                      A                      A
 Frequencies --   1040.4511              1065.1017              1115.9685
 Red. masses --      2.3910                 1.7388                 1.7760
 Frc consts  --      1.5250                 1.1622                 1.3032
 IR Inten    --     40.5785                 8.5113                 0.2292

                     25                     26                     27
                      A                      A                      A
 Frequencies --   1155.0685              1161.2303              1195.6141
 Red. masses --      1.9205                 1.9876                 2.2953
 Frc consts  --      1.5097                 1.5791                 1.9332
 IR Inten    --      0.7806                12.0546                23.4387

                     28                     29                     30
                      A                      A                      A
 Frequencies --   1219.9473              1236.3795              1248.1832
 Red. masses --      1.4442                 1.3181                 1.6034
 Frc consts  --      1.2664                 1.1871                 1.4718
 IR Inten    --      2.0923                 6.1640                 2.3183

                     31                     32                     33
                      A                      A                      A
 Frequencies --   1271.6253              1292.2909              1319.3764
 Red. masses --      1.7290                 1.4231                 1.9835
 Frc consts  --      1.6473                 1.4003                 2.0343
 IR Inten    --      4.8995                 6.5530                22.4791

                     34                     35                     36
                      A                      A                      A
 Frequencies --   1363.0103              1398.0840              1411.2627
 Red. masses --      1.9729                 1.2336                 1.3958
 Frc consts  --      2.1595                 1.4206                 1.6379
 IR Inten    --      0.7999                 7.0422                10.7617

                     37                     38                     39
                      A                      A                      A
 Frequencies --   1465.2111              1481.0123              1487.8775
 Red. masses --      1.0889                 1.0545                 1.0543
 Frc consts  --      1.3773                 1.3627                 1.3752
 IR Inten    --      1.6553                 2.2881                 3.0375

                     40                     41                     42
                      A                      A                      A
 Frequencies --   1488.9408              1830.5515              2884.2143
 Red. masses --      1.1080                10.8316                 1.0839
 Frc consts  --      1.4473                21.3849                 5.3122
 IR Inten    --      1.9670               142.1553                98.1764

                     43                     44                     45
                      A                      A                      A
 Frequencies --   2976.3647              3032.0448              3060.0887
 Red. masses --      1.0821                 1.0356                 1.0580
 Frc consts  --      5.6478                 5.6091                 5.8371
 IR Inten    --     41.5976                14.2145                37.4980

                     46                     47                     48
                      A                      A                      A
 Frequencies --   3066.1563              3100.9737              3106.6007
 Red. masses --      1.0616                 1.1000                 1.1067
 Frc consts  --      5.8804                 6.2324                 6.2932
 IR Inten    --     30.8762                12.6546                 4.3456

                     49                     50                     51
                      A                      A                      A
 Frequencies --   3113.2856              3126.7497              3131.4381
 Red. masses --      1.1020                 1.1027                 1.0939
 Frc consts  --      6.2933                 6.3515                 6.3197
 IR Inten    --     15.9246                14.3793                29.0444

 - Thermochemistry -
 -------------------
 Temperature   298.150 Kelvin.  Pressure   1.00000 Atm.
 Atom     1 has atomic number  6 and mass  12.00000

 Molecular mass:   126.06808 amu.
 Principal axes and moments of inertia in atomic units:
                           1         2         3
     Eigenvalues --   634.210151386.505821623.22107
           X            0.99980  -0.00464  -0.01937
           Y            0.00374   0.99891  -0.04643
           Z            0.01956   0.04635   0.99873
 This molecule is an asymmetric top.
 Rotational symmetry number  1.
 Warning -- assumption of classical behavior for rotation
           may cause significant error
 Rotational temperatures (Kelvin)      0.13657     0.06247     0.05336
 Rotational constants (GHZ):           2.84565     1.30165     1.11183
 Zero-point vibrational energy     412796.2 (Joules/Mol)
                                   98.66066 (Kcal/Mol)
 Warning -- explicit consideration of  10 degrees of freedom as
           vibrations may cause significant error
 Vibrational temperatures:     63.31   124.39   247.47   286.35   309.90
          (Kelvin)            445.32   466.73   548.75   630.59   816.07
                              945.39   994.68  1048.83  1137.39  1213.83
                             1302.95  1319.52  1342.23  1380.71  1426.23
                             1457.85  1496.98  1532.44  1605.63  1661.88
                             1670.75  1720.22  1755.23  1778.87  1795.85
                             1829.58  1859.32  1898.29  1961.07  2011.53
                             2030.49  2108.11  2130.84  2140.72  2142.25
                             2633.75  4149.74  4282.32  4362.43  4402.78
                             4411.51  4461.60  4469.70  4479.32  4498.69
                             4505.44

 Zero-point correction=                           0.157226 (Hartree/Particle)
 Thermal correction to Energy=                    0.165980
 Thermal correction to Enthalpy=                  0.166924
 Thermal correction to Gibbs Free Energy=         0.123105
 Sum of electronic and zero-point Energies=           -423.008952
 Sum of electronic and thermal Energies=              -423.000198
 Sum of electronic and thermal Enthalpies=            -422.999254
 Sum of electronic and thermal Free Energies=         -423.043072

                     E (Thermal)             CV                S
                      KCal/Mol        Cal/Mol-Kelvin    Cal/Mol-Kelvin
 Total                  104.154             32.363             92.224
 Electronic               0.000              0.000              0.000
 Translational            0.889              2.981             40.409
 Rotational               0.889              2.981             28.747
 Vibrational            102.376             26.402             23.068
 Vibration     1          0.595              1.980              5.070
 Vibration     2          0.601              1.959              3.739
 Vibration     3          0.626              1.877              2.413
 Vibration     4          0.637              1.841              2.142
 Vibration     5          0.645              1.818              1.998
 Vibration     6          0.699              1.656              1.365
 Vibration     7          0.709              1.627              1.288
 Vibration     8          0.751              1.510              1.034
 Vibration     9          0.798              1.387              0.832
 Vibration    10          0.923              1.102              0.510

 Optimization completed.
    -- Stationary point found.
 Normal termination of Gaussian 09 at Mon Jan 27 19:48:43 2020.
