 Gaussian 09, Revision D.01,
 Gaussian 09:  ES64L-G09RevD.01 24-Apr-2013

 -----------------------------
 # b3lyp 6-31G(2df,p) opt Freq
 -----------------------------

 -----
 titel
 -----
 Symbolic Z-matrix:
 Charge =  0 Multiplicity = 1

 SCF Done:  E(RB3LYP) =  -423.211656124     A.U. after   14 cycles
 Optimization completed.
    -- Stationary point found.
 Normal termination of Gaussian 09 at Mon Jan 27 17:25:11 2020.

 ----------------------------------------------------------------------
 #N Geom=AllCheck Guess=TCheck SCRF=Check GenChk RB3LYP/6-31G(2df,p) Fr
 eq
 ----------------------------------------------------------------------

 Structure from the checkpoint file:  "/scratch/puck/g09_a04a89ac-31c6-42fc-8ab2-a45eddf6c474/Gau-60208.chk"
 -----
 titel
 -----
 Charge =  0 Multiplicity = 1

                         Standard orientation:
 ---------------------------------------------------------------------
 Center     Atomic      Atomic             Coordinates (Angstroms)
 Number     Number       Type             X           Y           Z
 ---------------------------------------------------------------------
      1          6           0       -2.522863   -0.513586   -0.515433
      2          6           0       -1.163712   -0.088154   -0.009093
      3          6           0       -0.853903    1.406744   -0.061078
      4          6           0        0.624560    1.748306   -0.315230
      5          6           0        1.592543    0.805225    0.428399
      6          6           0        1.371027   -0.607085   -0.076254
      7          8           0        2.233799   -1.301711   -0.563774
      8          6           0       -0.052393   -1.080041    0.004319
      9          8           0       -0.753989   -0.719592    1.206015
     10          1           0       -3.311785    0.039038    0.006936
     11          1           0       -2.620829   -0.307144   -1.586134
     12          1           0       -2.682094   -1.580902   -0.345239
     13          1           0       -1.474051    1.876727   -0.831556
     14          1           0       -1.179184    1.826636    0.898846
     15          1           0        0.833457    1.680872   -1.390091
     16          1           0        0.819585    2.785983   -0.027174
     17          1           0        2.635551    1.076786    0.253608
     18          1           0        1.391544    0.837264    1.505328
     19          1           0       -0.222227   -2.093286   -0.356231
 ---------------------------------------------------------------------

 SCF Done:  E(RB3LYP) =  -423.211656124     A.U. after    1 cycles

 The electronic state is 1-A.
 Alpha  occ. eigenvalues --  -19.16294 -19.13037 -10.26770 -10.25856 -10.24147
 Alpha  occ. eigenvalues --  -10.20078 -10.19881 -10.19201 -10.19089  -1.08499
 Alpha  occ. eigenvalues --   -1.03877  -0.81796  -0.76787  -0.71967  -0.68831
 Alpha  occ. eigenvalues --   -0.62976  -0.58382  -0.53271  -0.49269  -0.48386
 Alpha  occ. eigenvalues --   -0.46721  -0.44219  -0.43338  -0.42346  -0.40724
 Alpha  occ. eigenvalues --   -0.40593  -0.38828  -0.38003  -0.36548  -0.34596
 Alpha  occ. eigenvalues --   -0.33888  -0.29913  -0.28257  -0.24153
 Alpha virt. eigenvalues --   -0.02476   0.07661   0.09499   0.11176   0.12617
 Alpha virt. eigenvalues --    0.13228   0.14009   0.14738   0.15473   0.16099
 Alpha virt. eigenvalues --    0.16871   0.18296   0.19002   0.19542   0.21236

 Mulliken charges:
               1
     1  C   -0.466644
     2  C    0.389348
     3  C   -0.263542
     4  C   -0.221729
     5  C   -0.312818
     6  C    0.400998
     7  O   -0.318082
     8  C   -0.122450
     9  O   -0.277796
    10  H    0.130752
    11  H    0.127151
    12  H    0.133930
    13  H    0.106142
    14  H    0.120343
    15  H    0.113739
    16  H    0.108862
    17  H    0.119393
    18  H    0.132068
    19  H    0.100335
 Sum of Mulliken charges =   0.00000

 Dipole moment (field-independent basis, Debye):
    X=             -2.2657    Y=              2.3019    Z=             -0.6081  Tot=              3.2866
 Quadrupole moment (field-independent basis, Debye-Ang):
   XX=            -56.4732   YY=            -52.8514   ZZ=            -54.8503
   XY=              4.3299   XZ=              4.0677   YZ=              0.2054

  Exact polarizability:  88.823  -3.171  77.636  -0.283   2.665  60.671
 Approx polarizability: 122.285 -13.572 111.788  -7.218   5.329 101.968

                      1                      2                      3
                      A                      A                      A
 Frequencies --     96.4033               152.6074               201.8740
 Red. masses --      3.6917                 2.9077                 2.0509
 Frc consts  --      0.0202                 0.0399                 0.0492
 IR Inten    --      3.2828                 1.3160                 0.4868

                      4                      5                      6
                      A                      A                      A
 Frequencies --    225.5871               307.4535               358.6997
 Red. masses --      1.1649                 2.5199                 3.4224
 Frc consts  --      0.0349                 0.1403                 0.2594
 IR Inten    --      0.3851                 0.3198                 6.5635

                      7                      8                      9
                      A                      A                      A
 Frequencies --    385.0328               427.2617               476.8156
 Red. masses --      4.0437                 2.4130                 4.3126
 Frc consts  --      0.3532                 0.2595                 0.5777
 IR Inten    --      5.3398                 3.2719                 4.5899

                     10                     11                     12
                      A                      A                      A
 Frequencies --    511.8479               542.3417               666.9507
 Red. masses --      4.7307                 2.4275                 4.9620
 Frc consts  --      0.7302                 0.4207                 1.3005
 IR Inten    --     13.6787                 2.9526                 4.8837

                     13                     14                     15
                      A                      A                      A
 Frequencies --    738.9679               765.7835               831.2815
 Red. masses --      2.3864                 3.0321                 3.3704
 Frc consts  --      0.7678                 1.0476                 1.3722
 IR Inten    --      0.4874                10.0741                18.5199

                     16                     17                     18
                      A                      A                      A
 Frequencies --    870.3467               885.2923               911.5988
 Red. masses --      2.4306                 1.7597                 2.7442
 Frc consts  --      1.0848                 0.8126                 1.3436
 IR Inten    --      0.6812                 5.4680                 3.7434

                     19                     20                     21
                      A                      A                      A
 Frequencies --    969.3644              1030.5337              1037.0415
 Red. masses --      2.1027                 1.8358                 1.8925
 Frc consts  --      1.1641                 1.1487                 1.1991
 IR Inten    --      3.5464                 1.2750                10.0463

                     22                     23                     24
                      A                      A                      A
 Frequencies --   1055.7466              1086.4881              1108.2299
 Red. masses --      1.8445                 1.5617                 1.8423
 Frc consts  --      1.2113                 1.0862                 1.3331
 IR Inten    --      0.6674                 3.0342                 8.2651

                     25                     26                     27
                      A                      A                      A
 Frequencies --   1158.6222              1203.0827              1217.8415
 Red. masses --      1.5153                 1.4923                 2.2623
 Frc consts  --      1.1985                 1.2726                 1.9769
 IR Inten    --     14.8011                 6.9352                 0.7108

                     28                     29                     30
                      A                      A                      A
 Frequencies --   1264.6974              1287.4060              1300.3287
 Red. masses --      1.4862                 1.3311                 1.8733
 Frc consts  --      1.4006                 1.2999                 1.8662
 IR Inten    --     31.2728                 3.4279                14.1392

                     31                     32                     33
                      A                      A                      A
 Frequencies --   1344.7090              1370.3826              1385.0998
 Red. masses --      1.5066                 1.4916                 1.5877
 Frc consts  --      1.6051                 1.6504                 1.7947
 IR Inten    --     12.6826                 3.5398                 5.4935

                     34                     35                     36
                      A                      A                      A
 Frequencies --   1410.1725              1429.0060              1465.9704
 Red. masses --      1.2905                 2.8197                 1.1095
 Frc consts  --      1.5120                 3.3926                 1.4048
 IR Inten    --      3.3023                31.9110                 5.9206

                     37                     38                     39
                      A                      A                      A
 Frequencies --   1478.9426              1485.2108              1496.0436
 Red. masses --      1.0780                 1.0695                 1.1180
 Frc consts  --      1.3893                 1.3900                 1.4743
 IR Inten    --      2.9247                 4.4484                 3.0990

                     40                     41                     42
                      A                      A                      A
 Frequencies --   1500.7931              1811.0059              3030.6886
 Red. masses --      1.0901                11.4199                 1.0670
 Frc consts  --      1.4466                22.0674                 5.7745
 IR Inten    --      2.8992               202.8575                18.9212

                     43                     44                     45
                      A                      A                      A
 Frequencies --   3031.7218              3036.6302              3049.6569
 Red. masses --      1.0558                 1.0420                 1.0616
 Frc consts  --      5.7175                 5.6611                 5.8170
 IR Inten    --      8.5341                28.1507                 9.5119

                     46                     47                     48
                      A                      A                      A
 Frequencies --   3073.9031              3084.6779              3100.2332
 Red. masses --      1.0952                 1.1022                 1.1003
 Frc consts  --      6.0972                 6.1793                 6.2309
 IR Inten    --     19.8451                29.6874                16.6076

                     49                     50                     51
                      A                      A                      A
 Frequencies --   3120.0253              3127.9035              3134.5870
 Red. masses --      1.1012                 1.1011                 1.0901
 Frc consts  --      6.3161                 6.3471                 6.3107
 IR Inten    --     14.0958                 9.9770                21.4545

 - Thermochemistry -
 -------------------
 Temperature   298.150 Kelvin.  Pressure   1.00000 Atm.
 Atom     1 has atomic number  6 and mass  12.00000

 Molecular mass:   126.06808 amu.
 Principal axes and moments of inertia in atomic units:
                           1         2         3
     Eigenvalues --   694.349401181.896611566.25208
           X            0.99798   0.05666   0.02868
           Y           -0.05697   0.99832   0.01024
           Z           -0.02805  -0.01185   0.99954
 This molecule is an asymmetric top.
 Rotational symmetry number  1.
 Warning -- assumption of classical behavior for rotation
           may cause significant error
 Rotational temperatures (Kelvin)      0.12474     0.07328     0.05530
 Rotational constants (GHZ):           2.59918     1.52699     1.15227
 Zero-point vibrational energy     418949.5 (Joules/Mol)
                                  100.13134 (Kcal/Mol)
 Warning -- explicit consideration of  11 degrees of freedom as
           vibrations may cause significant error
 Vibrational temperatures:    138.70   219.57   290.45   324.57   442.36
          (Kelvin)            516.09   553.98   614.73   686.03   736.43
                              780.31   959.59  1063.21  1101.79  1196.03
                             1252.23  1273.74  1311.59  1394.70  1482.71
                             1492.07  1518.98  1563.21  1594.49  1667.00
                             1730.97  1752.20  1819.62  1852.29  1870.88
                             1934.73  1971.67  1992.85  2028.92  2056.02
                             2109.20  2127.87  2136.88  2152.47  2159.30
                             2605.63  4360.48  4361.97  4369.03  4387.77
                             4422.66  4438.16  4460.54  4489.01  4500.35
                             4509.97

 Zero-point correction=                           0.159569 (Hartree/Particle)
 Thermal correction to Energy=                    0.167778
 Thermal correction to Enthalpy=                  0.168722
 Thermal correction to Gibbs Free Energy=         0.126976
 Sum of electronic and zero-point Energies=           -423.052087
 Sum of electronic and thermal Energies=              -423.043878
 Sum of electronic and thermal Enthalpies=            -423.042934
 Sum of electronic and thermal Free Energies=         -423.084680

                     E (Thermal)             CV                S
                      KCal/Mol        Cal/Mol-Kelvin    Cal/Mol-Kelvin
 Total                  105.282             31.823             87.862
 Electronic               0.000              0.000              0.000
 Translational            0.889              2.981             40.409
 Rotational               0.889              2.981             28.643
 Vibrational            103.505             25.862             18.810
 Vibration     1          0.603              1.952              3.526
 Vibration     2          0.619              1.900              2.639
 Vibration     3          0.639              1.837              2.116
 Vibration     4          0.650              1.802              1.914
 Vibration     5          0.697              1.660              1.376
 Vibration     6          0.734              1.557              1.128
 Vibration     7          0.754              1.502              1.019
 Vibration     8          0.789              1.411              0.868
 Vibration     9          0.833              1.301              0.719
 Vibration    10          0.867              1.224              0.629
 Vibration    11          0.897              1.156              0.560

 Optimization completed.
    -- Stationary point found.
 Normal termination of Gaussian 09 at Mon Jan 27 18:08:34 2020.
