 Gaussian 09, Revision D.01,
 Gaussian 09:  ES64L-G09RevD.01 24-Apr-2013

 -----------------------------
 # b3lyp 6-31G(2df,p) opt Freq
 -----------------------------

 -----
 titel
 -----
 Symbolic Z-matrix:
 Charge =  0 Multiplicity = 1

 SCF Done:  E(RB3LYP) =  -423.117126365     A.U. after   14 cycles
 Optimization completed.
    -- Stationary point found.
 Normal termination of Gaussian 09 at Tue Jan 28 14:27:35 2020.

 ----------------------------------------------------------------------
 #N Geom=AllCheck Guess=TCheck SCRF=Check GenChk RB3LYP/6-31G(2df,p) Fr
 eq
 ----------------------------------------------------------------------

 Structure from the checkpoint file:  "/scratch/puck/g09_28b4bf54-0721-4777-b1f2-bd72e2b58ab0/Gau-164271.chk"
 -----
 titel
 -----
 Charge =  0 Multiplicity = 1

                         Standard orientation:
 ---------------------------------------------------------------------
 Center     Atomic      Atomic             Coordinates (Angstroms)
 Number     Number       Type             X           Y           Z
 ---------------------------------------------------------------------
      1          8           0        3.167495   -1.290137   -0.007237
      2          6           0        3.051045    0.106352    0.171994
      3          6           0        1.774715    0.643981   -0.454002
      4          8           0        0.695351   -0.018017    0.200087
      5          6           0       -0.549781    0.254219   -0.353929
      6          6           0       -1.294668    1.482836    0.079293
      7          6           0       -1.724780    0.101405    0.579801
      8          6           0       -2.943701   -0.497505    0.123863
      9          6           0       -3.967380   -0.996730   -0.263064
     10          1           0        2.327301   -1.663917    0.283526
     11          1           0        3.068841    0.380709    1.239071
     12          1           0        3.919130    0.569637   -0.308198
     13          1           0        1.697095    1.734123   -0.326921
     14          1           0        1.757922    0.415963   -1.530225
     15          1           0       -0.679248   -0.085890   -1.381088
     16          1           0       -0.815087    2.124739    0.809314
     17          1           0       -1.937135    1.981879   -0.636303
     18          1           0       -1.444507   -0.117491    1.605816
     19          1           0       -4.869773   -1.441871   -0.601523
 ---------------------------------------------------------------------

 SCF Done:  E(RB3LYP) =  -423.117126365     A.U. after    1 cycles

 The electronic state is 1-A.
 Alpha  occ. eigenvalues --  -19.16149 -19.13009 -10.25162 -10.23572 -10.22926
 Alpha  occ. eigenvalues --  -10.21952 -10.20062 -10.18362 -10.17242  -1.05823
 Alpha  occ. eigenvalues --   -1.01180  -0.87238  -0.75162  -0.73737  -0.64012
 Alpha  occ. eigenvalues --   -0.63447  -0.59633  -0.54530  -0.52692  -0.50588
 Alpha  occ. eigenvalues --   -0.48992  -0.47467  -0.45077  -0.41271  -0.41053
 Alpha  occ. eigenvalues --   -0.40188  -0.37967  -0.34841  -0.32817  -0.32009
 Alpha  occ. eigenvalues --   -0.28181  -0.26619  -0.25564  -0.24933
 Alpha virt. eigenvalues --    0.04525   0.04648   0.08371   0.10543   0.10902
 Alpha virt. eigenvalues --    0.12163   0.13050   0.14051   0.14280   0.14990
 Alpha virt. eigenvalues --    0.15607   0.17792   0.18753   0.19336   0.21888

 Mulliken charges:
               1
     1  O   -0.420124
     2  C   -0.058808
     3  C   -0.074880
     4  O   -0.268905
     5  C    0.129195
     6  C   -0.312936
     7  C   -0.234218
     8  C    0.311705
     9  C   -0.446172
    10  H    0.290796
    11  H    0.093609
    12  H    0.110408
    13  H    0.094122
    14  H    0.101526
    15  H    0.107164
    16  H    0.125719
    17  H    0.129947
    18  H    0.125188
    19  H    0.196664
 Sum of Mulliken charges =   0.00000

 Dipole moment (field-independent basis, Debye):
    X=             -0.7284    Y=              1.7878    Z=             -0.3096  Tot=              1.9551
 Quadrupole moment (field-independent basis, Debye-Ang):
   XX=            -57.6517   YY=            -52.5771   ZZ=            -51.9231
   XY=              6.4024   XZ=              2.1054   YZ=             -0.2735

  Exact polarizability: 109.440  13.735  71.581   4.536   2.244  61.202
 Approx polarizability: 140.801  22.331 106.899   9.970   5.128  93.914

                      1                      2                      3
                      A                      A                      A
 Frequencies --     48.9100                61.8184               104.1866
 Red. masses --      4.7866                 3.3998                 3.5902
 Frc consts  --      0.0067                 0.0077                 0.0230
 IR Inten    --      0.2575                 0.7004                 0.7517

                      4                      5                      6
                      A                      A                      A
 Frequencies --    145.5872               176.4172               226.0109
 Red. masses --      3.6990                 4.4004                 2.8581
 Frc consts  --      0.0462                 0.0807                 0.0860
 IR Inten    --      3.2677                 1.7836                 1.1668

                      7                      8                      9
                      A                      A                      A
 Frequencies --    310.6412               371.5877               419.9858
 Red. masses --      2.5014                 3.0579                 2.5064
 Frc consts  --      0.1422                 0.2488                 0.2605
 IR Inten    --      1.6274                13.2543                27.2359

                     10                     11                     12
                      A                      A                      A
 Frequencies --    442.6691               485.2450               514.4632
 Red. masses --      1.4413                 3.4320                 3.4676
 Frc consts  --      0.1664                 0.4761                 0.5407
 IR Inten    --     94.4327                 5.3137                 5.2694

                     13                     14                     15
                      A                      A                      A
 Frequencies --    564.7386               592.3497               650.8996
 Red. masses --      2.4631                 1.2000                 1.2311
 Frc consts  --      0.4628                 0.2481                 0.3073
 IR Inten    --      5.5343                42.9978                40.7030

                     16                     17                     18
                      A                      A                      A
 Frequencies --    787.4812               834.8050               883.8742
 Red. masses --      2.2556                 1.6167                 2.9904
 Frc consts  --      0.8241                 0.6638                 1.3765
 IR Inten    --      4.3649                 4.4074                 8.3870

                     19                     20                     21
                      A                      A                      A
 Frequencies --    908.9458               920.3714               969.8522
 Red. masses --      2.2029                 2.4229                 2.3705
 Frc consts  --      1.0723                 1.2093                 1.3137
 IR Inten    --      8.2328                24.0525                29.2777

                     22                     23                     24
                      A                      A                      A
 Frequencies --   1036.7139              1057.4167              1085.8689
 Red. masses --      1.9934                 1.7351                 1.8313
 Frc consts  --      1.2623                 1.1431                 1.2722
 IR Inten    --     13.9425                16.4911                64.2134

                     25                     26                     27
                      A                      A                      A
 Frequencies --   1095.2887              1097.7321              1128.2055
 Red. masses --      1.3574                 2.2612                 1.7289
 Frc consts  --      0.9595                 1.6054                 1.2966
 IR Inten    --     31.9809                19.7396                24.9294

                     28                     29                     30
                      A                      A                      A
 Frequencies --   1137.7815              1195.1598              1224.6301
 Red. masses --      2.0697                 2.7264                 1.9448
 Frc consts  --      1.5786                 2.2945                 1.7185
 IR Inten    --     12.6970                65.4547                90.0025

                     31                     32                     33
                      A                      A                      A
 Frequencies --   1239.0348              1262.9926              1324.2259
 Red. masses --      1.2809                 1.1474                 1.2661
 Frc consts  --      1.1586                 1.0784                 1.3081
 IR Inten    --     20.3967                15.4671                20.7780

                     34                     35                     36
                      A                      A                      A
 Frequencies --   1384.1752              1391.9660              1427.5666
 Red. masses --      1.3315                 1.3078                 1.2864
 Frc consts  --      1.5031                 1.4929                 1.5446
 IR Inten    --     13.5474                50.4240                 9.7066

                     37                     38                     39
                      A                      A                      A
 Frequencies --   1440.7978              1477.7248              1498.5194
 Red. masses --      1.3637                 1.5184                 1.0959
 Frc consts  --      1.6679                 1.9535                 1.4499
 IR Inten    --     46.4415                34.1574                 1.1105

                     40                     41                     42
                      A                      A                      A
 Frequencies --   1508.5466              2239.6649              2979.1284
 Red. masses --      1.1204                 6.0177                 1.0712
 Frc consts  --      1.5022                17.7849                 5.6012
 IR Inten    --      3.3189                14.2311                39.1180

                     43                     44                     45
                      A                      A                      A
 Frequencies --   2985.9163              3030.8607              3080.4966
 Red. masses --      1.0546                 1.1060                 1.0929
 Frc consts  --      5.5398                 5.9859                 6.1105
 IR Inten    --     37.6215                59.1681                36.2043

                     46                     47                     48
                      A                      A                      A
 Frequencies --   3111.8494              3144.2548              3157.2485
 Red. masses --      1.0878                 1.0541                 1.0865
 Frc consts  --      6.2066                 6.1400                 6.3812
 IR Inten    --     17.6022                 4.7435                 3.2566

                     49                     50                     51
                      A                      A                      A
 Frequencies --   3240.5839              3505.4499              3796.2493
 Red. masses --      1.1181                 1.1606                 1.0654
 Frc consts  --      6.9180                 8.4025                 9.0460
 IR Inten    --      4.1045                82.5498                30.1957

 - Thermochemistry -
 -------------------
 Temperature   298.150 Kelvin.  Pressure   1.00000 Atm.
 Atom     1 has atomic number  8 and mass  15.99491

 Molecular mass:   126.06808 amu.
 Principal axes and moments of inertia in atomic units:
                           1         2         3
     Eigenvalues --   396.692652705.390842957.59458
           X            0.99997   0.00761   0.00291
           Y           -0.00760   0.99997  -0.00189
           Z           -0.00292   0.00187   0.99999
 This molecule is an asymmetric top.
 Rotational symmetry number  1.
 Rotational temperatures (Kelvin)      0.21834     0.03202     0.02929
 Rotational constants (GHZ):           4.54947     0.66709     0.61021
 Zero-point vibrational energy     410958.5 (Joules/Mol)
                                   98.22143 (Kcal/Mol)
 Warning -- explicit consideration of  14 degrees of freedom as
           vibrations may cause significant error
 Vibrational temperatures:     70.37    88.94   149.90   209.47   253.82
          (Kelvin)            325.18   446.94   534.63   604.27   636.90
                              698.16   740.20   812.53   852.26   936.50
                             1133.01  1201.10  1271.70  1307.77  1324.21
                             1395.40  1491.60  1521.38  1562.32  1575.87
                             1579.39  1623.23  1637.01  1719.57  1761.97
                             1782.69  1817.16  1905.26  1991.52  2002.73
                             2053.95  2072.98  2126.11  2156.03  2170.46
                             3222.37  4286.30  4296.06  4360.73  4432.14
                             4477.25  4523.88  4542.57  4662.47  5043.55
                             5461.95

 Zero-point correction=                           0.156526 (Hartree/Particle)
 Thermal correction to Energy=                    0.166384
 Thermal correction to Enthalpy=                  0.167328
 Thermal correction to Gibbs Free Energy=         0.120743
 Sum of electronic and zero-point Energies=           -422.960601
 Sum of electronic and thermal Energies=              -422.950742
 Sum of electronic and thermal Enthalpies=            -422.949798
 Sum of electronic and thermal Free Energies=         -422.996384

                     E (Thermal)             CV                S
                      KCal/Mol        Cal/Mol-Kelvin    Cal/Mol-Kelvin
 Total                  104.408             35.717             98.048
 Electronic               0.000              0.000              0.000
 Translational            0.889              2.981             40.409
 Rotational               0.889              2.981             29.541
 Vibrational            102.630             29.755             28.098
 Vibration     1          0.595              1.978              4.861
 Vibration     2          0.597              1.973              4.398
 Vibration     3          0.605              1.946              3.374
 Vibration     4          0.617              1.907              2.729
 Vibration     5          0.628              1.871              2.366
 Vibration     6          0.650              1.801              1.910
 Vibration     7          0.699              1.653              1.359
 Vibration     8          0.743              1.531              1.073
 Vibration     9          0.783              1.427              0.892
 Vibration    10          0.802              1.377              0.818
 Vibration    11          0.841              1.283              0.696
 Vibration    12          0.870              1.218              0.623
 Vibration    13          0.921              1.108              0.514
 Vibration    14          0.950              1.048              0.463

 Normal termination of Gaussian 09 at Tue Jan 28 15:06:06 2020.
