 Gaussian 09, Revision D.01,
 Gaussian 09:  ES64L-G09RevD.01 24-Apr-2013

 -----------------------------
 # b3lyp 6-31G(2df,p) opt Freq
 -----------------------------

 -----
 titel
 -----
 Symbolic Z-matrix:
 Charge =  0 Multiplicity = 1

 SCF Done:  E(RB3LYP) =  -423.124714371     A.U. after   13 cycles
 Optimization completed.
    -- Stationary point found.
 Normal termination of Gaussian 09 at Mon Jan 27 18:09:19 2020.

 ----------------------------------------------------------------------
 #N Geom=AllCheck Guess=TCheck SCRF=Check GenChk RB3LYP/6-31G(2df,p) Fr
 eq
 ----------------------------------------------------------------------

 Structure from the checkpoint file:  "/scratch/puck/g09_c0f7fc89-b7f8-45d1-8bfe-26d323918f5a/Gau-40836.chk"
 -----
 titel
 -----
 Charge =  0 Multiplicity = 1

                         Standard orientation:
 ---------------------------------------------------------------------
 Center     Atomic      Atomic             Coordinates (Angstroms)
 Number     Number       Type             X           Y           Z
 ---------------------------------------------------------------------
      1          6           0        0.403473    2.221602   -0.171399
      2          6           0        0.193815    0.764457    0.076586
      3          6           0        0.445264   -0.165344    1.221851
      4          8           0       -0.867039   -0.718768    1.267105
      5          6           0       -1.021067   -0.245171   -0.112832
      6          6           0       -2.434590    0.053781   -0.503889
      7          6           0       -0.082511   -1.191755   -0.916772
      8          6           0        1.040720   -0.473343   -0.171178
      9          8           0        2.393427   -0.464673   -0.438604
     10          1           0        1.425228    2.505892    0.100544
     11          1           0        0.264273    2.475762   -1.228507
     12          1           0       -0.285853    2.836411    0.417750
     13          1           0        1.023112   -0.061975    2.132112
     14          1           0       -3.039995   -0.857563   -0.448961
     15          1           0       -2.874378    0.797431    0.166830
     16          1           0       -2.478986    0.433860   -1.528905
     17          1           0       -0.235795   -2.266108   -0.767296
     18          1           0       -0.071828   -0.943449   -1.981656
     19          1           0        2.792492   -1.238097   -0.024125
 ---------------------------------------------------------------------

 SCF Done:  E(RB3LYP) =  -423.124714371     A.U. after    1 cycles

 The electronic state is 1-A.
 Alpha  occ. eigenvalues --  -19.15292 -19.12804 -10.24340 -10.23560 -10.22832
 Alpha  occ. eigenvalues --  -10.19033 -10.18444 -10.18108 -10.17955  -1.05805
 Alpha  occ. eigenvalues --   -1.03094  -0.84846  -0.75985  -0.73018  -0.68346
 Alpha  occ. eigenvalues --   -0.60896  -0.57894  -0.51195  -0.50093  -0.47632
 Alpha  occ. eigenvalues --   -0.45315  -0.43856  -0.41975  -0.40909  -0.40673
 Alpha  occ. eigenvalues --   -0.39716  -0.39182  -0.36901  -0.35920  -0.32939
 Alpha  occ. eigenvalues --   -0.30312  -0.27261  -0.24606  -0.21310
 Alpha virt. eigenvalues --    0.07371   0.08987   0.09612   0.12633   0.13181
 Alpha virt. eigenvalues --    0.13661   0.14516   0.14952   0.15656   0.16611
 Alpha virt. eigenvalues --    0.18352   0.19122   0.19955   0.20411   0.22698

 Mulliken charges:
               1
     1  C   -0.532413
     2  C    0.186979
     3  C   -0.036549
     4  O   -0.334646
     5  C    0.373167
     6  C   -0.501687
     7  C   -0.337336
     8  C    0.284969
     9  O   -0.459314
    10  H    0.136126
    11  H    0.123023
    12  H    0.125141
    13  H    0.103187
    14  H    0.133620
    15  H    0.130447
    16  H    0.122942
    17  H    0.091021
    18  H    0.102740
    19  H    0.288583
 Sum of Mulliken charges =   0.00000

 Dipole moment (field-independent basis, Debye):
    X=              0.3739    Y=              0.1407    Z=             -0.5061  Tot=              0.6448
 Quadrupole moment (field-independent basis, Debye-Ang):
   XX=            -51.6705   YY=            -50.8428   ZZ=            -54.1618
   XY=             -3.9627   XZ=              5.5335   YZ=              0.9937

  Exact polarizability:  81.251  -1.125  75.754   3.521   0.951  68.771
 Approx polarizability: 112.701  -1.522 107.492   1.146  -1.762 107.845

                      1                      2                      3
                      A                      A                      A
 Frequencies --    161.4799               179.6326               182.2743
 Red. masses --      2.5471                 1.8717                 1.1475
 Frc consts  --      0.0391                 0.0356                 0.0225
 IR Inten    --      1.1486                 0.6995                 0.1164

                      4                      5                      6
                      A                      A                      A
 Frequencies --    197.0847               216.1311               278.4237
 Red. masses --      1.1926                 2.9007                 1.8028
 Frc consts  --      0.0273                 0.0798                 0.0823
 IR Inten    --      0.0373                 7.2673                19.1370

                      7                      8                      9
                      A                      A                      A
 Frequencies --    317.2028               382.4202               419.3127
 Red. masses --      1.4230                 3.9548                 3.4128
 Frc consts  --      0.0844                 0.3408                 0.3535
 IR Inten    --     59.8629                18.2036                 7.3572

                     10                     11                     12
                      A                      A                      A
 Frequencies --    465.0104               563.6368               576.8012
 Red. masses --      2.0797                 3.7168                 5.2472
 Frc consts  --      0.2650                 0.6957                 1.0286
 IR Inten    --      1.1828                 1.2703                 6.8801

                     13                     14                     15
                      A                      A                      A
 Frequencies --    654.6106               662.4593               765.8850
 Red. masses --      3.2130                 3.5001                 3.9258
 Frc consts  --      0.8112                 0.9050                 1.3568
 IR Inten    --      4.8042                 0.7407                11.1467

                     16                     17                     18
                      A                      A                      A
 Frequencies --    782.2862               822.8277               872.0574
 Red. masses --      3.3086                 3.7778                 2.5082
 Frc consts  --      1.1930                 1.5070                 1.1238
 IR Inten    --      2.4203                22.6497                12.0258

                     19                     20                     21
                      A                      A                      A
 Frequencies --    925.9079               953.3786               983.7168
 Red. masses --      1.5726                 2.0116                 1.6005
 Frc consts  --      0.7943                 1.0773                 0.9125
 IR Inten    --     12.3458                 1.4080                 2.5490

                     22                     23                     24
                      A                      A                      A
 Frequencies --   1025.8781              1045.7283              1102.3805
 Red. masses --      2.4232                 1.8267                 1.7284
 Frc consts  --      1.5025                 1.1769                 1.2375
 IR Inten    --     22.7938                26.9977                22.6296

                     25                     26                     27
                      A                      A                      A
 Frequencies --   1121.7404              1145.4793              1159.7072
 Red. masses --      2.0546                 1.5906                 2.0447
 Frc consts  --      1.5232                 1.2296                 1.6202
 IR Inten    --      8.4387                 5.0129                 2.8535

                     28                     29                     30
                      A                      A                      A
 Frequencies --   1180.4527              1194.8701              1244.2860
 Red. masses --      1.5686                 4.1484                 1.8814
 Frc consts  --      1.2879                 3.4896                 1.7162
 IR Inten    --      7.1565                13.3185                80.5363

                     31                     32                     33
                      A                      A                      A
 Frequencies --   1296.0896              1338.0774              1353.7891
 Red. masses --      1.5438                 2.6217                 3.3058
 Frc consts  --      1.5279                 2.7656                 3.5697
 IR Inten    --     86.7408                11.5139                29.8808

                     34                     35                     36
                      A                      A                      A
 Frequencies --   1411.8339              1414.6711              1466.8713
 Red. masses --      1.2932                 1.5610                 1.6550
 Frc consts  --      1.5187                 1.8406                 2.0981
 IR Inten    --      0.0853                 9.7470                 3.9102

                     37                     38                     39
                      A                      A                      A
 Frequencies --   1478.5045              1485.3532              1489.8895
 Red. masses --      1.0811                 1.0592                 1.0583
 Frc consts  --      1.3924                 1.3768                 1.3841
 IR Inten    --      1.4140                 4.2073                 5.4625

                     40                     41                     42
                      A                      A                      A
 Frequencies --   1495.2211              1511.2416              3024.1487
 Red. masses --      1.0640                 2.0592                 1.0353
 Frc consts  --      1.4015                 2.7708                 5.5787
 IR Inten    --      4.1967                 9.2339                39.8922

                     43                     44                     45
                      A                      A                      A
 Frequencies --   3036.2761              3039.9983              3083.3746
 Red. masses --      1.0405                 1.0525                 1.1011
 Frc consts  --      5.6518                 5.7308                 6.1678
 IR Inten    --     19.0700                38.9338                19.9235

                     46                     47                     48
                      A                      A                      A
 Frequencies --   3099.0214              3105.2221              3107.8768
 Red. masses --      1.0999                 1.1041                 1.1026
 Frc consts  --      6.2237                 6.2723                 6.2747
 IR Inten    --     14.1858                 2.6451                30.2410

                     49                     50                     51
                      A                      A                      A
 Frequencies --   3118.2426              3196.1228              3787.7678
 Red. masses --      1.1018                 1.0944                 1.0661
 Frc consts  --      6.3119                 6.5866                 9.0118
 IR Inten    --     17.0290                16.7843                24.4955

 - Thermochemistry -
 -------------------
 Temperature   298.150 Kelvin.  Pressure   1.00000 Atm.
 Atom     1 has atomic number  6 and mass  12.00000

 Molecular mass:   126.06808 amu.
 Principal axes and moments of inertia in atomic units:
                           1         2         3
     Eigenvalues --   722.330431121.674531317.25559
           X            0.99915  -0.00508   0.04097
           Y            0.00386   0.99955   0.02981
           Z           -0.04110  -0.02962   0.99872
 This molecule is an asymmetric top.
 Rotational symmetry number  1.
 Warning -- assumption of classical behavior for rotation
           may cause significant error
 Rotational temperatures (Kelvin)      0.11991     0.07722     0.06575
 Rotational constants (GHZ):           2.49850     1.60897     1.37008
 Zero-point vibrational energy     412249.0 (Joules/Mol)
                                   98.52988 (Kcal/Mol)
 Warning -- explicit consideration of  12 degrees of freedom as
           vibrations may cause significant error
 Vibrational temperatures:    232.33   258.45   262.25   283.56   310.96
          (Kelvin)            400.59   456.38   550.22   603.30   669.05
                              810.95   829.89   941.84   953.13  1101.94
                             1125.53  1183.86  1254.69  1332.17  1371.70
                             1415.35  1476.01  1504.57  1586.08  1613.93
                             1648.09  1668.56  1698.41  1719.15  1790.25
                             1864.78  1925.19  1947.80  2031.31  2035.39
                             2110.50  2127.24  2137.09  2143.62  2151.29
                             2174.34  4351.07  4368.52  4373.87  4436.28
                             4458.80  4467.72  4471.54  4486.45  4598.50
                             5449.75

 Zero-point correction=                           0.157017 (Hartree/Particle)
 Thermal correction to Energy=                    0.165802
 Thermal correction to Enthalpy=                  0.166746
 Thermal correction to Gibbs Free Energy=         0.124324
 Sum of electronic and zero-point Energies=           -422.967697
 Sum of electronic and thermal Energies=              -422.958912
 Sum of electronic and thermal Enthalpies=            -422.957968
 Sum of electronic and thermal Free Energies=         -423.000391

                     E (Thermal)             CV                S
                      KCal/Mol        Cal/Mol-Kelvin    Cal/Mol-Kelvin
 Total                  104.042             34.084             89.285
 Electronic               0.000              0.000              0.000
 Translational            0.889              2.981             40.409
 Rotational               0.889              2.981             28.458
 Vibrational            102.265             28.123             20.418
 Vibration     1          0.622              1.890              2.532
 Vibration     2          0.629              1.867              2.332
 Vibration     3          0.630              1.864              2.305
 Vibration     4          0.636              1.844              2.160
 Vibration     5          0.645              1.816              1.991
 Vibration     6          0.679              1.713              1.543
 Vibration     7          0.704              1.641              1.324
 Vibration     8          0.752              1.508              1.030
 Vibration     9          0.782              1.428              0.894
 Vibration    10          0.822              1.328              0.752
 Vibration    11          0.919              1.110              0.517
 Vibration    12          0.933              1.081              0.491

 Optimization completed.
    -- Stationary point found.
 Normal termination of Gaussian 09 at Mon Jan 27 19:06:19 2020.
