 Gaussian 09, Revision D.01,
 Gaussian 09:  ES64L-G09RevD.01 24-Apr-2013

 -----------------------------
 # b3lyp 6-31G(2df,p) opt Freq
 -----------------------------

 -----
 titel
 -----
 Symbolic Z-matrix:
 Charge =  0 Multiplicity = 1

 SCF Done:  E(RB3LYP) =  -423.108418230     A.U. after   14 cycles
 Optimization completed.
    -- Stationary point found.
 Normal termination of Gaussian 09 at Tue Jan 28 00:09:53 2020.

 ----------------------------------------------------------------------
 #N Geom=AllCheck Guess=TCheck SCRF=Check GenChk RB3LYP/6-31G(2df,p) Fr
 eq
 ----------------------------------------------------------------------

 Structure from the checkpoint file:  "/scratch/puck/g09_018bd3db-5314-429b-82ca-7c7d922be411/Gau-56849.chk"
 -----
 titel
 -----
 Charge =  0 Multiplicity = 1

                         Standard orientation:
 ---------------------------------------------------------------------
 Center     Atomic      Atomic             Coordinates (Angstroms)
 Number     Number       Type             X           Y           Z
 ---------------------------------------------------------------------
      1          8           0        1.083314    1.760668   -0.375542
      2          6           0       -0.143443    1.075974   -0.425595
      3          6           0       -0.833629    0.640985    0.884057
      4          8           0       -2.007773   -0.021060    0.317389
      5          6           0       -1.460937   -0.846100   -0.774677
      6          6           0       -0.004569   -0.496430   -0.563047
      7          6           0        1.413114   -1.059729   -0.734083
      8          6           0        1.671466   -0.689018    0.774377
      9          6           0        0.122155   -0.560103    0.996576
     10          1           0        0.902844    2.667215   -0.108462
     11          1           0       -0.826424    1.538743   -1.150178
     12          1           0       -1.175813    1.303593    1.681626
     13          1           0       -1.696844   -1.900349   -0.596238
     14          1           0       -1.909992   -0.525594   -1.721518
     15          1           0        1.418629   -2.140992   -0.899039
     16          1           0        2.045399   -0.579073   -1.483396
     17          1           0        2.118035   -1.483838    1.375093
     18          1           0        2.242464    0.226209    0.900572
     19          1           0       -0.307559   -1.416253    1.521116
 ---------------------------------------------------------------------

 SCF Done:  E(RB3LYP) =  -423.108418230     A.U. after    1 cycles

 The electronic state is 1-A.
 Alpha  occ. eigenvalues --  -19.14792 -19.13132 -10.23223 -10.23159 -10.22559
 Alpha  occ. eigenvalues --  -10.19492 -10.18656 -10.18105 -10.17808  -1.04035
 Alpha  occ. eigenvalues --   -1.01929  -0.85590  -0.74129  -0.71724  -0.65546
 Alpha  occ. eigenvalues --   -0.61282  -0.57066  -0.53446  -0.51370  -0.48849
 Alpha  occ. eigenvalues --   -0.47785  -0.44884  -0.42646  -0.39982  -0.38009
 Alpha  occ. eigenvalues --   -0.37233  -0.36973  -0.36305  -0.32549  -0.31584
 Alpha  occ. eigenvalues --   -0.29297  -0.27948  -0.24922  -0.23359
 Alpha virt. eigenvalues --    0.06006   0.08414   0.10333   0.11952   0.12547
 Alpha virt. eigenvalues --    0.12989   0.14617   0.15713   0.16932   0.17713
 Alpha virt. eigenvalues --    0.18473   0.19102   0.20078   0.20815   0.21820

 Mulliken charges:
               1
     1  O   -0.436950
     2  C    0.099226
     3  C    0.012362
     4  O   -0.296774
     5  C   -0.172290
     6  C    0.251699
     7  C   -0.328113
     8  C   -0.260447
     9  C   -0.014132
    10  H    0.289502
    11  H    0.070858
    12  H    0.065757
    13  H    0.104540
    14  H    0.099608
    15  H    0.104418
    16  H    0.111442
    17  H    0.094372
    18  H    0.127858
    19  H    0.077065
 Sum of Mulliken charges =   0.00000

 Dipole moment (field-independent basis, Debye):
    X=              0.7805    Y=              0.5861    Z=             -0.1887  Tot=              0.9942
 Quadrupole moment (field-independent basis, Debye-Ang):
   XX=            -59.2919   YY=            -45.7996   ZZ=            -52.7451
   XY=             -0.3314   XZ=              2.1898   YZ=              1.4459

  Exact polarizability:  79.054  -1.835  76.172   2.464   1.221  68.910
 Approx polarizability: 114.901  -1.461 110.618   1.533   1.985 106.206

                      1                      2                      3
                      A                      A                      A
 Frequencies --    211.0976               234.2513               265.9857
 Red. masses --      2.1848                 1.2686                 3.2596
 Frc consts  --      0.0574                 0.0410                 0.1359
 IR Inten    --      9.5743                52.5982                39.4049

                      4                      5                      6
                      A                      A                      A
 Frequencies --    310.7273               365.4225               383.7939
 Red. masses --      2.4347                 3.9138                 2.5735
 Frc consts  --      0.1385                 0.3079                 0.2233
 IR Inten    --      3.0947                10.3197                 6.0271

                      7                      8                      9
                      A                      A                      A
 Frequencies --    423.9507               504.0601               601.2034
 Red. masses --      3.0066                 5.2063                 5.7390
 Frc consts  --      0.3184                 0.7794                 1.2222
 IR Inten    --      0.5197                 3.3291                 1.6182

                     10                     11                     12
                      A                      A                      A
 Frequencies --    654.0718               706.4484               760.7657
 Red. masses --      2.7815                 2.1428                 1.9527
 Frc consts  --      0.7011                 0.6301                 0.6659
 IR Inten    --      2.8434                10.9606                 7.9184

                     13                     14                     15
                      A                      A                      A
 Frequencies --    823.8129               839.8256               857.5013
 Red. masses --      2.5823                 2.0265                 4.3967
 Frc consts  --      1.0325                 0.8421                 1.9048
 IR Inten    --      0.8941                 2.4841                18.6303

                     16                     17                     18
                      A                      A                      A
 Frequencies --    899.9231               908.1745               920.9234
 Red. masses --      4.2788                 3.4999                 3.8200
 Frc consts  --      2.0417                 1.7008                 1.9088
 IR Inten    --     33.6497                12.1309                18.5801

                     19                     20                     21
                      A                      A                      A
 Frequencies --    978.1267              1005.7305              1050.7555
 Red. masses --      1.9806                 1.8104                 2.0641
 Frc consts  --      1.1164                 1.0789                 1.3427
 IR Inten    --     13.9676                12.2545                 3.8985

                     22                     23                     24
                      A                      A                      A
 Frequencies --   1074.5420              1087.2333              1123.5668
 Red. masses --      2.7482                 1.7826                 1.6050
 Frc consts  --      1.8696                 1.2415                 1.1938
 IR Inten    --     10.3918                 6.5672                 7.3031

                     25                     26                     27
                      A                      A                      A
 Frequencies --   1134.9327              1170.0615              1185.4283
 Red. masses --      1.7840                 1.6839                 1.5119
 Frc consts  --      1.3539                 1.3583                 1.2517
 IR Inten    --     40.6285                32.4019                 2.3817

                     28                     29                     30
                      A                      A                      A
 Frequencies --   1208.4766              1228.1096              1233.8540
 Red. masses --      1.6066                 1.3887                 1.4328
 Frc consts  --      1.3824                 1.2340                 1.2852
 IR Inten    --     13.3384                 3.3075                 1.8401

                     31                     32                     33
                      A                      A                      A
 Frequencies --   1248.7659              1256.3766              1264.7379
 Red. masses --      1.2816                 1.8453                 1.4054
 Frc consts  --      1.1775                 1.7162                 1.3245
 IR Inten    --     16.7619                11.0602                 7.6604

                     34                     35                     36
                      A                      A                      A
 Frequencies --   1292.8422              1300.1405              1344.2543
 Red. masses --      1.6738                 1.3105                 1.4791
 Frc consts  --      1.6483                 1.3051                 1.5748
 IR Inten    --      1.8739                 9.0864                 6.2561

                     37                     38                     39
                      A                      A                      A
 Frequencies --   1360.8721              1427.9155              1467.1604
 Red. masses --      1.9890                 1.3432                 1.0878
 Frc consts  --      2.1703                 1.6136                 1.3796
 IR Inten    --      7.6849                 2.7403                 1.3812

                     40                     41                     42
                      A                      A                      A
 Frequencies --   1485.1187              1528.3119              3011.9947
 Red. masses --      1.1329                 1.1038                 1.0842
 Frc consts  --      1.4722                 1.5191                 5.7953
 IR Inten    --      2.6991                 0.6676                41.7722

                     43                     44                     45
                      A                      A                      A
 Frequencies --   3028.0915              3059.3102              3073.1840
 Red. masses --      1.0567                 1.0591                 1.1094
 Frc consts  --      5.7087                 5.8400                 6.1733
 IR Inten    --     89.0050                40.4549                31.7123

                     46                     47                     48
                      A                      A                      A
 Frequencies --   3078.4269              3088.5784              3098.8006
 Red. masses --      1.0781                 1.0768                 1.0907
 Frc consts  --      6.0198                 6.0520                 6.1710
 IR Inten    --     23.5802                66.9324                53.7509

                     49                     50                     51
                      A                      A                      A
 Frequencies --   3116.5535              3177.7122              3821.4505
 Red. masses --      1.1063                 1.0993                 1.0663
 Frc consts  --      6.3310                 6.5401                 9.1750
 IR Inten    --     17.5723                10.7299                33.0966

 - Thermochemistry -
 -------------------
 Temperature   298.150 Kelvin.  Pressure   1.00000 Atm.
 Atom     1 has atomic number  8 and mass  15.99491

 Molecular mass:   126.06808 amu.
 Principal axes and moments of inertia in atomic units:
                           1         2         3
     Eigenvalues --   695.46330 957.675121170.78539
           X            0.99904  -0.03624   0.02443
           Y            0.03588   0.99924   0.01502
           Z           -0.02495  -0.01413   0.99959
 This molecule is an asymmetric top.
 Rotational symmetry number  1.
 Warning -- assumption of classical behavior for rotation
           may cause significant error
 Rotational temperatures (Kelvin)      0.12454     0.09044     0.07398
 Rotational constants (GHZ):           2.59502     1.88450     1.54148
 Zero-point vibrational energy     422780.3 (Joules/Mol)
                                  101.04693 (Kcal/Mol)
 Warning -- explicit consideration of   9 degrees of freedom as
           vibrations may cause significant error
 Vibrational temperatures:    303.72   337.03   382.69   447.07   525.76
          (Kelvin)            552.19   609.97   725.23   865.00   941.06
                             1016.42  1094.57  1185.28  1208.32  1233.75
                             1294.79  1306.66  1325.00  1407.30  1447.02
                             1511.80  1546.02  1564.28  1616.56  1632.91
                             1683.46  1705.56  1738.73  1766.97  1775.24
                             1796.69  1807.64  1819.67  1860.11  1870.61
                             1934.08  1957.99  2054.45  2110.91  2136.75
                             2198.90  4333.58  4356.74  4401.66  4421.62
                             4429.16  4443.77  4458.48  4484.02  4572.01
                             5498.21

 Zero-point correction=                           0.161029 (Hartree/Particle)
 Thermal correction to Energy=                    0.168204
 Thermal correction to Enthalpy=                  0.169148
 Thermal correction to Gibbs Free Energy=         0.130034
 Sum of electronic and zero-point Energies=           -422.947390
 Sum of electronic and thermal Energies=              -422.940214
 Sum of electronic and thermal Enthalpies=            -422.939270
 Sum of electronic and thermal Free Energies=         -422.978384

                     E (Thermal)             CV                S
                      KCal/Mol        Cal/Mol-Kelvin    Cal/Mol-Kelvin
 Total                  105.550             29.977             82.322
 Electronic               0.000              0.000              0.000
 Translational            0.889              2.981             40.409
 Rotational               0.889              2.981             28.146
 Vibrational            103.772             24.015             13.767
 Vibration     1          0.643              1.824              2.034
 Vibration     2          0.654              1.788              1.846
 Vibration     3          0.672              1.735              1.622
 Vibration     4          0.700              1.653              1.358
 Vibration     5          0.739              1.543              1.099
 Vibration     6          0.753              1.505              1.024
 Vibration     7          0.786              1.418              0.879
 Vibration     8          0.859              1.241              0.648
 Vibration     9          0.959              1.029              0.448

 Optimization completed.
    -- Stationary point found.
 Normal termination of Gaussian 09 at Tue Jan 28 01:37:45 2020.
