 Gaussian 09, Revision D.01,
 Gaussian 09:  ES64L-G09RevD.01 24-Apr-2013

 -----------------------------
 # b3lyp 6-31G(2df,p) opt Freq
 -----------------------------

 -----
 titel
 -----
 Symbolic Z-matrix:
 Charge =  0 Multiplicity = 1

 SCF Done:  E(RB3LYP) =  -423.154919193     A.U. after   15 cycles
 Optimization completed.
    -- Stationary point found.
 Normal termination of Gaussian 09 at Tue Jan 28 08:20:59 2020.

 ----------------------------------------------------------------------
 #N Geom=AllCheck Guess=TCheck SCRF=Check GenChk RB3LYP/6-31G(2df,p) Fr
 eq
 ----------------------------------------------------------------------

 Structure from the checkpoint file:  "/scratch/puck/g09_5c79af65-9d33-46aa-871d-d7257c2c16f7/Gau-59937.chk"
 -----
 titel
 -----
 Charge =  0 Multiplicity = 1

                         Standard orientation:
 ---------------------------------------------------------------------
 Center     Atomic      Atomic             Coordinates (Angstroms)
 Number     Number       Type             X           Y           Z
 ---------------------------------------------------------------------
      1          6           0       -1.910101    2.067346   -0.242426
      2          6           0       -0.721351    1.357661    0.408024
      3          6           0       -0.383304    0.004888   -0.258528
      4          6           0       -1.454827   -0.973537   -0.080800
      5          6           0       -2.297523   -1.813448    0.103216
      6          6           0        0.945303   -0.611271    0.299822
      7          8           0        1.142189   -1.943597   -0.109946
      8          6           0        2.149343    0.160546   -0.227405
      9          8           0        2.456363    1.272500    0.115034
     10          1           0       -1.708427    2.294733   -1.295020
     11          1           0       -2.813720    1.451606   -0.199600
     12          1           0       -2.120537    3.012320    0.266718
     13          1           0        0.170281    1.988812    0.364637
     14          1           0       -0.927644    1.176449    1.469522
     15          1           0       -0.247561    0.164562   -1.337987
     16          1           0       -3.067222   -2.531514    0.247434
     17          1           0        0.924990   -0.514906    1.396911
     18          1           0        0.310317   -2.416092    0.022875
     19          1           0        2.725862   -0.410313   -0.987611
 ---------------------------------------------------------------------

 SCF Done:  E(RB3LYP) =  -423.154919193     A.U. after    1 cycles

 The electronic state is 1-A.
 Alpha  occ. eigenvalues --  -19.15071 -19.14833 -10.27665 -10.25229 -10.22845
 Alpha  occ. eigenvalues --  -10.20018 -10.19238 -10.19207 -10.17917  -1.05907
 Alpha  occ. eigenvalues --   -1.03476  -0.83144  -0.75557  -0.74038  -0.68139
 Alpha  occ. eigenvalues --   -0.61207  -0.58150  -0.54279  -0.51991  -0.50276
 Alpha  occ. eigenvalues --   -0.47376  -0.44920  -0.43853  -0.42730  -0.40867
 Alpha  occ. eigenvalues --   -0.39373  -0.38352  -0.35927  -0.34675  -0.34238
 Alpha  occ. eigenvalues --   -0.29878  -0.28383  -0.27433  -0.25819
 Alpha virt. eigenvalues --   -0.03558   0.03479   0.03975   0.09604   0.10828
 Alpha virt. eigenvalues --    0.11421   0.11901   0.13446   0.14130   0.15980
 Alpha virt. eigenvalues --    0.16538   0.17595   0.19173   0.19649   0.22250

 Mulliken charges:
               1
     1  C   -0.391810
     2  C   -0.190858
     3  C   -0.187976
     4  C    0.297367
     5  C   -0.448863
     6  C    0.039873
     7  O   -0.442057
     8  C    0.145505
     9  O   -0.242478
    10  H    0.117283
    11  H    0.127971
    12  H    0.119627
    13  H    0.137865
    14  H    0.106748
    15  H    0.113580
    16  H    0.205632
    17  H    0.100517
    18  H    0.290466
    19  H    0.101609
 Sum of Mulliken charges =   0.00000

 Dipole moment (field-independent basis, Debye):
    X=             -2.2719    Y=             -1.1001    Z=             -0.0046  Tot=              2.5242
 Quadrupole moment (field-independent basis, Debye-Ang):
   XX=            -56.0719   YY=            -53.7713   ZZ=            -52.8413
   XY=              0.5560   XZ=             -1.4387   YZ=             -1.6393

  Exact polarizability:  89.773  10.497  87.307  -3.773   0.676  58.219
 Approx polarizability: 124.652  25.834 131.074  -6.743   1.668  90.804

                      1                      2                      3
                      A                      A                      A
 Frequencies --     51.9470                88.5185                91.4954
 Red. masses --      5.3693                 2.5769                 2.7881
 Frc consts  --      0.0085                 0.0119                 0.0138
 IR Inten    --      2.2722                 1.7992                12.3376

                      4                      5                      6
                      A                      A                      A
 Frequencies --    146.0052               182.0613               198.8412
 Red. masses --      3.8292                 2.2073                 2.5303
 Frc consts  --      0.0481                 0.0431                 0.0589
 IR Inten    --      0.2235                 1.8499                 0.0546

                      7                      8                      9
                      A                      A                      A
 Frequencies --    243.0289               269.3381               362.6906
 Red. masses --      2.8970                 1.6456                 3.0171
 Frc consts  --      0.1008                 0.0703                 0.2338
 IR Inten    --      1.8519                 0.7606                12.8061

                     10                     11                     12
                      A                      A                      A
 Frequencies --    385.9473               393.4387               418.3992
 Red. masses --      4.1138                 1.2789                 3.5428
 Frc consts  --      0.3610                 0.1166                 0.3654
 IR Inten    --      8.9739                72.7660                25.5775

                     13                     14                     15
                      A                      A                      A
 Frequencies --    513.7902               543.5544               621.0666
 Red. masses --      5.3604                 3.6992                 4.1909
 Frc consts  --      0.8337                 0.6439                 0.9524
 IR Inten    --      8.1230                 3.0707                22.6122

                     16                     17                     18
                      A                      A                      A
 Frequencies --    630.0688               665.9007               765.7567
 Red. masses --      1.2538                 1.2289                 1.4700
 Frc consts  --      0.2933                 0.3211                 0.5079
 IR Inten    --     43.5243                41.0806                 1.2783

                     19                     20                     21
                      A                      A                      A
 Frequencies --    849.1313               922.5929               964.6662
 Red. masses --      1.8881                 2.4153                 2.0570
 Frc consts  --      0.8021                 1.2113                 1.1278
 IR Inten    --      0.9276                 0.1092                21.5685

                     22                     23                     24
                      A                      A                      A
 Frequencies --   1016.8756              1021.5706              1070.3863
 Red. masses --      2.5989                 2.3162                 2.7991
 Frc consts  --      1.5833                 1.4242                 1.8895
 IR Inten    --     51.3786                 7.6612                 5.0002

                     25                     26                     27
                      A                      A                      A
 Frequencies --   1116.1188              1126.2181              1144.7822
 Red. masses --      3.1299                 1.8449                 2.9361
 Frc consts  --      2.2972                 1.3787                 2.2671
 IR Inten    --     24.0260                 8.0435                35.5954

                     28                     29                     30
                      A                      A                      A
 Frequencies --   1230.5872              1266.8068              1287.1805
 Red. masses --      1.2541                 1.2375                 1.1840
 Frc consts  --      1.1190                 1.1701                 1.1558
 IR Inten    --     17.7494                21.7548                 8.3375

                     31                     32                     33
                      A                      A                      A
 Frequencies --   1335.5213              1360.6398              1371.0603
 Red. masses --      1.1976                 1.1984                 1.3966
 Frc consts  --      1.2585                 1.3072                 1.5468
 IR Inten    --     12.9363                16.0384                 3.4671

                     34                     35                     36
                      A                      A                      A
 Frequencies --   1383.9703              1414.1594              1424.5129
 Red. masses --      1.2687                 1.2403                 1.4657
 Frc consts  --      1.4317                 1.4615                 1.7524
 IR Inten    --     45.3599                 1.0070                 9.9459

                     37                     38                     39
                      A                      A                      A
 Frequencies --   1491.5746              1498.8547              1508.4534
 Red. masses --      1.0597                 1.0409                 1.0669
 Frc consts  --      1.3890                 1.3778                 1.4303
 IR Inten    --      0.7173                 4.7211                 3.9342

                     40                     41                     42
                      A                      A                      A
 Frequencies --   1835.1292              2220.9546              2906.1020
 Red. masses --     10.7331                 5.9407                 1.0847
 Frc consts  --     21.2965                17.2650                 5.3976
 IR Inten    --    137.3717                 1.1524                84.7018

                     43                     44                     45
                      A                      A                      A
 Frequencies --   2981.7610              3006.0999              3035.6330
 Red. masses --      1.0813                 1.0816                 1.0384
 Frc consts  --      5.6643                 5.7586                 5.6377
 IR Inten    --     22.3318                12.9999                17.0805

                     46                     47                     48
                      A                      A                      A
 Frequencies --   3043.8496              3093.3811              3108.1223
 Red. masses --      1.0637                 1.0967                 1.1016
 Frc consts  --      5.8065                 6.1830                 6.2702
 IR Inten    --     28.4404                 4.1051                27.9881

                     49                     50                     51
                      A                      A                      A
 Frequencies --   3117.6133              3498.4677              3763.9017
 Red. masses --      1.1008                 1.1611                 1.0655
 Frc consts  --      6.3037                 8.3726                 8.8938
 IR Inten    --     24.4372                75.0600                57.2869

 - Thermochemistry -
 -------------------
 Temperature   298.150 Kelvin.  Pressure   1.00000 Atm.
 Atom     1 has atomic number  6 and mass  12.00000

 Molecular mass:   126.06808 amu.
 Principal axes and moments of inertia in atomic units:
                           1         2         3
     Eigenvalues --   942.127281334.473402171.35629
           X            0.99589  -0.09058  -0.00248
           Y            0.09056   0.99588  -0.00504
           Z            0.00293   0.00479   0.99998
 This molecule is an asymmetric top.
 Rotational symmetry number  1.
 Warning -- assumption of classical behavior for rotation
           may cause significant error
 Rotational temperatures (Kelvin)      0.09193     0.06490     0.03989
 Rotational constants (GHZ):           1.91560     1.35240     0.83116
 Zero-point vibrational energy     406661.7 (Joules/Mol)
                                   97.19448 (Kcal/Mol)
 Warning -- explicit consideration of  14 degrees of freedom as
           vibrations may cause significant error
 Vibrational temperatures:     74.74   127.36   131.64   210.07   261.95
          (Kelvin)            286.09   349.66   387.52   521.83   555.29
                              566.07   601.98   739.23   782.05   893.58
                              906.53   958.08  1101.75  1221.71  1327.40
                             1387.94  1463.06  1469.81  1540.05  1605.84
                             1620.37  1647.08  1770.54  1822.65  1851.96
                             1921.51  1957.65  1972.65  1991.22  2034.66
                             2049.55  2146.04  2156.51  2170.33  2640.34
                             3195.45  4181.23  4290.08  4325.10  4367.59
                             4379.42  4450.68  4471.89  4485.54  5033.51
                             5415.41

 Zero-point correction=                           0.154889 (Hartree/Particle)
 Thermal correction to Energy=                    0.165439
 Thermal correction to Enthalpy=                  0.166383
 Thermal correction to Gibbs Free Energy=         0.118831
 Sum of electronic and zero-point Energies=           -423.000030
 Sum of electronic and thermal Energies=              -422.989481
 Sum of electronic and thermal Enthalpies=            -422.988536
 Sum of electronic and thermal Free Energies=         -423.036088

                     E (Thermal)             CV                S
                      KCal/Mol        Cal/Mol-Kelvin    Cal/Mol-Kelvin
 Total                  103.814             37.553            100.082
 Electronic               0.000              0.000              0.000
 Translational            0.889              2.981             40.409
 Rotational               0.889              2.981             29.391
 Vibrational            102.037             31.591             30.282
 Vibration     1          0.596              1.977              4.742
 Vibration     2          0.601              1.957              3.693
 Vibration     3          0.602              1.955              3.628
 Vibration     4          0.617              1.907              2.724
 Vibration     5          0.630              1.864              2.307
 Vibration     6          0.637              1.842              2.144
 Vibration     7          0.659              1.774              1.781
 Vibration     8          0.674              1.730              1.600
 Vibration     9          0.737              1.549              1.111
 Vibration    10          0.755              1.500              1.016
 Vibration    11          0.761              1.484              0.987
 Vibration    12          0.781              1.430              0.897
 Vibration    13          0.869              1.219              0.625
 Vibration    14          0.899              1.154              0.558

 Optimization completed.
    -- Stationary point found.
 Normal termination of Gaussian 09 at Tue Jan 28 10:10:18 2020.
