 Gaussian 09, Revision D.01,
 Gaussian 09:  ES64L-G09RevD.01 24-Apr-2013

 -----------------------------
 # b3lyp 6-31G(2df,p) opt Freq
 -----------------------------

 -----
 titel
 -----
 Symbolic Z-matrix:
 Charge =  0 Multiplicity = 1

 SCF Done:  E(RB3LYP) =  -423.203082108     A.U. after   14 cycles
 Optimization completed.
    -- Stationary point found.
 Normal termination of Gaussian 09 at Tue Jan 28 11:44:26 2020.

 ----------------------------------------------------------------------
 #N Geom=AllCheck Guess=TCheck SCRF=Check GenChk RB3LYP/6-31G(2df,p) Fr
 eq
 ----------------------------------------------------------------------

 Structure from the checkpoint file:  "/scratch/puck/g09_fe33a727-cced-4e01-8d48-d5180fa771d0/Gau-89530.chk"
 -----
 titel
 -----
 Charge =  0 Multiplicity = 1

                         Standard orientation:
 ---------------------------------------------------------------------
 Center     Atomic      Atomic             Coordinates (Angstroms)
 Number     Number       Type             X           Y           Z
 ---------------------------------------------------------------------
      1          6           0       -2.732073   -1.270279   -0.283336
      2          8           0       -1.955649   -0.128545   -0.564360
      3          6           0       -1.167627    0.321347    0.525510
      4          6           0       -0.664797    1.738292    0.152759
      5          6           0        0.750444    1.512613   -0.296681
      6          6           0        1.182391    0.278866    0.002007
      7          6           0        0.121001   -0.529313    0.710269
      8          6           0        2.521698   -0.225557   -0.301793
      9          8           0        2.912647   -1.337247   -0.018075
     10          1           0       -3.412351   -1.096795    0.565602
     11          1           0       -3.326622   -1.481815   -1.175340
     12          1           0       -2.119652   -2.155088   -0.055742
     13          1           0       -1.782588    0.330226    1.436870
     14          1           0       -1.304564    2.173004   -0.621834
     15          1           0       -0.695641    2.420254    1.013217
     16          1           0        1.347940    2.273933   -0.787970
     17          1           0        0.015414   -1.534039    0.291782
     18          1           0        0.374360   -0.659043    1.769574
     19          1           0        3.181498    0.499879   -0.829091
 ---------------------------------------------------------------------

 SCF Done:  E(RB3LYP) =  -423.203082108     A.U. after    1 cycles

 The electronic state is 1-A.
 Alpha  occ. eigenvalues --  -19.14346 -19.12925 -10.26245 -10.24144 -10.22698
 Alpha  occ. eigenvalues --  -10.20837 -10.19676 -10.19482 -10.18838  -1.03699
 Alpha  occ. eigenvalues --   -1.03406  -0.85571  -0.74541  -0.72133  -0.67992
 Alpha  occ. eigenvalues --   -0.61642  -0.57858  -0.53829  -0.50529  -0.50416
 Alpha  occ. eigenvalues --   -0.45569  -0.44611  -0.44115  -0.42077  -0.40306
 Alpha  occ. eigenvalues --   -0.39756  -0.37823  -0.37036  -0.36458  -0.35845
 Alpha  occ. eigenvalues --   -0.31586  -0.26375  -0.25756  -0.24726
 Alpha virt. eigenvalues --   -0.05339   0.06551   0.08421   0.10948   0.11652
 Alpha virt. eigenvalues --    0.11982   0.14214   0.14956   0.15710   0.16469
 Alpha virt. eigenvalues --    0.17182   0.17259   0.18790   0.20214   0.21433

 Mulliken charges:
               1
     1  C   -0.240108
     2  O   -0.246273
     3  C    0.118156
     4  C   -0.280622
     5  C   -0.145838
     6  C    0.260954
     7  C   -0.338545
     8  C    0.062630
     9  O   -0.272389
    10  H    0.104254
    11  H    0.129782
    12  H    0.110737
    13  H    0.064859
    14  H    0.131977
    15  H    0.119423
    16  H    0.109319
    17  H    0.129760
    18  H    0.116413
    19  H    0.065510
 Sum of Mulliken charges =   0.00000

 Dipole moment (field-independent basis, Debye):
    X=             -2.1392    Y=              2.1138    Z=              0.6638  Tot=              3.0798
 Quadrupole moment (field-independent basis, Debye-Ang):
   XX=            -58.2038   YY=            -52.2176   ZZ=            -52.6418
   XY=              8.7033   XZ=             -2.5359   YZ=              0.0563

  Exact polarizability:  94.897  -6.963  88.692  -3.431  -4.536  59.761
 Approx polarizability: 123.035 -25.647 151.086  -0.696 -12.398  93.411

                      1                      2                      3
                      A                      A                      A
 Frequencies --     54.7572               109.3250               112.1761
 Red. masses --      3.4092                 3.7071                 1.9779
 Frc consts  --      0.0060                 0.0261                 0.0147
 IR Inten    --      0.0925                 4.8756                 4.8667

                      4                      5                      6
                      A                      A                      A
 Frequencies --    181.3469               208.3973               275.0085
 Red. masses --      2.4780                 1.8294                 2.6995
 Frc consts  --      0.0480                 0.0468                 0.1203
 IR Inten    --      7.3354                 0.8391                 1.6437

                      7                      8                      9
                      A                      A                      A
 Frequencies --    304.3958               371.0233               425.7791
 Red. masses --      2.1526                 2.5399                 2.3562
 Frc consts  --      0.1175                 0.2060                 0.2517
 IR Inten    --      7.9950                 3.6180                 2.2641

                     10                     11                     12
                      A                      A                      A
 Frequencies --    463.4337               497.6821               719.8294
 Red. masses --      2.6129                 5.0713                 4.4193
 Frc consts  --      0.3306                 0.7401                 1.3491
 IR Inten    --      2.9398                 1.0519                18.9208

                     13                     14                     15
                      A                      A                      A
 Frequencies --    767.0916               790.6157               855.5194
 Red. masses --      3.9483                 1.9354                 1.7748
 Frc consts  --      1.3688                 0.7128                 0.7653
 IR Inten    --      1.3768                 1.2370                15.6631

                     16                     17                     18
                      A                      A                      A
 Frequencies --    887.8244               898.5348               944.6198
 Red. masses --      3.1469                 1.8864                 2.7342
 Frc consts  --      1.4615                 0.8973                 1.4374
 IR Inten    --      9.8787                 6.0823                 9.7241

                     19                     20                     21
                      A                      A                      A
 Frequencies --    981.9423              1030.5978              1051.1193
 Red. masses --      1.8371                 1.6871                 2.0705
 Frc consts  --      1.0436                 1.0557                 1.3478
 IR Inten    --     17.4691                 1.4016                 2.5442

                     22                     23                     24
                      A                      A                      A
 Frequencies --   1052.8188              1133.1616              1163.9270
 Red. masses --      2.1866                 3.7917                 1.2911
 Frc consts  --      1.4280                 2.8686                 1.0305
 IR Inten    --      2.8149               111.5808                20.3254

                     25                     26                     27
                      A                      A                      A
 Frequencies --   1184.1312              1184.5252              1203.8419
 Red. masses --      1.3040                 1.3756                 1.4712
 Frc consts  --      1.0773                 1.1372                 1.2562
 IR Inten    --      3.3049                25.0697                20.0832

                     28                     29                     30
                      A                      A                      A
 Frequencies --   1245.1817              1273.5855              1292.5483
 Red. masses --      1.6762                 1.4713                 1.8983
 Frc consts  --      1.5313                 1.4061                 1.8685
 IR Inten    --     58.6259                 7.5337                 9.6360

                     31                     32                     33
                      A                      A                      A
 Frequencies --   1318.1550              1376.8245              1389.9438
 Red. masses --      1.6222                 2.6710                 1.2653
 Frc consts  --      1.6607                 2.9832                 1.4403
 IR Inten    --      1.0954                17.0449                37.1907

                     34                     35                     36
                      A                      A                      A
 Frequencies --   1421.5472              1456.0274              1468.7991
 Red. masses --      1.2354                 1.0865                 1.0975
 Frc consts  --      1.4709                 1.3572                 1.3950
 IR Inten    --      3.4960                10.0474                 1.3096

                     37                     38                     39
                      A                      A                      A
 Frequencies --   1479.2414              1489.9021              1510.2249
 Red. masses --      1.1185                 1.0747                 1.0625
 Frc consts  --      1.4420                 1.4056                 1.4278
 IR Inten    --      1.8635                 3.9300                 6.4151

                     40                     41                     42
                      A                      A                      A
 Frequencies --   1682.5671              1782.7304              2875.6739
 Red. masses --      6.8004                10.2662                 1.0825
 Frc consts  --     11.3430                19.2235                 5.2740
 IR Inten    --     38.2284               244.3043               126.9392

                     43                     44                     45
                      A                      A                      A
 Frequencies --   2974.5681              2994.5910              3024.1896
 Red. masses --      1.0396                 1.0822                 1.0904
 Frc consts  --      5.4197                 5.7180                 5.8758
 IR Inten    --     45.5689                48.3870                72.3955

                     46                     47                     48
                      A                      A                      A
 Frequencies --   3024.6870              3040.9510              3081.2274
 Red. masses --      1.0777                 1.0689                 1.0938
 Frc consts  --      5.8090                 5.8239                 6.1181
 IR Inten    --      2.3491                25.1743                 7.0612

                     49                     50                     51
                      A                      A                      A
 Frequencies --   3092.4298              3115.0707              3189.5857
 Red. masses --      1.0947                 1.0962                 1.0933
 Frc consts  --      6.1677                 6.2671                 6.5531
 IR Inten    --     12.9288                27.5546                 9.4403

 - Thermochemistry -
 -------------------
 Temperature   298.150 Kelvin.  Pressure   1.00000 Atm.
 Atom     1 has atomic number  6 and mass  12.00000

 Molecular mass:   126.06808 amu.
 Principal axes and moments of inertia in atomic units:
                           1         2         3
     Eigenvalues --   615.427061716.815392135.22799
           X            0.99916   0.03999  -0.00840
           Y           -0.04007   0.99915  -0.00926
           Z            0.00802   0.00958   0.99992
 This molecule is an asymmetric top.
 Rotational symmetry number  1.
 Warning -- assumption of classical behavior for rotation
           may cause significant error
 Rotational temperatures (Kelvin)      0.14074     0.05045     0.04056
 Rotational constants (GHZ):           2.93250     1.05121     0.84522
 Zero-point vibrational energy     415425.2 (Joules/Mol)
                                   99.28902 (Kcal/Mol)
 Warning -- explicit consideration of  11 degrees of freedom as
           vibrations may cause significant error
 Vibrational temperatures:     78.78   157.29   161.40   260.92   299.84
          (Kelvin)            395.68   437.96   533.82   612.60   666.78
                              716.05  1035.67  1103.67  1137.52  1230.90
                             1277.38  1292.79  1359.10  1412.79  1482.80
                             1512.32  1514.77  1630.36  1674.63  1703.70
                             1704.27  1732.06  1791.54  1832.40  1859.69
                             1896.53  1980.94  1999.82  2045.29  2094.90
                             2113.27  2128.30  2143.63  2172.87  2420.84
                             2564.95  4137.45  4279.73  4308.54  4351.13
                             4351.84  4375.24  4433.19  4449.31  4481.89
                             4589.10

 Zero-point correction=                           0.158227 (Hartree/Particle)
 Thermal correction to Energy=                    0.167243
 Thermal correction to Enthalpy=                  0.168187
 Thermal correction to Gibbs Free Energy=         0.123726
 Sum of electronic and zero-point Energies=           -423.044855
 Sum of electronic and thermal Energies=              -423.035839
 Sum of electronic and thermal Enthalpies=            -423.034895
 Sum of electronic and thermal Free Energies=         -423.079356

                     E (Thermal)             CV                S
                      KCal/Mol        Cal/Mol-Kelvin    Cal/Mol-Kelvin
 Total                  104.946             32.544             93.575
 Electronic               0.000              0.000              0.000
 Translational            0.889              2.981             40.409
 Rotational               0.889              2.981             29.202
 Vibrational            103.169             26.582             23.964
 Vibration     1          0.596              1.976              4.638
 Vibration     2          0.606              1.942              3.281
 Vibration     3          0.607              1.939              3.231
 Vibration     4          0.630              1.865              2.315
 Vibration     5          0.642              1.828              2.058
 Vibration     6          0.677              1.720              1.565
 Vibration     7          0.695              1.665              1.393
 Vibration     8          0.743              1.532              1.076
 Vibration     9          0.788              1.414              0.873
 Vibration    10          0.821              1.331              0.756
 Vibration    11          0.853              1.255              0.664

 Optimization completed.
    -- Stationary point found.
 Normal termination of Gaussian 09 at Tue Jan 28 13:11:55 2020.
