 Gaussian 09, Revision D.01,
 Gaussian 09:  ES64L-G09RevD.01 24-Apr-2013

 -----------------------------
 # b3lyp 6-31G(2df,p) opt Freq
 -----------------------------

 -----
 titel
 -----
 Symbolic Z-matrix:
 Charge =  0 Multiplicity = 1

 SCF Done:  E(RB3LYP) =  -423.186578098     A.U. after   14 cycles
 Optimization completed.
    -- Stationary point found.
 Normal termination of Gaussian 09 at Tue Jan 28 09:18:05 2020.

 ----------------------------------------------------------------------
 #N Geom=AllCheck Guess=TCheck SCRF=Check GenChk RB3LYP/6-31G(2df,p) Fr
 eq
 ----------------------------------------------------------------------

 Structure from the checkpoint file:  "/scratch/puck/g09_db3cc10e-367b-44c0-8e74-944d3656d24f/Gau-107407.chk"
 -----
 titel
 -----
 Charge =  0 Multiplicity = 1

                         Standard orientation:
 ---------------------------------------------------------------------
 Center     Atomic      Atomic             Coordinates (Angstroms)
 Number     Number       Type             X           Y           Z
 ---------------------------------------------------------------------
      1          6           0        2.916707    0.000949   -0.000009
      2          8           0        1.785617   -0.846619    0.000011
      3          6           0        0.551158   -0.218405    0.000006
      4          6           0        0.085102    0.820976   -1.072316
      5          6           0       -1.015777    1.123889   -0.000002
      6          6           0        0.085094    0.820979    1.072322
      7          6           0       -1.769546   -0.197784   -0.000001
      8          8           0       -2.953124   -0.399544   -0.000007
      9          6           0       -0.614890   -1.220854    0.000000
     10          1           0        2.952705    0.640824    0.892361
     11          1           0        3.793861   -0.649399    0.000036
     12          1           0        2.952734    0.640739   -0.892438
     13          1           0        0.768916    1.665203   -1.181620
     14          1           0       -0.228930    0.452680   -2.052494
     15          1           0       -1.598614    2.041148   -0.000006
     16          1           0        0.768904    1.665208    1.181629
     17          1           0       -0.228946    0.452685    2.052498
     18          1           0       -0.633832   -1.859137    0.888071
     19          1           0       -0.633828   -1.859134   -0.888073
 ---------------------------------------------------------------------

 SCF Done:  E(RB3LYP) =  -423.186578098     A.U. after    1 cycles

 The electronic state is 1-A.
 Alpha  occ. eigenvalues --  -19.15451 -19.12839 -10.26668 -10.25419 -10.23379
 Alpha  occ. eigenvalues --  -10.20546 -10.19966 -10.19965 -10.18851  -1.05038
 Alpha  occ. eigenvalues --   -1.03938  -0.89696  -0.73941  -0.70589  -0.67946
 Alpha  occ. eigenvalues --   -0.65216  -0.56051  -0.53672  -0.50742  -0.48645
 Alpha  occ. eigenvalues --   -0.46840  -0.45767  -0.44189  -0.42055  -0.39704
 Alpha  occ. eigenvalues --   -0.39321  -0.38344  -0.37825  -0.36553  -0.34565
 Alpha  occ. eigenvalues --   -0.32948  -0.30252  -0.26190  -0.23742
 Alpha virt. eigenvalues --   -0.00651   0.07965   0.09818   0.10414   0.12325
 Alpha virt. eigenvalues --    0.13725   0.14403   0.14714   0.15721   0.16153
 Alpha virt. eigenvalues --    0.17300   0.17685   0.18723   0.19643   0.22541

 Mulliken charges:
               1
     1  C   -0.262590
     2  O   -0.298707
     3  C    0.456922
     4  C   -0.306659
     5  C   -0.134859
     6  C   -0.306659
     7  C    0.439606
     8  O   -0.334157
     9  C   -0.391601
    10  H    0.113010
    11  H    0.133621
    12  H    0.113010
    13  H    0.108387
    14  H    0.108776
    15  H    0.087200
    16  H    0.108387
    17  H    0.108776
    18  H    0.128767
    19  H    0.128767
 Sum of Mulliken charges =   0.00000

 Dipole moment (field-independent basis, Debye):
    X=              3.1631    Y=              1.6143    Z=              0.0000  Tot=              3.5512
 Quadrupole moment (field-independent basis, Debye-Ang):
   XX=            -61.7087   YY=            -52.6095   ZZ=            -51.4677
   XY=              0.6198   XZ=             -0.0001   YZ=              0.0000

  Exact polarizability:  90.556   2.003  70.687   0.000   0.000  65.699
 Approx polarizability: 126.464   3.418 106.657   0.000   0.000 100.512

                      1                      2                      3
                      A                      A                      A
 Frequencies --     79.4216               141.6919               201.0066
 Red. masses --      2.6346                 2.5456                 1.3525
 Frc consts  --      0.0098                 0.0301                 0.0322
 IR Inten    --      0.1861                 5.0727                 3.4855

                      4                      5                      6
                      A                      A                      A
 Frequencies --    208.9672               344.7671               368.3830
 Red. masses --      3.4703                 2.6903                 4.2642
 Frc consts  --      0.0893                 0.1884                 0.3409
 IR Inten    --      0.9232                 2.4934                 1.8946

                      7                      8                      9
                      A                      A                      A
 Frequencies --    444.3935               485.3632               490.6286
 Red. masses --      2.2796                 4.4158                 2.1970
 Frc consts  --      0.2652                 0.6129                 0.3116
 IR Inten    --      0.8130                 6.4383                 1.7138

                     10                     11                     12
                      A                      A                      A
 Frequencies --    593.1647               617.5881               635.6936
 Red. masses --      3.1900                 2.3233                 4.1162
 Frc consts  --      0.6613                 0.5221                 0.9800
 IR Inten    --      6.5677                 0.3632                 8.2467

                     13                     14                     15
                      A                      A                      A
 Frequencies --    768.3072               808.0880               810.6136
 Red. masses --      3.1473                 3.0680                 3.3144
 Frc consts  --      1.0946                 1.1804                 1.2832
 IR Inten    --      8.1407                 0.5854                 8.1266

                     16                     17                     18
                      A                      A                      A
 Frequencies --    908.0515               938.1761               944.8321
 Red. masses --      1.9482                 1.9876                 1.4237
 Frc consts  --      0.9465                 1.0308                 0.7488
 IR Inten    --      2.4717                 0.6914                 0.4428

                     19                     20                     21
                      A                      A                      A
 Frequencies --   1001.6556              1010.3017              1018.3088
 Red. masses --      1.4868                 2.3226                 2.8540
 Frc consts  --      0.8789                 1.3968                 1.7437
 IR Inten    --      3.2135                 3.4312                14.2073

                     22                     23                     24
                      A                      A                      A
 Frequencies --   1066.2080              1066.8396              1121.7137
 Red. masses --      2.4267                 1.5143                 1.2951
 Frc consts  --      1.6253                 1.0155                 0.9601
 IR Inten    --     21.8541                 1.8044                 1.0611

                     25                     26                     27
                      A                      A                      A
 Frequencies --   1132.3530              1180.5910              1190.0183
 Red. masses --      2.2630                 1.2835                 1.4762
 Frc consts  --      1.7096                 1.0540                 1.2317
 IR Inten    --     52.0086                 1.8450                 1.4164

                     28                     29                     30
                      A                      A                      A
 Frequencies --   1190.7193              1220.1249              1226.3349
 Red. masses --      1.7722                 1.6920                 1.7123
 Frc consts  --      1.4804                 1.4841                 1.5172
 IR Inten    --     27.3872                37.0092                 0.5871

                     31                     32                     33
                      A                      A                      A
 Frequencies --   1232.0364              1265.9538              1282.4339
 Red. masses --      1.5582                 2.2710                 2.6332
 Frc consts  --      1.3935                 2.1444                 2.5515
 IR Inten    --      0.2074                17.8644                53.7653

                     34                     35                     36
                      A                      A                      A
 Frequencies --   1330.3295              1461.4031              1484.9435
 Red. masses --      2.4789                 1.0978                 1.1775
 Frc consts  --      2.5848                 1.3814                 1.5298
 IR Inten    --    185.8470                 5.1255                 3.5555

                     37                     38                     39
                      A                      A                      A
 Frequencies --   1485.2619              1491.9416              1506.5410
 Red. masses --      1.0895                 1.0525                 1.0548
 Frc consts  --      1.4161                 1.3803                 1.4105
 IR Inten    --      0.1743                 6.8605                15.9985

                     40                     41                     42
                      A                      A                      A
 Frequencies --   1524.9399              1873.1205              2997.2676
 Red. masses --      1.1505                12.3590                 1.0353
 Frc consts  --      1.5764                25.5484                 5.4798
 IR Inten    --      6.5998               275.5658                39.1755

                     43                     44                     45
                      A                      A                      A
 Frequencies --   3049.8360              3061.2855              3061.6483
 Red. masses --      1.0986                 1.0584                 1.0604
 Frc consts  --      6.0209                 5.8440                 5.8565
 IR Inten    --     18.9025                14.8756                69.9453

                     46                     47                     48
                      A                      A                      A
 Frequencies --   3066.1054              3110.9076              3123.5237
 Red. masses --      1.0582                 1.1050                 1.0984
 Frc consts  --      5.8614                 6.3006                 6.3139
 IR Inten    --      2.4134                 7.7010                28.7854

                     49                     50                     51
                      A                      A                      A
 Frequencies --   3125.7700              3129.0226              3159.3125
 Red. masses --      1.1101                 1.1077                 1.0916
 Frc consts  --      6.3901                 6.3900                 6.4196
 IR Inten    --     11.1200                28.5865                20.0300

 - Thermochemistry -
 -------------------
 Temperature   298.150 Kelvin.  Pressure   1.00000 Atm.
 Atom     1 has atomic number  6 and mass  12.00000

 Molecular mass:   126.06808 amu.
 Principal axes and moments of inertia in atomic units:
                           1         2         3
     Eigenvalues --   445.275231533.017731677.62745
           X            0.99995   0.00966   0.00000
           Y           -0.00966   0.99995   0.00000
           Z            0.00000   0.00000   1.00000
 This molecule is an asymmetric top.
 Rotational symmetry number  1.
 Warning -- assumption of classical behavior for rotation
           may cause significant error
 Rotational temperatures (Kelvin)      0.19452     0.05650     0.05163
 Rotational constants (GHZ):           4.05309     1.17725     1.07577
 Zero-point vibrational energy     418919.6 (Joules/Mol)
                                  100.12419 (Kcal/Mol)
 Warning -- explicit consideration of  11 degrees of freedom as
           vibrations may cause significant error
 Vibrational temperatures:    114.27   203.86   289.20   300.66   496.04
          (Kelvin)            530.02   639.38   698.33   705.90   853.43
                              888.57   914.62  1105.42  1162.66  1166.29
                             1306.48  1349.82  1359.40  1441.16  1453.60
                             1465.12  1534.03  1534.94  1613.89  1629.20
                             1698.61  1712.17  1713.18  1755.49  1764.42
                             1772.62  1821.42  1845.13  1914.05  2102.63
                             2136.50  2136.96  2146.57  2167.57  2194.05
                             2695.00  4312.39  4388.03  4404.50  4405.02
                             4411.44  4475.90  4494.05  4497.28  4501.96
                             4545.54

 Zero-point correction=                           0.159558 (Hartree/Particle)
 Thermal correction to Energy=                    0.167585
 Thermal correction to Enthalpy=                  0.168529
 Thermal correction to Gibbs Free Energy=         0.126968
 Sum of electronic and zero-point Energies=           -423.027020
 Sum of electronic and thermal Energies=              -423.018993
 Sum of electronic and thermal Enthalpies=            -423.018049
 Sum of electronic and thermal Free Energies=         -423.059610

                     E (Thermal)             CV                S
                      KCal/Mol        Cal/Mol-Kelvin    Cal/Mol-Kelvin
 Total                  105.161             31.285             87.474
 Electronic               0.000              0.000              0.000
 Translational            0.889              2.981             40.409
 Rotational               0.889              2.981             28.528
 Vibrational            103.384             25.323             18.537
 Vibration     1          0.600              1.963              3.905
 Vibration     2          0.615              1.912              2.781
 Vibration     3          0.638              1.838              2.124
 Vibration     4          0.642              1.827              2.053
 Vibration     5          0.723              1.586              1.190
 Vibration     6          0.741              1.537              1.087
 Vibration     7          0.804              1.373              0.813
 Vibration     8          0.841              1.283              0.696
 Vibration     9          0.846              1.271              0.682
 Vibration    10          0.951              1.046              0.462
 Vibration    11          0.977              0.995              0.420

 Optimization completed.
    -- Stationary point found.
 Normal termination of Gaussian 09 at Tue Jan 28 09:58:59 2020.
