 Gaussian 09, Revision D.01,
 Gaussian 09:  ES64L-G09RevD.01 24-Apr-2013

 -----------------------------
 # b3lyp 6-31G(2df,p) opt Freq
 -----------------------------

 -----
 titel
 -----
 Symbolic Z-matrix:
 Charge =  0 Multiplicity = 1

 SCF Done:  E(RB3LYP) =  -423.194283833     A.U. after   14 cycles
 Optimization completed.
    -- Stationary point found.
 Normal termination of Gaussian 09 at Mon Jan 27 16:48:15 2020.

 ----------------------------------------------------------------------
 #N Geom=AllCheck Guess=TCheck SCRF=Check GenChk RB3LYP/6-31G(2df,p) Fr
 eq
 ----------------------------------------------------------------------

 Structure from the checkpoint file:  "/scratch/puck/g09_2fb855d5-9d15-4384-854a-d2dc5bd2a630/Gau-84749.chk"
 -----
 titel
 -----
 Charge =  0 Multiplicity = 1

                         Standard orientation:
 ---------------------------------------------------------------------
 Center     Atomic      Atomic             Coordinates (Angstroms)
 Number     Number       Type             X           Y           Z
 ---------------------------------------------------------------------
      1          6           0       -1.062910    1.286107    1.026549
      2          6           0       -0.494936    0.215089    0.091349
      3          6           0        0.361540    0.812800   -1.073136
      4          6           0        1.820184    0.866616   -0.556504
      5          6           0        1.887795   -0.259578    0.450969
      6          8           0        1.316627   -1.487933   -0.024843
      7          6           0        0.526146   -0.653931    0.831641
      8          6           0       -1.596806   -0.658623   -0.484224
      9          8           0       -2.775971   -0.499139   -0.296438
     10          1           0       -1.813466    1.885740    0.506219
     11          1           0       -1.553351    0.833926    1.893557
     12          1           0       -0.271355    1.950133    1.386974
     13          1           0        0.309737    0.155670   -1.945268
     14          1           0       -0.017420    1.791063   -1.377240
     15          1           0        2.548518    0.756232   -1.365358
     16          1           0        2.035228    1.813717   -0.047973
     17          1           0        2.737492   -0.372199    1.119287
     18          1           0        0.272691   -1.078526    1.800306
     19          1           0       -1.219403   -1.490055   -1.120122
 ---------------------------------------------------------------------

 SCF Done:  E(RB3LYP) =  -423.194283833     A.U. after    1 cycles

 The electronic state is 1-A.
 Alpha  occ. eigenvalues --  -19.15933 -19.13919 -10.26636 -10.24512 -10.24457
 Alpha  occ. eigenvalues --  -10.20924 -10.19859 -10.19812 -10.18302  -1.08173
 Alpha  occ. eigenvalues --   -1.04571  -0.83631  -0.76318  -0.68948  -0.67604
 Alpha  occ. eigenvalues --   -0.61945  -0.58754  -0.54831  -0.52406  -0.47958
 Alpha  occ. eigenvalues --   -0.47664  -0.44656  -0.42531  -0.41959  -0.40055
 Alpha  occ. eigenvalues --   -0.38945  -0.37986  -0.37740  -0.35499  -0.35424
 Alpha  occ. eigenvalues --   -0.34109  -0.30707  -0.27460  -0.24611
 Alpha virt. eigenvalues --   -0.02197   0.08364   0.09822   0.10456   0.11613
 Alpha virt. eigenvalues --    0.12553   0.12726   0.14132   0.14458   0.15996
 Alpha virt. eigenvalues --    0.17524   0.18609   0.19798   0.19974   0.20775

 Mulliken charges:
               1
     1  C   -0.442377
     2  C    0.169463
     3  C   -0.272051
     4  C   -0.248475
     5  C    0.053803
     6  O   -0.266439
     7  C    0.007969
     8  C    0.122865
     9  O   -0.254771
    10  H    0.135321
    11  H    0.127655
    12  H    0.112057
    13  H    0.119677
    14  H    0.112157
    15  H    0.116412
    16  H    0.111041
    17  H    0.099781
    18  H    0.102247
    19  H    0.093665
 Sum of Mulliken charges =   0.00000

 Dipole moment (field-independent basis, Debye):
    X=              2.5241    Y=              1.7709    Z=              0.6238  Tot=              3.1459
 Quadrupole moment (field-independent basis, Debye-Ang):
   XX=            -60.9451   YY=            -54.7918   ZZ=            -50.4060
   XY=              1.4123   XZ=              0.2930   YZ=             -1.2775

  Exact polarizability:  88.506   1.660  68.612  -2.313   0.349  66.992
 Approx polarizability: 129.579   1.473 104.519  -5.386   2.879  99.730

                      1                      2                      3
                      A                      A                      A
 Frequencies --     84.1252               122.9882               194.2469
 Red. masses --      4.5595                 3.4872                 1.2858
 Frc consts  --      0.0190                 0.0311                 0.0286
 IR Inten    --      3.8639                 1.9393                 0.9944

                      4                      5                      6
                      A                      A                      A
 Frequencies --    219.5952               264.1932               328.6205
 Red. masses --      1.7560                 3.1908                 1.9764
 Frc consts  --      0.0499                 0.1312                 0.1258
 IR Inten    --      3.8058                 4.9673                 0.9467

                      7                      8                      9
                      A                      A                      A
 Frequencies --    363.3601               378.1608               435.4968
 Red. masses --      2.4024                 2.8796                 5.5295
 Frc consts  --      0.1869                 0.2426                 0.6179
 IR Inten    --      2.1202                 1.8735                 1.2937

                     10                     11                     12
                      A                      A                      A
 Frequencies --    483.9928               678.3457               712.0391
 Red. masses --      4.2975                 3.0674                 3.1074
 Frc consts  --      0.5931                 0.8316                 0.9282
 IR Inten    --      8.9633                 3.1207                15.6626

                     13                     14                     15
                      A                      A                      A
 Frequencies --    766.3313               829.6383               837.5190
 Red. masses --      2.8152                 1.9781                 4.3432
 Frc consts  --      0.9741                 0.8022                 1.7949
 IR Inten    --      0.2415                 9.0118                 2.7633

                     16                     17                     18
                      A                      A                      A
 Frequencies --    866.4306               909.0901               938.8258
 Red. masses --      2.5853                 2.5500                 2.1388
 Frc consts  --      1.1435                 1.2417                 1.1107
 IR Inten    --     21.6584                 1.4179                42.3973

                     19                     20                     21
                      A                      A                      A
 Frequencies --    948.4654               998.9568              1007.4579
 Red. masses --      2.2026                 1.9680                 1.9762
 Frc consts  --      1.1675                 1.1571                 1.1818
 IR Inten    --      7.3074                 4.8526                 4.1202

                     22                     23                     24
                      A                      A                      A
 Frequencies --   1033.8558              1041.3848              1104.7253
 Red. masses --      1.6256                 1.3804                 1.3057
 Frc consts  --      1.0237                 0.8820                 0.9388
 IR Inten    --      1.0829                 4.3032                 3.0864

                     25                     26                     27
                      A                      A                      A
 Frequencies --   1148.6916              1171.2289              1188.5563
 Red. masses --      1.8881                 1.9863                 2.1448
 Frc consts  --      1.4678                 1.6054                 1.7851
 IR Inten    --      4.3718                 1.2200                 2.7942

                     28                     29                     30
                      A                      A                      A
 Frequencies --   1240.4288              1252.9402              1261.6736
 Red. masses --      1.5902                 1.9352                 1.4058
 Frc consts  --      1.4416                 1.7900                 1.3185
 IR Inten    --      1.5616                 6.8056                 4.3300

                     31                     32                     33
                      A                      A                      A
 Frequencies --   1317.8903              1336.4099              1356.6998
 Red. masses --      1.5210                 1.4675                 1.4600
 Frc consts  --      1.5564                 1.5443                 1.5834
 IR Inten    --      2.6175                 1.1189                 1.6776

                     34                     35                     36
                      A                      A                      A
 Frequencies --   1407.1661              1424.5808              1428.8344
 Red. masses --      1.2165                 1.4162                 2.3094
 Frc consts  --      1.4192                 1.6934                 2.7779
 IR Inten    --      0.5838                 2.0191                20.8117

                     37                     38                     39
                      A                      A                      A
 Frequencies --   1478.3680              1487.1130              1494.3320
 Red. masses --      1.0917                 1.0571                 1.0937
 Frc consts  --      1.4058                 1.3773                 1.4389
 IR Inten    --      0.8598                 6.6218                 1.1272

                     40                     41                     42
                      A                      A                      A
 Frequencies --   1495.5044              1824.9152              2891.1635
 Red. masses --      1.0617                10.5576                 1.0834
 Frc consts  --      1.3991                20.7157                 5.3357
 IR Inten    --      7.1520               191.0603                76.7337

                     43                     44                     45
                      A                      A                      A
 Frequencies --   3043.2872              3045.6226              3065.1324
 Red. masses --      1.0485                 1.0489                 1.0630
 Frc consts  --      5.7213                 5.7324                 5.8840
 IR Inten    --     11.6518                26.4063                12.7378

                     46                     47                     48
                      A                      A                      A
 Frequencies --   3090.3510              3112.0514              3115.3850
 Red. masses --      1.0984                 1.1024                 1.1044
 Frc consts  --      6.1805                 6.2904                 6.3156
 IR Inten    --     19.3786                14.5205                22.5116

                     49                     50                     51
                      A                      A                      A
 Frequencies --   3127.1430              3140.6264              3155.8945
 Red. masses --      1.1009                 1.0871                 1.0950
 Frc consts  --      6.3428                 6.3179                 6.4258
 IR Inten    --     12.7836                13.8671                31.1924

 - Thermochemistry -
 -------------------
 Temperature   298.150 Kelvin.  Pressure   1.00000 Atm.
 Atom     1 has atomic number  6 and mass  12.00000

 Molecular mass:   126.06808 amu.
 Principal axes and moments of inertia in atomic units:
                           1         2         3
     Eigenvalues --   609.944601341.411941491.42353
           X            0.99989   0.00531  -0.01378
           Y           -0.00509   0.99985   0.01626
           Z            0.01387  -0.01619   0.99977
 This molecule is an asymmetric top.
 Rotational symmetry number  1.
 Warning -- assumption of classical behavior for rotation
           may cause significant error
 Rotational temperatures (Kelvin)      0.14200     0.06457     0.05807
 Rotational constants (GHZ):           2.95886     1.34540     1.21008
 Zero-point vibrational energy     416598.5 (Joules/Mol)
                                   99.56944 (Kcal/Mol)
 Warning -- explicit consideration of  10 degrees of freedom as
           vibrations may cause significant error
 Vibrational temperatures:    121.04   176.95   279.48   315.95   380.11
          (Kelvin)            472.81   522.79   544.09   626.58   696.36
                              975.99  1024.46  1102.58  1193.66  1205.00
                             1246.60  1307.98  1350.76  1364.63  1437.27
                             1449.51  1487.49  1498.32  1589.45  1652.71
                             1685.14  1710.07  1784.70  1802.70  1815.26
                             1896.15  1922.79  1951.99  2024.60  2049.65
                             2055.77  2127.04  2139.62  2150.01  2151.69
                             2625.64  4159.73  4378.61  4381.97  4410.04
                             4446.32  4477.54  4482.34  4499.26  4518.66
                             4540.62

 Zero-point correction=                           0.158674 (Hartree/Particle)
 Thermal correction to Energy=                    0.167099
 Thermal correction to Enthalpy=                  0.168043
 Thermal correction to Gibbs Free Energy=         0.125679
 Sum of electronic and zero-point Energies=           -423.035610
 Sum of electronic and thermal Energies=              -423.027185
 Sum of electronic and thermal Enthalpies=            -423.026241
 Sum of electronic and thermal Free Energies=         -423.068605

                     E (Thermal)             CV                S
                      KCal/Mol        Cal/Mol-Kelvin    Cal/Mol-Kelvin
 Total                  104.856             32.035             89.163
 Electronic               0.000              0.000              0.000
 Translational            0.889              2.981             40.409
 Rotational               0.889              2.981             28.591
 Vibrational            103.079             26.073             20.163
 Vibration     1          0.601              1.960              3.792
 Vibration     2          0.610              1.930              3.053
 Vibration     3          0.635              1.848              2.187
 Vibration     4          0.647              1.811              1.962
 Vibration     5          0.671              1.739              1.634
 Vibration     6          0.712              1.618              1.267
 Vibration     7          0.737              1.548              1.108
 Vibration     8          0.748              1.517              1.047
 Vibration     9          0.796              1.393              0.841
 Vibration    10          0.840              1.286              0.699

 Optimization completed.
    -- Stationary point found.
 Normal termination of Gaussian 09 at Mon Jan 27 17:30:44 2020.
