 Gaussian 09, Revision D.01,
 Gaussian 09:  ES64L-G09RevD.01 24-Apr-2013

 -----------------------------
 # b3lyp 6-31G(2df,p) opt Freq
 -----------------------------

 -----
 titel
 -----
 Symbolic Z-matrix:
 Charge =  0 Multiplicity = 1

 SCF Done:  E(RB3LYP) =  -423.225719040     A.U. after   14 cycles
 Optimization completed.
    -- Stationary point found.
 Normal termination of Gaussian 09 at Mon Jan 27 22:54:27 2020.

 ----------------------------------------------------------------------
 #N Geom=AllCheck Guess=TCheck SCRF=Check GenChk RB3LYP/6-31G(2df,p) Fr
 eq
 ----------------------------------------------------------------------

 Structure from the checkpoint file:  "/scratch/puck/g09_6c28a273-7c54-48dc-a971-e7085bde9e62/Gau-75171.chk"
 -----
 titel
 -----
 Charge =  0 Multiplicity = 1

                         Standard orientation:
 ---------------------------------------------------------------------
 Center     Atomic      Atomic             Coordinates (Angstroms)
 Number     Number       Type             X           Y           Z
 ---------------------------------------------------------------------
      1          6           0       -3.100775    0.180090   -0.280985
      2          6           0       -1.630450   -0.136864   -0.435450
      3          6           0       -0.830389   -0.567223    0.758744
      4          8           0        0.297644   -1.384407    0.511459
      5          6           0        1.268761   -0.687374   -0.153304
      6          8           0        2.305153   -1.189264   -0.474477
      7          6           0        0.812735    0.763041   -0.395029
      8          6           0        1.787149    1.746622    0.267431
      9          6           0       -0.594826    0.798868    0.168037
     10          1           0       -3.431884    0.898283   -1.038420
     11          1           0       -3.711648   -0.723008   -0.380891
     12          1           0       -3.310526    0.616898    0.701190
     13          1           0       -1.352653   -0.617462   -1.371663
     14          1           0       -1.281124   -0.761452    1.724230
     15          1           0        0.831403    0.923463   -1.479217
     16          1           0        1.516489    2.778322    0.025151
     17          1           0        1.777410    1.638062    1.356751
     18          1           0        2.804257    1.559545   -0.085188
     19          1           0       -0.937336    1.693755    0.675535
 ---------------------------------------------------------------------

 SCF Done:  E(RB3LYP) =  -423.225719040     A.U. after    1 cycles

 The electronic state is 1-A.
 Alpha  occ. eigenvalues --  -19.18335 -19.12229 -10.30125 -10.25061 -10.21137
 Alpha  occ. eigenvalues --  -10.20769 -10.20502 -10.19336 -10.18909  -1.10225
 Alpha  occ. eigenvalues --   -1.02361  -0.87609  -0.79189  -0.72255  -0.67801
 Alpha  occ. eigenvalues --   -0.61776  -0.59436  -0.55758  -0.51099  -0.48574
 Alpha  occ. eigenvalues --   -0.46059  -0.44343  -0.43071  -0.42503  -0.41218
 Alpha  occ. eigenvalues --   -0.40505  -0.39261  -0.38055  -0.36231  -0.35422
 Alpha  occ. eigenvalues --   -0.33584  -0.29052  -0.26671  -0.26532
 Alpha virt. eigenvalues --    0.01135   0.08636   0.09327   0.10002   0.11591
 Alpha virt. eigenvalues --    0.13400   0.14452   0.14483   0.15222   0.16369
 Alpha virt. eigenvalues --    0.17012   0.17307   0.18857   0.20526   0.21905

 Mulliken charges:
               1
     1  C   -0.419319
     2  C   -0.066645
     3  C    0.078852
     4  O   -0.217736
     5  C    0.421726
     6  O   -0.338258
     7  C   -0.155095
     8  C   -0.408710
     9  C   -0.081249
    10  H    0.126605
    11  H    0.128888
    12  H    0.118409
    13  H    0.099352
    14  H    0.111781
    15  H    0.114007
    16  H    0.120543
    17  H    0.125324
    18  H    0.145403
    19  H    0.096121
 Sum of Mulliken charges =   0.00000

 Dipole moment (field-independent basis, Debye):
    X=             -3.1370    Y=              2.8132    Z=              0.4307  Tot=              4.2356
 Quadrupole moment (field-independent basis, Debye-Ang):
   XX=            -56.9552   YY=            -56.2592   ZZ=            -51.2226
   XY=              5.3956   XZ=              0.8073   YZ=             -0.1299

  Exact polarizability:  93.091   1.010  70.719  -2.132   0.176  62.822
 Approx polarizability: 122.966  -2.598 105.487  -6.501  -0.932  98.873

                      1                      2                      3
                      A                      A                      A
 Frequencies --     81.5626               158.7942               202.7105
 Red. masses --      4.8745                 2.4647                 1.4761
 Frc consts  --      0.0191                 0.0366                 0.0357
 IR Inten    --      1.0515                 0.2015                 0.3497

                      4                      5                      6
                      A                      A                      A
 Frequencies --    210.9676               226.7430               258.1968
 Red. masses --      1.7150                 1.0915                 2.8345
 Frc consts  --      0.0450                 0.0331                 0.1113
 IR Inten    --      0.7139                 0.3506                 2.5072

                      7                      8                      9
                      A                      A                      A
 Frequencies --    319.5175               380.7310               436.1720
 Red. masses --      3.1214                 3.0627                 4.5840
 Frc consts  --      0.1878                 0.2616                 0.5138
 IR Inten    --      1.4319                 1.5949                 0.6286

                     10                     11                     12
                      A                      A                      A
 Frequencies --    504.8967               654.8964               718.0735
 Red. masses --      5.0758                 5.4717                 4.7325
 Frc consts  --      0.7624                 1.3827                 1.4377
 IR Inten    --      3.6225                 7.7283                 3.4813

                     13                     14                     15
                      A                      A                      A
 Frequencies --    726.9375               801.6299               825.5968
 Red. masses --      5.2573                 3.0743                 1.9242
 Frc consts  --      1.6368                 1.1640                 0.7728
 IR Inten    --      0.8681                 2.1046                16.8015

                     16                     17                     18
                      A                      A                      A
 Frequencies --    844.5003               891.7927               959.1394
 Red. masses --      2.2085                 1.7545                 2.0725
 Frc consts  --      0.9280                 0.8221                 1.1233
 IR Inten    --      3.8289                 7.6811                 5.5823

                     19                     20                     21
                      A                      A                      A
 Frequencies --   1011.1785              1025.1316              1051.8824
 Red. masses --      1.8060                 1.4328                 1.5528
 Frc consts  --      1.0880                 0.8871                 1.0123
 IR Inten    --      2.2826                 4.3406                64.4426

                     22                     23                     24
                      A                      A                      A
 Frequencies --   1077.0084              1089.4937              1113.6049
 Red. masses --      1.4500                 2.8879                 2.9193
 Frc consts  --      0.9910                 2.0196                 2.1330
 IR Inten    --     11.6468                26.7083                14.9234

                     25                     26                     27
                      A                      A                      A
 Frequencies --   1124.8625              1132.6637              1163.5285
 Red. masses --      1.8108                 2.1087                 2.0077
 Frc consts  --      1.3500                 1.5939                 1.6014
 IR Inten    --      4.3016                49.8062                29.5536

                     28                     29                     30
                      A                      A                      A
 Frequencies --   1180.1367              1217.4358              1281.7430
 Red. masses --      2.0559                 1.8337                 1.5899
 Frc consts  --      1.6870                 1.6013                 1.5390
 IR Inten    --    101.2908                10.2886                 7.5904

                     31                     32                     33
                      A                      A                      A
 Frequencies --   1293.9451              1327.5445              1351.9060
 Red. masses --      1.4497                 1.3396                 1.7421
 Frc consts  --      1.4301                 1.3910                 1.8760
 IR Inten    --     19.9743                 8.2819                 7.7829

                     34                     35                     36
                      A                      A                      A
 Frequencies --   1406.0573              1418.5664              1441.5999
 Red. masses --      1.2183                 1.2417                 2.5173
 Frc consts  --      1.4191                 1.4722                 3.0823
 IR Inten    --      2.9196                 1.9653                 6.9663

                     37                     38                     39
                      A                      A                      A
 Frequencies --   1493.3224              1496.7157              1500.5336
 Red. masses --      1.0455                 1.0465                 1.0499
 Frc consts  --      1.3737                 1.3812                 1.3928
 IR Inten    --      3.3920                 4.9398                 3.6617

                     40                     41                     42
                      A                      A                      A
 Frequencies --   1502.2561              1880.3299              3031.5988
 Red. masses --      1.0776                12.8494                 1.0350
 Frc consts  --      1.4329                26.7670                 5.6047
 IR Inten    --      6.3056               348.6980                30.9672

                     43                     44                     45
                      A                      A                      A
 Frequencies --   3040.7942              3044.2374              3096.7389
 Red. masses --      1.0469                 1.0703                 1.0998
 Frc consts  --      5.7031                 5.8442                 6.2142
 IR Inten    --     12.7632                15.3556                16.6379

                     46                     47                     48
                      A                      A                      A
 Frequencies --   3099.8874              3111.6238              3129.3320
 Red. masses --      1.1016                 1.1021                 1.1018
 Frc consts  --      6.2366                 6.2872                 6.3573
 IR Inten    --     18.8496                22.0665                10.8929

                     49                     50                     51
                      A                      A                      A
 Frequencies --   3129.5610              3171.5206              3191.4902
 Red. masses --      1.0896                 1.0897                 1.0927
 Frc consts  --      6.2877                 6.4576                 6.5576
 IR Inten    --     13.3065                 7.4975                13.7575

 - Thermochemistry -
 -------------------
 Temperature   298.150 Kelvin.  Pressure   1.00000 Atm.
 Atom     1 has atomic number  6 and mass  12.00000

 Molecular mass:   126.06808 amu.
 Principal axes and moments of inertia in atomic units:
                           1         2         3
     Eigenvalues --   591.242571426.567661786.55420
           X            0.99914   0.04054   0.00820
           Y           -0.04065   0.99909   0.01307
           Z           -0.00766  -0.01339   0.99988
 This molecule is an asymmetric top.
 Rotational symmetry number  1.
 Warning -- assumption of classical behavior for rotation
           may cause significant error
 Rotational temperatures (Kelvin)      0.14649     0.06071     0.04848
 Rotational constants (GHZ):           3.05245     1.26509     1.01018
 Zero-point vibrational energy     417682.7 (Joules/Mol)
                                   99.82855 (Kcal/Mol)
 Warning -- explicit consideration of  10 degrees of freedom as
           vibrations may cause significant error
 Vibrational temperatures:    117.35   228.47   291.65   303.53   326.23
          (Kelvin)            371.49   459.71   547.79   627.55   726.43
                              942.25  1033.15  1045.90  1153.37  1187.85
                             1215.05  1283.09  1379.99  1454.86  1474.93
                             1513.42  1549.57  1567.54  1602.23  1618.42
                             1629.65  1674.06  1697.95  1751.62  1844.14
                             1861.70  1910.04  1945.09  2023.00  2041.00
                             2074.14  2148.56  2153.44  2158.93  2161.41
                             2705.37  4361.79  4375.02  4379.97  4455.51
                             4460.04  4476.93  4502.41  4502.73  4563.11
                             4591.84

 Zero-point correction=                           0.159087 (Hartree/Particle)
 Thermal correction to Energy=                    0.167647
 Thermal correction to Enthalpy=                  0.168591
 Thermal correction to Gibbs Free Energy=         0.125916
 Sum of electronic and zero-point Energies=           -423.066632
 Sum of electronic and thermal Energies=              -423.058072
 Sum of electronic and thermal Enthalpies=            -423.057128
 Sum of electronic and thermal Free Energies=         -423.099803

                     E (Thermal)             CV                S
                      KCal/Mol        Cal/Mol-Kelvin    Cal/Mol-Kelvin
 Total                  105.200             32.304             89.817
 Electronic               0.000              0.000              0.000
 Translational            0.889              2.981             40.409
 Rotational               0.889              2.981             28.801
 Vibrational            103.422             26.343             20.607
 Vibration     1          0.600              1.962              3.853
 Vibration     2          0.621              1.893              2.564
 Vibration     3          0.639              1.836              2.108
 Vibration     4          0.643              1.824              2.035
 Vibration     5          0.650              1.800              1.905
 Vibration     6          0.667              1.749              1.674
 Vibration     7          0.705              1.636              1.313
 Vibration     8          0.750              1.511              1.036
 Vibration     9          0.797              1.391              0.839
 Vibration    10          0.860              1.239              0.646

 Normal termination of Gaussian 09 at Mon Jan 27 23:37:06 2020.
