 Gaussian 09, Revision D.01,
 Gaussian 09:  ES64L-G09RevD.01 24-Apr-2013

 -----------------------------
 # b3lyp 6-31G(2df,p) opt Freq
 -----------------------------

 -----
 titel
 -----
 Symbolic Z-matrix:
 Charge =  0 Multiplicity = 1

 SCF Done:  E(RB3LYP) =  -423.166282337     A.U. after   14 cycles
 Optimization completed.
    -- Stationary point found.
 Normal termination of Gaussian 09 at Mon Jan 27 22:01:12 2020.

 ----------------------------------------------------------------------
 #N Geom=AllCheck Guess=TCheck SCRF=Check GenChk RB3LYP/6-31G(2df,p) Fr
 eq
 ----------------------------------------------------------------------

 Structure from the checkpoint file:  "/scratch/puck/g09_df00fc53-14ac-4831-8c03-32292e72a208/Gau-98599.chk"
 -----
 titel
 -----
 Charge =  0 Multiplicity = 1

                         Standard orientation:
 ---------------------------------------------------------------------
 Center     Atomic      Atomic             Coordinates (Angstroms)
 Number     Number       Type             X           Y           Z
 ---------------------------------------------------------------------
      1          6           0        2.490839   -0.144958   -0.330971
      2          6           0        0.990727   -0.158995   -0.338706
      3          6           0       -0.000041   -0.780871   -1.385505
      4          6           0       -0.990752   -0.158956   -0.338676
      5          6           0       -2.490863   -0.144888   -0.330930
      6          6           0        0.000015    1.064748   -0.344477
      7          8           0        0.000077    1.997797    0.693972
      8          6           0       -0.000008   -0.717970    0.698126
      9          8           0        0.000001   -1.238883    1.774961
     10          1           0        2.861875    0.457417    0.504621
     11          1           0        2.895270   -1.156057   -0.220227
     12          1           0        2.890590    0.282233   -1.256294
     13          1           0       -0.000036   -0.287140   -2.361302
     14          1           0       -0.000076   -1.867260   -1.481640
     15          1           0       -2.861906    0.456651    0.505261
     16          1           0       -2.890591    0.283238   -1.255832
     17          1           0       -2.895316   -1.156088   -0.221208
     18          1           0        0.000000    1.628008   -1.281075
     19          1           0        0.000077    1.539026    1.543059
 ---------------------------------------------------------------------

 SCF Done:  E(RB3LYP) =  -423.166282337     A.U. after    1 cycles

 The electronic state is 1-A.
 Alpha  occ. eigenvalues --  -19.15186 -19.13910 -10.27194 -10.25422 -10.21222
 Alpha  occ. eigenvalues --  -10.21222 -10.20883 -10.18699 -10.18699  -1.05368
 Alpha  occ. eigenvalues --   -1.03589  -0.91711  -0.75554  -0.71993  -0.66757
 Alpha  occ. eigenvalues --   -0.64609  -0.57792  -0.53835  -0.47255  -0.46249
 Alpha  occ. eigenvalues --   -0.45448  -0.45028  -0.43936  -0.41389  -0.40639
 Alpha  occ. eigenvalues --   -0.40082  -0.38646  -0.37700  -0.37101  -0.34733
 Alpha  occ. eigenvalues --   -0.32514  -0.31887  -0.26543  -0.23735
 Alpha virt. eigenvalues --    0.00399   0.07886   0.10095   0.10633   0.12876
 Alpha virt. eigenvalues --    0.13176   0.13724   0.14012   0.14651   0.15639
 Alpha virt. eigenvalues --    0.17006   0.17972   0.20124   0.21203   0.21891

 Mulliken charges:
               1
     1  C   -0.516827
     2  C    0.139192
     3  C   -0.311538
     4  C    0.139181
     5  C   -0.516818
     6  C    0.115501
     7  O   -0.451497
     8  C    0.348274
     9  O   -0.339063
    10  H    0.134261
    11  H    0.132587
    12  H    0.125658
    13  H    0.104850
    14  H    0.114944
    15  H    0.134262
    16  H    0.125660
    17  H    0.132580
    18  H    0.094959
    19  H    0.293833
 Sum of Mulliken charges =   0.00000

 Dipole moment (field-independent basis, Debye):
    X=             -0.0001    Y=              0.0149    Z=             -2.2168  Tot=              2.2168
 Quadrupole moment (field-independent basis, Debye-Ang):
   XX=            -50.7392   YY=            -58.3570   ZZ=            -54.3477
   XY=             -0.0001   XZ=              0.0000   YZ=              3.4549

  Exact polarizability:  83.053   0.000  70.025   0.000  -1.283  75.818
 Approx polarizability: 107.092   0.000 109.818   0.000  -6.400 123.278

                      1                      2                      3
                      A                      A                      A
 Frequencies --    120.9518               151.1454               157.6822
 Red. masses --      4.4796                 1.0682                 1.1881
 Frc consts  --      0.0386                 0.0144                 0.0174
 IR Inten    --      3.3750                 0.1453                 0.4538

                      4                      5                      6
                      A                      A                      A
 Frequencies --    191.0006               196.7328               206.4142
 Red. masses --      3.5644                 2.5617                 2.5638
 Frc consts  --      0.0766                 0.0584                 0.0644
 IR Inten    --      0.2478                 0.1628                 0.0002

                      7                      8                      9
                      A                      A                      A
 Frequencies --    216.1106               318.5974               359.3408
 Red. masses --      3.5294                 1.1180                 3.1024
 Frc consts  --      0.0971                 0.0669                 0.2360
 IR Inten    --      1.8431                78.0829                 2.1510

                     10                     11                     12
                      A                      A                      A
 Frequencies --    468.0622               519.7130               563.2752
 Red. masses --      2.8640                 2.6910                 3.8667
 Frc consts  --      0.3697                 0.4282                 0.7228
 IR Inten    --     12.7222                 1.5605                 1.5672

                     13                     14                     15
                      A                      A                      A
 Frequencies --    592.5923               715.1925               717.3567
 Red. masses --      3.9518                 4.9400                 4.2583
 Frc consts  --      0.8176                 1.4888                 1.2911
 IR Inten    --      0.1273                 2.7998                 0.6473

                     16                     17                     18
                      A                      A                      A
 Frequencies --    735.3327               805.0597               843.9545
 Red. masses --      3.7796                 3.0944                 5.1629
 Frc consts  --      1.2041                 1.1817                 2.1666
 IR Inten    --      0.4968                 4.0729                47.0073

                     19                     20                     21
                      A                      A                      A
 Frequencies --    895.6453               920.5602              1012.9426
 Red. masses --      2.3962                 2.9298                 1.1664
 Frc consts  --      1.1325                 1.4628                 0.7051
 IR Inten    --     26.4484                 3.2147                 0.2367

                     22                     23                     24
                      A                      A                      A
 Frequencies --   1022.9724              1046.7907              1058.9408
 Red. masses --      1.5175                 1.2373                 1.4281
 Frc consts  --      0.9356                 0.7988                 0.9435
 IR Inten    --     19.2139                 0.0321                 3.2924

                     25                     26                     27
                      A                      A                      A
 Frequencies --   1141.8516              1144.9369              1169.1013
 Red. masses --      1.5908                 2.5638                 2.2902
 Frc consts  --      1.2220                 1.9802                 1.8443
 IR Inten    --      2.3887                99.8663                 6.4913

                     28                     29                     30
                      A                      A                      A
 Frequencies --   1185.8677              1201.4203              1300.7491
 Red. masses --      1.6877                 3.3882                 1.3829
 Frc consts  --      1.3984                 2.8814                 1.3786
 IR Inten    --      0.6979                60.0088                12.0248

                     31                     32                     33
                      A                      A                      A
 Frequencies --   1333.3819              1379.0869              1410.8598
 Red. masses --      3.6259                 1.8368                 1.3252
 Frc consts  --      3.7981                 2.0583                 1.5541
 IR Inten    --      1.4267                 3.1939                 1.0883

                     34                     35                     36
                      A                      A                      A
 Frequencies --   1420.6672              1443.5099              1486.4023
 Red. masses --      1.6038                 1.4349                 1.0464
 Frc consts  --      1.9072                 1.7616                 1.3621
 IR Inten    --      9.3662                50.6872                 0.0506

                     37                     38                     39
                      A                      A                      A
 Frequencies --   1487.0550              1488.8096              1489.7921
 Red. masses --      1.0484                 1.0432                 1.0463
 Frc consts  --      1.3659                 1.3624                 1.3682
 IR Inten    --      9.0379                 0.0342                11.3042

                     40                     41                     42
                      A                      A                      A
 Frequencies --   1520.4027              1890.2301              3034.6095
 Red. masses --      1.2087                12.5940                 1.0351
 Frc consts  --      1.6462                26.5121                 5.6160
 IR Inten    --      8.7226               311.2319                50.5304

                     43                     44                     45
                      A                      A                      A
 Frequencies --   3034.9640              3060.6660              3089.5304
 Red. masses --      1.0351                 1.0560                 1.0862
 Frc consts  --      5.6173                 5.8282                 6.1089
 IR Inten    --      0.0674                23.3392                18.7601

                     46                     47                     48
                      A                      A                      A
 Frequencies --   3102.8866              3102.9695              3105.0166
 Red. masses --      1.1010                 1.1012                 1.1012
 Frc consts  --      6.2456                 6.2473                 6.2550
 IR Inten    --     30.6268                 0.0377                 0.7073

                     49                     50                     51
                      A                      A                      A
 Frequencies --   3105.0312              3137.2528              3781.9558
 Red. masses --      1.1009                 1.1098                 1.0658
 Frc consts  --      6.2537                 6.4358                 8.9813
 IR Inten    --     24.4145                18.7024                23.5125

 - Thermochemistry -
 -------------------
 Temperature   298.150 Kelvin.  Pressure   1.00000 Atm.
 Atom     1 has atomic number  6 and mass  12.00000

 Molecular mass:   126.06808 amu.
 Principal axes and moments of inertia in atomic units:
                           1         2         3
     Eigenvalues --   849.064491182.582041257.09964
           X            1.00000   0.00000   0.00000
           Y            0.00000   0.98119   0.19303
           Z            0.00000  -0.19303   0.98119
 This molecule is an asymmetric top.
 Rotational symmetry number  1.
 Warning -- assumption of classical behavior for rotation
           may cause significant error
 Rotational temperatures (Kelvin)      0.10201     0.07324     0.06890
 Rotational constants (GHZ):           2.12556     1.52610     1.43564
 Zero-point vibrational energy     412026.0 (Joules/Mol)
                                   98.47658 (Kcal/Mol)
 Warning -- explicit consideration of  13 degrees of freedom as
           vibrations may cause significant error
 Vibrational temperatures:    174.02   217.46   226.87   274.81   283.05
          (Kelvin)            296.98   310.93   458.39   517.01   673.44
                              747.75   810.43   852.61  1029.00  1032.11
                             1057.98  1158.30  1214.26  1288.63  1324.48
                             1457.40  1471.83  1506.10  1523.58  1642.87
                             1647.31  1682.07  1706.20  1728.57  1871.49
                             1918.44  1984.20  2029.91  2044.02  2076.89
                             2138.60  2139.54  2142.06  2143.48  2187.52
                             2719.62  4366.12  4366.63  4403.61  4445.14
                             4464.36  4464.48  4467.42  4467.44  4513.80
                             5441.38

 Zero-point correction=                           0.156932 (Hartree/Particle)
 Thermal correction to Energy=                    0.166372
 Thermal correction to Enthalpy=                  0.167316
 Thermal correction to Gibbs Free Energy=         0.123218
 Sum of electronic and zero-point Energies=           -423.009350
 Sum of electronic and thermal Energies=              -422.999911
 Sum of electronic and thermal Enthalpies=            -422.998967
 Sum of electronic and thermal Free Energies=         -423.043064

                     E (Thermal)             CV                S
                      KCal/Mol        Cal/Mol-Kelvin    Cal/Mol-Kelvin
 Total                  104.400             35.057             92.811
 Electronic               0.000              0.000              0.000
 Translational            0.889              2.981             40.409
 Rotational               0.889              2.981             28.625
 Vibrational            102.622             29.095             23.777
 Vibration     1          0.609              1.932              3.085
 Vibration     2          0.619              1.901              2.658
 Vibration     3          0.621              1.894              2.577
 Vibration     4          0.634              1.852              2.218
 Vibration     5          0.636              1.844              2.163
 Vibration     6          0.641              1.831              2.075
 Vibration     7          0.645              1.816              1.991
 Vibration     8          0.705              1.638              1.317
 Vibration     9          0.734              1.556              1.125
 Vibration    10          0.825              1.321              0.743
 Vibration    11          0.875              1.206              0.611
 Vibration    12          0.919              1.111              0.517
 Vibration    13          0.950              1.048              0.463

 Normal termination of Gaussian 09 at Mon Jan 27 22:47:39 2020.
