 Gaussian 09, Revision D.01,
 Gaussian 09:  ES64L-G09RevD.01 24-Apr-2013

 -----------------------------
 # b3lyp 6-31G(2df,p) opt Freq
 -----------------------------

 -----
 titel
 -----
 Symbolic Z-matrix:
 Charge =  0 Multiplicity = 1

 SCF Done:  E(RB3LYP) =  -423.180910857     A.U. after   14 cycles
 Optimization completed.
    -- Stationary point found.
 Normal termination of Gaussian 09 at Mon Jan 27 22:04:40 2020.

 ----------------------------------------------------------------------
 #N Geom=AllCheck Guess=TCheck SCRF=Check GenChk RB3LYP/6-31G(2df,p) Fr
 eq
 ----------------------------------------------------------------------

 Structure from the checkpoint file:  "/scratch/puck/g09_28224fda-57b3-44fa-a265-43399868558b/Gau-189622.chk"
 -----
 titel
 -----
 Charge =  0 Multiplicity = 1

                         Standard orientation:
 ---------------------------------------------------------------------
 Center     Atomic      Atomic             Coordinates (Angstroms)
 Number     Number       Type             X           Y           Z
 ---------------------------------------------------------------------
      1          8           0        1.847463    1.531539   -0.297693
      2          6           0        0.721715    0.724890   -0.482426
      3          6           0        0.953661   -0.816276   -0.430126
      4          8           0        2.149617   -1.024349    0.305863
      5          6           0       -0.329355   -0.946900    0.441772
      6          6           0       -1.622851   -1.171153   -0.294175
      7          6           0       -2.378848   -0.072557   -0.344978
      8          6           0       -1.747754    1.111521    0.354984
      9          6           0       -0.329456    0.603540    0.669259
     10          1           0        2.451015    1.022645    0.259453
     11          1           0        0.243150    1.033023   -1.417297
     12          1           0        0.976377   -1.361292   -1.383018
     13          1           0        2.168858   -1.933363    0.619154
     14          1           0       -0.205447   -1.609510    1.306959
     15          1           0       -1.894340   -2.131725   -0.720127
     16          1           0       -3.353349   -0.014426   -0.818927
     17          1           0       -1.729303    2.009701   -0.276875
     18          1           0       -2.312122    1.383453    1.257355
     19          1           0        0.075854    0.945579    1.622103
 ---------------------------------------------------------------------

 SCF Done:  E(RB3LYP) =  -423.180910857     A.U. after    1 cycles

 The electronic state is 1-A.
 Alpha  occ. eigenvalues --  -19.15080 -19.12377 -10.22944 -10.22212 -10.18696
 Alpha  occ. eigenvalues --  -10.18337 -10.18246 -10.18095 -10.17777  -1.03784
 Alpha  occ. eigenvalues --   -1.00338  -0.85996  -0.76394  -0.71160  -0.64814
 Alpha  occ. eigenvalues --   -0.61721  -0.56283  -0.53387  -0.51140  -0.49909
 Alpha  occ. eigenvalues --   -0.48856  -0.43519  -0.43050  -0.40219  -0.38794
 Alpha  occ. eigenvalues --   -0.36926  -0.36009  -0.34482  -0.34045  -0.33717
 Alpha  occ. eigenvalues --   -0.29074  -0.27838  -0.25109  -0.23409
 Alpha virt. eigenvalues --    0.01846   0.06575   0.09638   0.11599   0.12913
 Alpha virt. eigenvalues --    0.13700   0.14185   0.15602   0.16012   0.17038
 Alpha virt. eigenvalues --    0.18147   0.19673   0.20066   0.20937   0.23278

 Mulliken charges:
               1
     1  O   -0.440123
     2  C    0.154582
     3  C    0.061313
     4  O   -0.451031
     5  C   -0.106754
     6  C   -0.090766
     7  C   -0.057234
     8  C   -0.281488
     9  C   -0.051833
    10  H    0.292362
    11  H    0.085079
    12  H    0.063968
    13  H    0.289100
    14  H    0.065040
    15  H    0.089787
    16  H    0.093683
    17  H    0.108775
    18  H    0.104970
    19  H    0.070570
 Sum of Mulliken charges =   0.00000

 Dipole moment (field-independent basis, Debye):
    X=             -1.0427    Y=             -2.3367    Z=              0.7056  Tot=              2.6543
 Quadrupole moment (field-independent basis, Debye-Ang):
   XX=            -53.8849   YY=            -51.4924   ZZ=            -52.4648
   XY=             -5.3869   XZ=              3.1083   YZ=              0.3100

  Exact polarizability:  86.606  -6.203  79.871   4.499   1.621  61.374
 Approx polarizability: 119.075 -12.803 124.737   7.456   0.194  94.979

                      1                      2                      3
                      A                      A                      A
 Frequencies --     88.9398               193.4731               203.9800
 Red. masses --      4.0948                 1.1607                 3.0487
 Frc consts  --      0.0191                 0.0256                 0.0747
 IR Inten    --      0.8324               105.8714                23.4440

                      4                      5                      6
                      A                      A                      A
 Frequencies --    266.2098               299.0187               330.7538
 Red. masses --      3.5406                 3.5287                 3.2961
 Frc consts  --      0.1478                 0.1859                 0.2125
 IR Inten    --      7.7205                 2.1262                 0.4825

                      7                      8                      9
                      A                      A                      A
 Frequencies --    372.2365               433.9658               450.1417
 Red. masses --      3.1648                 1.3124                 2.3222
 Frc consts  --      0.2584                 0.1456                 0.2772
 IR Inten    --      2.1263                75.3168                 1.8429

                     10                     11                     12
                      A                      A                      A
 Frequencies --    578.9417               714.6513               735.6216
 Red. masses --      3.9901                 1.9558                 2.5435
 Frc consts  --      0.7879                 0.5885                 0.8110
 IR Inten    --      6.9945                24.1165                18.9304

                     13                     14                     15
                      A                      A                      A
 Frequencies --    772.4764               799.2874               848.6496
 Red. masses --      4.2373                 2.8629                 2.7354
 Frc consts  --      1.4897                 1.0776                 1.1607
 IR Inten    --      9.2429                18.6974                 2.5730

                     16                     17                     18
                      A                      A                      A
 Frequencies --    867.7202               903.9321               942.2577
 Red. masses --      2.1299                 2.0024                 2.4015
 Frc consts  --      0.9448                 0.9640                 1.2562
 IR Inten    --      4.3487                 3.3766                 1.6349

                     19                     20                     21
                      A                      A                      A
 Frequencies --    975.4748               993.0572              1021.4851
 Red. masses --      1.2897                 2.4995                 2.2181
 Frc consts  --      0.7231                 1.4523                 1.3636
 IR Inten    --      0.3560                 1.6593                 4.0681

                     22                     23                     24
                      A                      A                      A
 Frequencies --   1028.4491              1041.6089              1092.1002
 Red. masses --      1.9394                 2.4611                 2.8712
 Frc consts  --      1.2086                 1.5732                 2.0176
 IR Inten    --      2.9335                13.0182                41.2347

                     25                     26                     27
                      A                      A                      A
 Frequencies --   1124.5636              1137.1734              1153.6585
 Red. masses --      1.3822                 1.5003                 1.2674
 Frc consts  --      1.0299                 1.1431                 0.9939
 IR Inten    --     27.1051                59.2659                 4.2085

                     28                     29                     30
                      A                      A                      A
 Frequencies --   1162.7455              1196.4073              1235.7472
 Red. masses --      1.5729                 1.6370                 1.4561
 Frc consts  --      1.2529                 1.3806                 1.3101
 IR Inten    --    124.8176                14.0555                 0.4763

                     31                     32                     33
                      A                      A                      A
 Frequencies --   1257.1176              1263.9476              1278.2902
 Red. masses --      1.4484                 1.3754                 1.4417
 Frc consts  --      1.3486                 1.2946                 1.3880
 IR Inten    --     15.8003                 2.5677                 2.8838

                     34                     35                     36
                      A                      A                      A
 Frequencies --   1307.9102              1323.5494              1350.5960
 Red. masses --      1.4116                 1.6059                 1.5345
 Frc consts  --      1.4227                 1.6575                 1.6492
 IR Inten    --     22.2791                13.3296                 5.9950

                     37                     38                     39
                      A                      A                      A
 Frequencies --   1381.5674              1401.2398              1450.7910
 Red. masses --      1.7165                 1.4648                 1.2327
 Frc consts  --      1.9304                 1.6946                 1.5287
 IR Inten    --      2.3624                 8.6766                82.6590

                     40                     41                     42
                      A                      A                      A
 Frequencies --   1481.7651              1674.6502              3010.3485
 Red. masses --      1.0936                 6.2762                 1.0669
 Frc consts  --      1.4148                10.3704                 5.6965
 IR Inten    --      1.9019                 1.2253                82.6814

                     43                     44                     45
                      A                      A                      A
 Frequencies --   3011.3200              3027.5451              3037.0489
 Red. masses --      1.0790                 1.0854                 1.1013
 Frc consts  --      5.7648                 5.8616                 5.9848
 IR Inten    --     23.1849                45.0309                18.8666

                     46                     47                     48
                      A                      A                      A
 Frequencies --   3063.3657              3108.2905              3173.1928
 Red. masses --      1.0865                 1.0877                 1.0841
 Frc consts  --      6.0075                 6.1919                 6.4313
 IR Inten    --     26.2990                27.1321                 6.5368

                     49                     50                     51
                      A                      A                      A
 Frequencies --   3198.5546              3765.7481              3831.3144
 Red. masses --      1.1032                 1.0648                 1.0664
 Frc consts  --      6.6498                 8.8969                 9.2233
 IR Inten    --     27.1118                47.9178                30.9397

 - Thermochemistry -
 -------------------
 Temperature   298.150 Kelvin.  Pressure   1.00000 Atm.
 Atom     1 has atomic number  8 and mass  15.99491

 Molecular mass:   126.06808 amu.
 Principal axes and moments of inertia in atomic units:
                           1         2         3
     Eigenvalues --   600.154451253.195311630.27099
           X            0.99962  -0.02689   0.00597
           Y            0.02680   0.99953   0.01512
           Z           -0.00637  -0.01496   0.99987
 This molecule is an asymmetric top.
 Rotational symmetry number  1.
 Warning -- assumption of classical behavior for rotation
           may cause significant error
 Rotational temperatures (Kelvin)      0.14432     0.06911     0.05313
 Rotational constants (GHZ):           3.00713     1.44011     1.10702
 Zero-point vibrational energy     420863.5 (Joules/Mol)
                                  100.58879 (Kcal/Mol)
 Warning -- explicit consideration of  10 degrees of freedom as
           vibrations may cause significant error
 Vibrational temperatures:    127.96   278.36   293.48   383.02   430.22
          (Kelvin)            475.88   535.56   624.38   647.65   832.97
                             1028.22  1058.39  1111.42  1149.99  1221.02
                             1248.45  1300.56  1355.70  1403.49  1428.79
                             1469.69  1479.71  1498.64  1571.29  1617.99
                             1636.14  1659.86  1672.93  1721.36  1777.96
                             1808.71  1818.54  1839.17  1881.79  1904.29
                             1943.20  1987.76  2016.07  2087.36  2131.93
                             2409.45  4331.21  4332.61  4355.96  4369.63
                             4407.49  4472.13  4565.51  4602.00  5418.06
                             5512.40

 Zero-point correction=                           0.160298 (Hartree/Particle)
 Thermal correction to Energy=                    0.168344
 Thermal correction to Enthalpy=                  0.169288
 Thermal correction to Gibbs Free Energy=         0.127908
 Sum of electronic and zero-point Energies=           -423.020612
 Sum of electronic and thermal Energies=              -423.012567
 Sum of electronic and thermal Enthalpies=            -423.011622
 Sum of electronic and thermal Free Energies=         -423.053003

                     E (Thermal)             CV                S
                      KCal/Mol        Cal/Mol-Kelvin    Cal/Mol-Kelvin
 Total                  105.638             31.770             87.093
 Electronic               0.000              0.000              0.000
 Translational            0.889              2.981             40.409
 Rotational               0.889              2.981             28.596
 Vibrational            103.860             25.809             18.088
 Vibration     1          0.602              1.957              3.683
 Vibration     2          0.635              1.849              2.194
 Vibration     3          0.640              1.834              2.097
 Vibration     4          0.672              1.735              1.621
 Vibration     5          0.692              1.676              1.422
 Vibration     6          0.713              1.614              1.256
 Vibration     7          0.744              1.529              1.071
 Vibration     8          0.795              1.396              0.846
 Vibration     9          0.809              1.361              0.795
 Vibration    10          0.936              1.077              0.487

 Optimization completed.
    -- Stationary point found.
 Normal termination of Gaussian 09 at Mon Jan 27 22:49:40 2020.
