 Gaussian 09, Revision D.01,
 Gaussian 09:  ES64L-G09RevD.01 24-Apr-2013

 -----------------------------
 # b3lyp 6-31G(2df,p) opt Freq
 -----------------------------

 -----
 titel
 -----
 Symbolic Z-matrix:
 Charge =  0 Multiplicity = 1

 SCF Done:  E(RB3LYP) =  -423.168817883     A.U. after   13 cycles
 Optimization completed.
    -- Stationary point found.
 Normal termination of Gaussian 09 at Mon Jan 27 11:25:08 2020.

 ----------------------------------------------------------------------
 #N Geom=AllCheck Guess=TCheck SCRF=Check GenChk RB3LYP/6-31G(2df,p) Fr
 eq
 ----------------------------------------------------------------------

 Structure from the checkpoint file:  "/scratch/puck/g09_d4a5c63f-2146-4d18-85d3-04729473e5ba/Gau-22658.chk"
 -----
 titel
 -----
 Charge =  0 Multiplicity = 1

                         Standard orientation:
 ---------------------------------------------------------------------
 Center     Atomic      Atomic             Coordinates (Angstroms)
 Number     Number       Type             X           Y           Z
 ---------------------------------------------------------------------
      1          6           0       -2.112164    0.037576    0.305554
      2          6           0       -1.160414    0.391720   -0.863611
      3          8           0       -0.476140   -0.853312   -1.078987
      4          6           0       -0.030093   -1.167270    0.260451
      5          6           0        1.493041   -1.014010    0.320613
      6          8           0        1.922077    0.159487   -0.336859
      7          6           0        1.219574    1.334548    0.025679
      8          6           0       -0.282107    1.146019    0.185541
      9          6           0       -0.755424   -0.063064    1.055592
     10          1           0       -2.722638    0.872403    0.655479
     11          1           0       -2.709310   -0.868870    0.182698
     12          1           0       -1.477332    0.810990   -1.817158
     13          1           0       -0.335818   -2.184392    0.529923
     14          1           0        1.817173   -1.035247    1.376899
     15          1           0        1.984484   -1.840385   -0.201019
     16          1           0        1.612418    1.737180    0.977263
     17          1           0        1.445442    2.068064   -0.756132
     18          1           0       -0.751622    2.082151    0.498590
     19          1           0       -0.664761   -0.084418    2.141302
 ---------------------------------------------------------------------

 SCF Done:  E(RB3LYP) =  -423.168817883     A.U. after    1 cycles

 The electronic state is 1-A.
 Alpha  occ. eigenvalues --  -19.13382 -19.13137 -10.23578 -10.22875 -10.22656
 Alpha  occ. eigenvalues --  -10.22341 -10.19808 -10.19316 -10.18590  -1.04955
 Alpha  occ. eigenvalues --   -1.01815  -0.84031  -0.76197  -0.71819  -0.66195
 Alpha  occ. eigenvalues --   -0.61215  -0.57068  -0.55376  -0.51207  -0.49026
 Alpha  occ. eigenvalues --   -0.47564  -0.46451  -0.43934  -0.40392  -0.38888
 Alpha  occ. eigenvalues --   -0.38452  -0.37533  -0.35664  -0.34455  -0.33259
 Alpha  occ. eigenvalues --   -0.29582  -0.29179  -0.24860  -0.23711
 Alpha virt. eigenvalues --    0.08393   0.11138   0.11414   0.12360   0.12975
 Alpha virt. eigenvalues --    0.13688   0.15089   0.16040   0.16437   0.16647
 Alpha virt. eigenvalues --    0.16885   0.18345   0.19224   0.20117   0.20599

 Mulliken charges:
               1
     1  C   -0.241992
     2  C    0.093568
     3  O   -0.278766
     4  C    0.086204
     5  C   -0.093140
     6  O   -0.237060
     7  C   -0.108377
     8  C   -0.027978
     9  C   -0.084758
    10  H    0.099551
    11  H    0.100541
    12  H    0.080597
    13  H    0.073826
    14  H    0.079672
    15  H    0.114615
    16  H    0.084801
    17  H    0.111077
    18  H    0.077256
    19  H    0.070362
 Sum of Mulliken charges =   0.00000

 Dipole moment (field-independent basis, Debye):
    X=             -1.2287    Y=              0.8451    Z=              1.9088  Tot=              2.4223
 Quadrupole moment (field-independent basis, Debye-Ang):
   XX=            -55.3246   YY=            -49.7985   ZZ=            -54.0977
   XY=             -1.6822   XZ=              1.3722   YZ=             -2.3986

  Exact polarizability:  78.703  -1.598  76.743   1.472  -2.274  66.532
 Approx polarizability: 106.219  -2.538 112.956   0.847  -1.729 106.734

                      1                      2                      3
                      A                      A                      A
 Frequencies --    209.8373               237.9496               341.6417
 Red. masses --      2.9321                 2.8259                 3.0604
 Frc consts  --      0.0761                 0.0943                 0.2105
 IR Inten    --      3.3762                 1.3788                 2.5986

                      4                      5                      6
                      A                      A                      A
 Frequencies --    356.0010               443.4880               486.5700
 Red. masses --      2.1587                 6.2482                 2.3430
 Frc consts  --      0.1612                 0.7241                 0.3268
 IR Inten    --      1.4952                 0.7416                 1.6517

                      7                      8                      9
                      A                      A                      A
 Frequencies --    615.1858               706.3778               731.6511
 Red. masses --      4.7195                 4.0689                 3.5440
 Frc consts  --      1.0524                 1.1962                 1.1178
 IR Inten    --      6.1597                 0.9380                 4.8292

                     10                     11                     12
                      A                      A                      A
 Frequencies --    815.1025               836.2004               846.3455
 Red. masses --      2.6794                 3.3763                 2.3850
 Frc consts  --      1.0488                 1.3909                 1.0065
 IR Inten    --      5.9119                21.2825                 3.2342

                     13                     14                     15
                      A                      A                      A
 Frequencies --    860.0807               873.8962               919.9884
 Red. masses --      2.5463                 3.2216                 2.1479
 Frc consts  --      1.1098                 1.4496                 1.0711
 IR Inten    --      4.7507                24.0307                 9.9998

                     16                     17                     18
                      A                      A                      A
 Frequencies --    928.7850               994.5938              1001.3593
 Red. masses --      3.7543                 1.7859                 2.1317
 Frc consts  --      1.9081                 1.0409                 1.2594
 IR Inten    --     18.3383                 6.7308                19.4719

                     19                     20                     21
                      A                      A                      A
 Frequencies --   1008.4757              1029.7077              1053.4043
 Red. masses --      1.5394                 1.9283                 2.0547
 Frc consts  --      0.9224                 1.2047                 1.3433
 IR Inten    --      6.7752                 1.3233                 0.1061

                     22                     23                     24
                      A                      A                      A
 Frequencies --   1070.1215              1089.7425              1111.4815
 Red. masses --      2.6446                 1.7703                 1.7315
 Frc consts  --      1.7843                 1.2386                 1.2603
 IR Inten    --     20.1654                12.1536                 3.0229

                     25                     26                     27
                      A                      A                      A
 Frequencies --   1116.5942              1178.3512              1190.6560
 Red. masses --      1.3982                 2.4046                 2.2275
 Frc consts  --      1.0271                 1.9672                 1.8605
 IR Inten    --      2.3938                47.6711                46.5920

                     28                     29                     30
                      A                      A                      A
 Frequencies --   1221.3133              1245.3489              1260.7886
 Red. masses --      1.5165                 1.5885                 1.3694
 Frc consts  --      1.3328                 1.4515                 1.2825
 IR Inten    --      9.2807                 1.2603                14.4881

                     31                     32                     33
                      A                      A                      A
 Frequencies --   1274.8086              1278.7341              1311.7915
 Red. masses --      1.2523                 1.4869                 1.2669
 Frc consts  --      1.1991                 1.4325                 1.2844
 IR Inten    --      2.0211                 9.4608                 1.0098

                     34                     35                     36
                      A                      A                      A
 Frequencies --   1334.4092              1353.4976              1371.3863
 Red. masses --      1.6813                 1.3952                 1.8947
 Frc consts  --      1.7639                 1.5059                 2.0994
 IR Inten    --      2.9882                 5.6670                 1.9094

                     37                     38                     39
                      A                      A                      A
 Frequencies --   1387.8392              1427.9434              1488.8691
 Red. masses --      1.2890                 1.3235                 1.0967
 Frc consts  --      1.4628                 1.5900                 1.4323
 IR Inten    --      2.1451                 9.4898                 0.7299

                     40                     41                     42
                      A                      A                      A
 Frequencies --   1490.3971              1500.2586              2937.9250
 Red. masses --      1.1120                 1.1077                 1.0720
 Frc consts  --      1.4553                 1.4689                 5.4515
 IR Inten    --      1.7663                 3.4087                57.5501

                     43                     44                     45
                      A                      A                      A
 Frequencies --   2948.8853              3044.4256              3061.9436
 Red. masses --      1.0717                 1.0869                 1.0891
 Frc consts  --      5.4907                 5.9354                 6.0159
 IR Inten    --     81.3636                43.5514                27.0764

                     46                     47                     48
                      A                      A                      A
 Frequencies --   3066.4149              3082.5241              3085.1877
 Red. masses --      1.0573                 1.0845                 1.0904
 Frc consts  --      5.8573                 6.0717                 6.1153
 IR Inten    --     32.7300                42.7224                18.6006

                     49                     50                     51
                      A                      A                      A
 Frequencies --   3121.5415              3133.6246              3138.6797
 Red. masses --      1.0900                 1.1094                 1.0926
 Frc consts  --      6.2575                 6.4186                 6.3419
 IR Inten    --     40.2584                25.5391                35.5976

 - Thermochemistry -
 -------------------
 Temperature   298.150 Kelvin.  Pressure   1.00000 Atm.
 Atom     1 has atomic number  6 and mass  12.00000

 Molecular mass:   126.06808 amu.
 Principal axes and moments of inertia in atomic units:
                           1         2         3
     Eigenvalues --   577.21514 977.108441136.02203
           X            0.99986  -0.01511   0.00666
           Y            0.01543   0.99862  -0.05010
           Z           -0.00589   0.05020   0.99872
 This molecule is an asymmetric top.
 Rotational symmetry number  1.
 Warning -- assumption of classical behavior for rotation
           may cause significant error
 Rotational temperatures (Kelvin)      0.15005     0.08864     0.07624
 Rotational constants (GHZ):           3.12664     1.84702     1.58865
 Zero-point vibrational energy     428395.4 (Joules/Mol)
                                  102.38897 (Kcal/Mol)
 Warning -- explicit consideration of   7 degrees of freedom as
           vibrations may cause significant error
 Vibrational temperatures:    301.91   342.36   491.55   512.21   638.08
          (Kelvin)            700.06   885.11  1016.32  1052.68  1172.75
                             1203.10  1217.70  1237.46  1257.34  1323.66
                             1336.31  1431.00  1440.73  1450.97  1481.52
                             1515.61  1539.66  1567.89  1599.17  1606.53
                             1695.38  1713.09  1757.20  1791.78  1813.99
                             1834.16  1839.81  1887.37  1919.91  1947.38
                             1973.12  1996.79  2054.49  2142.15  2144.35
                             2158.53  4227.01  4242.78  4380.24  4405.45
                             4411.88  4435.06  4438.89  4491.20  4508.58
                             4515.85

 Zero-point correction=                           0.163167 (Hartree/Particle)
 Thermal correction to Energy=                    0.169514
 Thermal correction to Enthalpy=                  0.170458
 Thermal correction to Gibbs Free Energy=         0.132782
 Sum of electronic and zero-point Energies=           -423.005651
 Sum of electronic and thermal Energies=              -422.999304
 Sum of electronic and thermal Enthalpies=            -422.998360
 Sum of electronic and thermal Free Energies=         -423.036035

                     E (Thermal)             CV                S
                      KCal/Mol        Cal/Mol-Kelvin    Cal/Mol-Kelvin
 Total                  106.372             26.959             79.295
 Electronic               0.000              0.000              0.000
 Translational            0.889              2.981             40.409
 Rotational               0.889              2.981             27.951
 Vibrational            104.594             20.997             10.935
 Vibration     1          0.642              1.826              2.045
 Vibration     2          0.656              1.783              1.818
 Vibration     3          0.721              1.592              1.204
 Vibration     4          0.732              1.563              1.140
 Vibration     5          0.803              1.375              0.816
 Vibration     6          0.843              1.280              0.693
 Vibration     7          0.975              1.000              0.424

 Normal termination of Gaussian 09 at Mon Jan 27 13:01:19 2020.
