 Gaussian 09, Revision D.01,
 Gaussian 09:  ES64L-G09RevD.01 24-Apr-2013

 -----------------------------
 # b3lyp 6-31G(2df,p) opt Freq
 -----------------------------

 -----
 titel
 -----
 Symbolic Z-matrix:
 Charge =  0 Multiplicity = 1

 SCF Done:  E(RB3LYP) =  -423.174198100     A.U. after   14 cycles
 Optimization completed.
    -- Stationary point found.
 Normal termination of Gaussian 09 at Tue Jan 28 09:19:10 2020.

 ----------------------------------------------------------------------
 #N Geom=AllCheck Guess=TCheck SCRF=Check GenChk RB3LYP/6-31G(2df,p) Fr
 eq
 ----------------------------------------------------------------------

 Structure from the checkpoint file:  "/scratch/puck/g09_591a6979-4760-4054-95cc-7391fba789bf/Gau-84062.chk"
 -----
 titel
 -----
 Charge =  0 Multiplicity = 1

                         Standard orientation:
 ---------------------------------------------------------------------
 Center     Atomic      Atomic             Coordinates (Angstroms)
 Number     Number       Type             X           Y           Z
 ---------------------------------------------------------------------
      1          6           0       -2.889917    0.381075   -0.173870
      2          6           0       -1.808411   -0.590531   -0.668280
      3          6           0       -0.477246   -0.362897   -0.005606
      4          6           0       -0.073972   -0.950683    1.298408
      5          6           0        0.745307   -1.330360    0.064789
      6          6           0        1.652717   -0.193585   -0.268552
      7          8           0        2.808653   -0.100167   -0.569034
      8          6           0        0.468934    0.821935   -0.310108
      9          8           0        0.555988    1.891226    0.596489
     10          1           0       -3.043581    0.283406    0.905366
     11          1           0       -2.612095    1.421353   -0.377247
     12          1           0       -3.845295    0.192319   -0.672208
     13          1           0       -2.132045   -1.622180   -0.483583
     14          1           0       -1.696796   -0.492269   -1.756022
     15          1           0        0.365215   -0.327149    2.070041
     16          1           0       -0.695399   -1.759388    1.671288
     17          1           0        0.838994   -2.360469   -0.256596
     18          1           0        0.348798    1.168297   -1.348384
     19          1           0       -0.149401    2.517882    0.407026
 ---------------------------------------------------------------------

 SCF Done:  E(RB3LYP) =  -423.174198100     A.U. after    1 cycles

 The electronic state is 1-A.
 Alpha  occ. eigenvalues --  -19.14976 -19.12683 -10.26353 -10.24275 -10.21353
 Alpha  occ. eigenvalues --  -10.20544 -10.20518 -10.20082 -10.18958  -1.04256
 Alpha  occ. eigenvalues --   -1.02730  -0.90694  -0.77939  -0.71972  -0.65875
 Alpha  occ. eigenvalues --   -0.63007  -0.56305  -0.53693  -0.52366  -0.48413
 Alpha  occ. eigenvalues --   -0.47400  -0.44687  -0.43100  -0.41205  -0.40422
 Alpha  occ. eigenvalues --   -0.39238  -0.38198  -0.37329  -0.36526  -0.34323
 Alpha  occ. eigenvalues --   -0.31172  -0.28669  -0.27160  -0.23583
 Alpha virt. eigenvalues --   -0.01300   0.05234   0.09078   0.10735   0.11202
 Alpha virt. eigenvalues --    0.12496   0.13979   0.14859   0.15352   0.15960
 Alpha virt. eigenvalues --    0.17700   0.17888   0.18251   0.21151   0.21300

 Mulliken charges:
               1
     1  C   -0.372957
     2  C   -0.302866
     3  C    0.352897
     4  C   -0.327312
     5  C   -0.256649
     6  C    0.428418
     7  O   -0.320438
     8  C   -0.095251
     9  O   -0.420182
    10  H    0.125963
    11  H    0.108299
    12  H    0.119931
    13  H    0.104479
    14  H    0.104137
    15  H    0.139120
    16  H    0.121429
    17  H    0.110320
    18  H    0.090728
    19  H    0.289936
 Sum of Mulliken charges =   0.00000

 Dipole moment (field-independent basis, Debye):
    X=             -4.4977    Y=             -0.3867    Z=             -0.1679  Tot=              4.5174
 Quadrupole moment (field-independent basis, Debye-Ang):
   XX=            -63.5512   YY=            -48.8203   ZZ=            -52.7151
   XY=             -2.0823   XZ=              1.5881   YZ=             -1.7686

  Exact polarizability:  89.669  -1.233  74.882  -2.630  -2.370  66.049
 Approx polarizability: 128.995  -0.464 110.465  -6.875  -3.038 102.040

                      1                      2                      3
                      A                      A                      A
 Frequencies --     70.4128                86.7696               169.0997
 Red. masses --      3.6400                 3.0247                 2.8098
 Frc consts  --      0.0106                 0.0134                 0.0473
 IR Inten    --      3.9181                 1.8648                 0.1606

                      4                      5                      6
                      A                      A                      A
 Frequencies --    202.0417               229.3096               257.1745
 Red. masses --      1.6310                 1.6959                 1.5081
 Frc consts  --      0.0392                 0.0525                 0.0588
 IR Inten    --      5.1626                25.2831                74.8573

                      7                      8                      9
                      A                      A                      A
 Frequencies --    269.8435               336.0575               373.3851
 Red. masses --      3.1155                 2.4813                 2.7087
 Frc consts  --      0.1337                 0.1651                 0.2225
 IR Inten    --      0.3819                 0.9604                 2.1235

                     10                     11                     12
                      A                      A                      A
 Frequencies --    489.2500               522.3431               591.4868
 Red. masses --      3.2018                 3.3906                 5.2824
 Frc consts  --      0.4516                 0.5451                 1.0889
 IR Inten    --      7.5677                 8.6302                 0.6075

                     13                     14                     15
                      A                      A                      A
 Frequencies --    693.0753               743.6391               787.0375
 Red. masses --      4.0011                 3.5780                 1.3103
 Frc consts  --      1.1324                 1.1658                 0.4782
 IR Inten    --      6.5528                16.2443                15.2486

                     16                     17                     18
                      A                      A                      A
 Frequencies --    795.0384               833.3647               917.9402
 Red. masses --      2.6230                 2.8355                 1.7265
 Frc consts  --      0.9769                 1.1602                 0.8571
 IR Inten    --     28.9848                 5.1887                15.8549

                     19                     20                     21
                      A                      A                      A
 Frequencies --    958.4513               971.7121              1001.5768
 Red. masses --      1.9284                 2.0453                 1.7005
 Frc consts  --      1.0438                 1.1378                 1.0051
 IR Inten    --      5.7335                 5.3203                 3.4347

                     22                     23                     24
                      A                      A                      A
 Frequencies --   1024.7665              1063.0517              1079.2156
 Red. masses --      1.4084                 1.9189                 1.6039
 Frc consts  --      0.8714                 1.2776                 1.1006
 IR Inten    --      7.4386                12.3809                 6.0592

                     25                     26                     27
                      A                      A                      A
 Frequencies --   1103.4078              1125.9601              1141.4961
 Red. masses --      1.6317                 3.2178                 3.0436
 Frc consts  --      1.1705                 2.4035                 2.3366
 IR Inten    --      8.9303                87.9085                21.0825

                     28                     29                     30
                      A                      A                      A
 Frequencies --   1151.9318              1221.7145              1242.8036
 Red. masses --      1.2831                 1.6032                 2.0653
 Frc consts  --      1.0031                 1.4098                 1.8795
 IR Inten    --     12.0811                 6.3439                 7.5501

                     31                     32                     33
                      A                      A                      A
 Frequencies --   1268.2987              1327.5749              1354.7095
 Red. masses --      1.4843                 1.4976                 1.4246
 Frc consts  --      1.4067                 1.5551                 1.5404
 IR Inten    --     54.6688                 5.8745                 6.7383

                     34                     35                     36
                      A                      A                      A
 Frequencies --   1399.7253              1412.8711              1418.5901
 Red. masses --      1.9162                 1.3142                 1.6187
 Frc consts  --      2.2120                 1.5457                 1.9193
 IR Inten    --      1.9138                 3.0906                 3.6423

                     37                     38                     39
                      A                      A                      A
 Frequencies --   1479.7278              1498.3768              1500.3018
 Red. masses --      1.0825                 1.0906                 1.1949
 Frc consts  --      1.3965                 1.4427                 1.5847
 IR Inten    --      1.2267                 8.4862                 2.3432

                     40                     41                     42
                      A                      A                      A
 Frequencies --   1505.3759              1886.0691              2991.9035
 Red. masses --      1.0904                12.3754                 1.0830
 Frc consts  --      1.4558                25.9373                 5.7116
 IR Inten    --      2.8830               362.8424                30.2173

                     43                     44                     45
                      A                      A                      A
 Frequencies --   3018.9047              3033.4232              3053.8898
 Red. masses --      1.0604                 1.0366                 1.1001
 Frc consts  --      5.6940                 5.6199                 6.0449
 IR Inten    --     28.2254                24.3136                12.5605

                     46                     47                     48
                      A                      A                      A
 Frequencies --   3099.9281              3112.6425              3126.4311
 Red. masses --      1.1006                 1.1022                 1.0536
 Frc consts  --      6.2312                 6.2917                 6.0676
 IR Inten    --     40.1240                28.5857                13.2413

                     49                     50                     51
                      A                      A                      A
 Frequencies --   3195.5230              3211.8228              3815.8305
 Red. masses --      1.0952                 1.1158                 1.0665
 Frc consts  --      6.5890                 6.7815                 9.1494
 IR Inten    --      5.9310                 3.7635                22.8363

 - Thermochemistry -
 -------------------
 Temperature   298.150 Kelvin.  Pressure   1.00000 Atm.
 Atom     1 has atomic number  6 and mass  12.00000

 Molecular mass:   126.06808 amu.
 Principal axes and moments of inertia in atomic units:
                           1         2         3
     Eigenvalues --   642.694781453.777871719.76614
           X            0.99990  -0.00721   0.01218
           Y            0.00759   0.99949  -0.03117
           Z           -0.01195   0.03126   0.99944
 This molecule is an asymmetric top.
 Rotational symmetry number  1.
 Warning -- assumption of classical behavior for rotation
           may cause significant error
 Rotational temperatures (Kelvin)      0.13477     0.05958     0.05036
 Rotational constants (GHZ):           2.80808     1.24141     1.04941
 Zero-point vibrational energy     413700.2 (Joules/Mol)
                                   98.87673 (Kcal/Mol)
 Warning -- explicit consideration of  12 degrees of freedom as
           vibrations may cause significant error
 Vibrational temperatures:    101.31   124.84   243.30   290.69   329.92
          (Kelvin)            370.02   388.24   483.51   537.22   703.92
                              751.53   851.02   997.18  1069.93  1132.37
                             1143.88  1199.02  1320.71  1379.00  1398.08
                             1441.04  1474.41  1529.49  1552.75  1587.56
                             1620.00  1642.36  1657.37  1757.77  1788.12
                             1824.80  1910.08  1949.12  2013.89  2032.80
                             2041.03  2129.00  2155.83  2158.60  2165.90
                             2713.63  4304.68  4343.53  4364.41  4393.86
                             4460.10  4478.39  4498.23  4597.64  4621.09
                             5490.12

 Zero-point correction=                           0.157570 (Hartree/Particle)
 Thermal correction to Energy=                    0.166790
 Thermal correction to Enthalpy=                  0.167734
 Thermal correction to Gibbs Free Energy=         0.123433
 Sum of electronic and zero-point Energies=           -423.016628
 Sum of electronic and thermal Energies=              -423.007408
 Sum of electronic and thermal Enthalpies=            -423.006464
 Sum of electronic and thermal Free Energies=         -423.050765

                     E (Thermal)             CV                S
                      KCal/Mol        Cal/Mol-Kelvin    Cal/Mol-Kelvin
 Total                  104.662             34.146             93.240
 Electronic               0.000              0.000              0.000
 Translational            0.889              2.981             40.409
 Rotational               0.889              2.981             28.865
 Vibrational            102.885             28.185             23.967
 Vibration     1          0.598              1.968              4.142
 Vibration     2          0.601              1.958              3.732
 Vibration     3          0.625              1.881              2.445
 Vibration     4          0.639              1.837              2.114
 Vibration     5          0.652              1.796              1.884
 Vibration     6          0.667              1.751              1.681
 Vibration     7          0.674              1.729              1.597
 Vibration     8          0.717              1.603              1.231
 Vibration     9          0.745              1.527              1.066
 Vibration    10          0.845              1.274              0.686
 Vibration    11          0.877              1.201              0.605
 Vibration    12          0.949              1.050              0.465

 Normal termination of Gaussian 09 at Tue Jan 28 10:06:10 2020.
