 Gaussian 09, Revision D.01,
 Gaussian 09:  ES64L-G09RevD.01 24-Apr-2013

 -----------------------------
 # b3lyp 6-31G(2df,p) opt Freq
 -----------------------------

 -----
 titel
 -----
 Symbolic Z-matrix:
 Charge =  0 Multiplicity = 1

 SCF Done:  E(RB3LYP) =  -423.181772660     A.U. after   14 cycles
 Optimization completed.
    -- Stationary point found.
 Normal termination of Gaussian 09 at Tue Jan 28 00:06:24 2020.

 ----------------------------------------------------------------------
 #N Geom=AllCheck Guess=TCheck SCRF=Check GenChk RB3LYP/6-31G(2df,p) Fr
 eq
 ----------------------------------------------------------------------

 Structure from the checkpoint file:  "/scratch/puck/g09_7e900b5e-1e52-4957-ba4c-4246bbc78f5b/Gau-21336.chk"
 -----
 titel
 -----
 Charge =  0 Multiplicity = 1

                         Standard orientation:
 ---------------------------------------------------------------------
 Center     Atomic      Atomic             Coordinates (Angstroms)
 Number     Number       Type             X           Y           Z
 ---------------------------------------------------------------------
      1          6           0       -1.972504   -1.139134    0.572375
      2          6           0       -1.045139   -0.403389   -0.406009
      3          6           0        0.233654   -1.194376   -0.591887
      4          8           0        1.363414   -0.499024   -1.128316
      5          6           0        1.388780   -0.887018    0.275010
      6          6           0        1.256692    0.206241    1.267515
      7          6           0        0.264640    1.095517    1.173482
      8          6           0       -0.737030    1.048154    0.038389
      9          8           0       -0.291915    1.838215   -1.061191
     10          1           0       -2.179579   -2.158344    0.229840
     11          1           0       -1.523824   -1.204426    1.568542
     12          1           0       -2.930486   -0.618583    0.664311
     13          1           0       -1.544605   -0.315464   -1.378790
     14          1           0        0.120106   -2.211954   -0.968415
     15          1           0        2.117695   -1.666438    0.483108
     16          1           0        1.994577    0.259042    2.062224
     17          1           0        0.187061    1.914014    1.882645
     18          1           0       -1.674287    1.514632    0.360137
     19          1           0        0.526797    1.418040   -1.360790
 ---------------------------------------------------------------------

 SCF Done:  E(RB3LYP) =  -423.181772660     A.U. after    1 cycles

 The electronic state is 1-A.
 Alpha  occ. eigenvalues --  -19.16150 -19.12072 -10.24574 -10.24291 -10.23286
 Alpha  occ. eigenvalues --  -10.19387 -10.19368 -10.19029 -10.18370  -1.07643
 Alpha  occ. eigenvalues --   -1.00468  -0.81708  -0.77776  -0.69816  -0.67179
 Alpha  occ. eigenvalues --   -0.63096  -0.60072  -0.54150  -0.51377  -0.48304
 Alpha  occ. eigenvalues --   -0.46578  -0.44643  -0.43388  -0.42807  -0.40272
 Alpha  occ. eigenvalues --   -0.38736  -0.38031  -0.36110  -0.34948  -0.32699
 Alpha  occ. eigenvalues --   -0.31506  -0.27453  -0.26703  -0.24624
 Alpha virt. eigenvalues --   -0.01194   0.08263   0.09498   0.11669   0.12452
 Alpha virt. eigenvalues --    0.12900   0.14889   0.15122   0.16508   0.17070
 Alpha virt. eigenvalues --    0.17623   0.17997   0.19586   0.22311   0.23310

 Mulliken charges:
               1
     1  C   -0.409360
     2  C   -0.057109
     3  C    0.052758
     4  O   -0.275346
     5  C   -0.007852
     6  C   -0.043287
     7  C   -0.107192
     8  C    0.070974
     9  O   -0.444700
    10  H    0.117213
    11  H    0.126102
    12  H    0.121966
    13  H    0.093606
    14  H    0.095721
    15  H    0.097817
    16  H    0.098081
    17  H    0.102926
    18  H    0.082114
    19  H    0.285566
 Sum of Mulliken charges =   0.00000

 Dipole moment (field-independent basis, Debye):
    X=             -0.2841    Y=             -2.0148    Z=              1.9202  Tot=              2.7977
 Quadrupole moment (field-independent basis, Debye-Ang):
   XX=            -51.5689   YY=            -54.5821   ZZ=            -54.1636
   XY=              0.2887   XZ=              2.1251   YZ=              3.1339

  Exact polarizability:  79.571  -5.021  76.016   4.999   4.106  69.079
 Approx polarizability: 118.608 -13.736 114.562   5.142   2.787 108.618

                      1                      2                      3
                      A                      A                      A
 Frequencies --    142.0334               190.3457               221.4020
 Red. masses --      3.4369                 4.5844                 1.0916
 Frc consts  --      0.0409                 0.0979                 0.0315
 IR Inten    --      1.6278                 2.1778                 0.1361

                      4                      5                      6
                      A                      A                      A
 Frequencies --    255.3882               271.8190               382.4700
 Red. masses --      5.3461                 2.2913                 2.6445
 Frc consts  --      0.2054                 0.0997                 0.2279
 IR Inten    --      3.4646                 0.6879                 1.9069

                      7                      8                      9
                      A                      A                      A
 Frequencies --    387.4385               489.2524               515.2859
 Red. masses --      5.6787                 3.8569                 4.3176
 Frc consts  --      0.5022                 0.5439                 0.6755
 IR Inten    --      4.9649                 1.9909                 2.1837

                     10                     11                     12
                      A                      A                      A
 Frequencies --    554.8554               603.4509               650.4217
 Red. masses --      1.1612                 3.9304                 3.8509
 Frc consts  --      0.2106                 0.8433                 0.9598
 IR Inten    --     77.8822                 2.3196                 8.9229

                     13                     14                     15
                      A                      A                      A
 Frequencies --    732.2133               772.2687               820.4942
 Red. masses --      2.7895                 2.2105                 3.3347
 Frc consts  --      0.8812                 0.7767                 1.3227
 IR Inten    --      7.0189                13.2036                 2.9319

                     16                     17                     18
                      A                      A                      A
 Frequencies --    833.9388               912.3922               941.0004
 Red. masses --      2.3303                 2.4155                 2.7284
 Frc consts  --      0.9548                 1.1847                 1.4235
 IR Inten    --     39.6637                 9.9453                 8.0740

                     19                     20                     21
                      A                      A                      A
 Frequencies --    956.0254               986.9056              1007.4264
 Red. masses --      2.7189                 1.3189                 2.0104
 Frc consts  --      1.4641                 0.7569                 1.2021
 IR Inten    --     12.3873                 1.9334                14.6690

                     22                     23                     24
                      A                      A                      A
 Frequencies --   1043.5550              1047.9778              1067.6246
 Red. masses --      2.1355                 5.1895                 1.3359
 Frc consts  --      1.3702                 3.3580                 0.8971
 IR Inten    --      8.3482                80.2826                 5.6897

                     25                     26                     27
                      A                      A                      A
 Frequencies --   1107.2372              1131.9088              1175.1746
 Red. masses --      1.8370                 1.5418                 1.3236
 Frc consts  --      1.3269                 1.1639                 1.0770
 IR Inten    --     19.7183                11.0875                 1.1947

                     28                     29                     30
                      A                      A                      A
 Frequencies --   1188.3699              1267.9902              1276.3665
 Red. masses --      1.1964                 1.3037                 1.2542
 Frc consts  --      0.9955                 1.2349                 1.2038
 IR Inten    --      1.5060                 4.4288                18.6969

                     31                     32                     33
                      A                      A                      A
 Frequencies --   1302.6714              1333.5297              1351.6054
 Red. masses --      1.8854                 1.3935                 1.2500
 Frc consts  --      1.8850                 1.4600                 1.3454
 IR Inten    --      0.9075                 7.7007                 0.5459

                     34                     35                     36
                      A                      A                      A
 Frequencies --   1393.9065              1408.7451              1418.4545
 Red. masses --      1.5025                 1.3234                 1.5122
 Frc consts  --      1.7201                 1.5475                 1.7926
 IR Inten    --      1.7874                 1.5316                 1.5444

                     37                     38                     39
                      A                      A                      A
 Frequencies --   1448.7601              1458.4058              1499.2896
 Red. masses --      1.8680                 1.5588                 1.0494
 Frc consts  --      2.3101                 1.9534                 1.3898
 IR Inten    --     45.9976                42.6598                 5.0819

                     40                     41                     42
                      A                      A                      A
 Frequencies --   1504.2069              1697.5791              3034.0693
 Red. masses --      1.0606                 6.3740                 1.0804
 Frc consts  --      1.4139                10.8223                 5.8597
 IR Inten    --      3.9048                 0.6739                 9.4074

                     43                     44                     45
                      A                      A                      A
 Frequencies --   3035.8913              3051.6508              3098.6653
 Red. masses --      1.0380                 1.0851                 1.0901
 Frc consts  --      5.6368                 5.9538                 6.1667
 IR Inten    --     21.4836                37.0065                12.3585

                     46                     47                     48
                      A                      A                      A
 Frequencies --   3103.9117              3112.4154              3142.6987
 Red. masses --      1.0990                 1.1018                 1.0890
 Frc consts  --      6.2385                 6.2883                 6.3368
 IR Inten    --     39.9065                24.6804                26.5468

                     49                     50                     51
                      A                      A                      A
 Frequencies --   3166.2230              3187.5098              3737.8023
 Red. masses --      1.0855                 1.0987                 1.0655
 Frc consts  --      6.4113                 6.5770                 8.7706
 IR Inten    --     10.7717                21.9994                46.5132

 - Thermochemistry -
 -------------------
 Temperature   298.150 Kelvin.  Pressure   1.00000 Atm.
 Atom     1 has atomic number  6 and mass  12.00000

 Molecular mass:   126.06808 amu.
 Principal axes and moments of inertia in atomic units:
                           1         2         3
     Eigenvalues --   902.46645 973.476301154.77953
           X            0.97652   0.21460   0.01908
           Y           -0.21514   0.97603   0.03299
           Z           -0.01154  -0.03632   0.99927
 This molecule is an asymmetric top.
 Rotational symmetry number  1.
 Warning -- assumption of classical behavior for rotation
           may cause significant error
 Rotational temperatures (Kelvin)      0.09597     0.08897     0.07500
 Rotational constants (GHZ):           1.99979     1.85391     1.56284
 Zero-point vibrational energy     421211.3 (Joules/Mol)
                                  100.67191 (Kcal/Mol)
 Warning -- explicit consideration of  11 degrees of freedom as
           vibrations may cause significant error
 Vibrational temperatures:    204.35   273.86   318.55   367.45   391.09
          (Kelvin)            550.29   557.44   703.92   741.38   798.31
                              868.23   935.81  1053.49  1111.12  1180.51
                             1199.85  1312.73  1353.89  1375.51  1419.94
                             1449.46  1501.44  1507.80  1536.07  1593.07
                             1628.56  1690.81  1709.80  1824.35  1836.40
                             1874.25  1918.65  1944.66  2005.52  2026.87
                             2040.84  2084.44  2098.32  2157.14  2164.22
                             2442.43  4365.34  4367.96  4390.64  4458.28
                             4465.83  4478.07  4521.64  4555.48  4586.11
                             5377.86

 Zero-point correction=                           0.160431 (Hartree/Particle)
 Thermal correction to Energy=                    0.168351
 Thermal correction to Enthalpy=                  0.169295
 Thermal correction to Gibbs Free Energy=         0.128510
 Sum of electronic and zero-point Energies=           -423.021342
 Sum of electronic and thermal Energies=              -423.013422
 Sum of electronic and thermal Enthalpies=            -423.012478
 Sum of electronic and thermal Free Energies=         -423.053262

                     E (Thermal)             CV                S
                      KCal/Mol        Cal/Mol-Kelvin    Cal/Mol-Kelvin
 Total                  105.642             31.719             85.838
 Electronic               0.000              0.000              0.000
 Translational            0.889              2.981             40.409
 Rotational               0.889              2.981             28.408
 Vibrational            103.864             25.758             17.022
 Vibration     1          0.616              1.911              2.776
 Vibration     2          0.634              1.853              2.224
 Vibration     3          0.648              1.808              1.948
 Vibration     4          0.666              1.754              1.693
 Vibration     5          0.675              1.725              1.585
 Vibration     6          0.752              1.508              1.029
 Vibration     7          0.756              1.497              1.010
 Vibration     8          0.845              1.274              0.686
 Vibration     9          0.870              1.216              0.621
 Vibration    10          0.910              1.129              0.534
 Vibration    11          0.962              1.024              0.444

 Optimization completed.
    -- Stationary point found.
 Normal termination of Gaussian 09 at Tue Jan 28 00:58:07 2020.
