 Gaussian 09, Revision D.01,
 Gaussian 09:  ES64L-G09RevD.01 24-Apr-2013

 -----------------------------
 # b3lyp 6-31G(2df,p) opt Freq
 -----------------------------

 -----
 titel
 -----
 Symbolic Z-matrix:
 Charge =  0 Multiplicity = 1

 SCF Done:  E(RB3LYP) =  -423.190884256     A.U. after   14 cycles
 Optimization completed.
    -- Stationary point found.
 Normal termination of Gaussian 09 at Mon Jan 27 17:29:13 2020.

 ----------------------------------------------------------------------
 #N Geom=AllCheck Guess=TCheck SCRF=Check GenChk RB3LYP/6-31G(2df,p) Fr
 eq
 ----------------------------------------------------------------------

 Structure from the checkpoint file:  "/scratch/puck/g09_f57badb7-10d3-4179-a1cc-80573af70ba7/Gau-1795.chk"
 -----
 titel
 -----
 Charge =  0 Multiplicity = 1

                         Standard orientation:
 ---------------------------------------------------------------------
 Center     Atomic      Atomic             Coordinates (Angstroms)
 Number     Number       Type             X           Y           Z
 ---------------------------------------------------------------------
      1          8           0       -2.302765   -0.765414   -0.954238
      2          6           0       -1.370986   -0.110407   -0.153152
      3          6           0       -1.455373   -0.394588    1.311429
      4          6           0       -0.220697   -0.827336    0.534933
      5          6           0        0.990406    0.099380    0.576838
      6          6           0        0.398889    1.509540    0.251625
      7          6           0       -0.879149    1.265660   -0.579222
      8          6           0        1.991517   -0.313101   -0.481500
      9          8           0        3.138407   -0.612219   -0.272487
     10          1           0       -1.909779   -0.900107   -1.824368
     11          1           0       -1.390843    0.412864    2.033670
     12          1           0       -2.133540   -1.193786    1.587783
     13          1           0       -0.070086   -1.892611    0.397639
     14          1           0        1.511458    0.091480    1.539064
     15          1           0        0.155683    2.013941    1.190400
     16          1           0        1.119104    2.149524   -0.266149
     17          1           0       -1.627976    2.051321   -0.436602
     18          1           0       -0.647162    1.234864   -1.652537
     19          1           0        1.580350   -0.321315   -1.520815
 ---------------------------------------------------------------------

 SCF Done:  E(RB3LYP) =  -423.190884256     A.U. after    1 cycles

 The electronic state is 1-A.
 Alpha  occ. eigenvalues --  -19.15106 -19.13952 -10.26974 -10.24591 -10.20150
 Alpha  occ. eigenvalues --  -10.20068 -10.19823 -10.19486 -10.19147  -1.04656
 Alpha  occ. eigenvalues --   -1.03797  -0.88483  -0.78276  -0.73559  -0.64148
 Alpha  occ. eigenvalues --   -0.60159  -0.57558  -0.56508  -0.53234  -0.48232
 Alpha  occ. eigenvalues --   -0.47139  -0.44324  -0.43602  -0.42585  -0.41024
 Alpha  occ. eigenvalues --   -0.39636  -0.38015  -0.36168  -0.35462  -0.34225
 Alpha  occ. eigenvalues --   -0.32848  -0.29172  -0.25453  -0.24642
 Alpha virt. eigenvalues --   -0.02234   0.06327   0.08956   0.09272   0.11592
 Alpha virt. eigenvalues --    0.12242   0.13101   0.15371   0.16003   0.16939
 Alpha virt. eigenvalues --    0.17116   0.19387   0.20364   0.21310   0.22792

 Mulliken charges:
               1
     1  O   -0.471427
     2  C    0.436977
     3  C   -0.340373
     4  C   -0.124407
     5  C   -0.079729
     6  C   -0.265251
     7  C   -0.278076
     8  C    0.163402
     9  O   -0.251342
    10  H    0.279155
    11  H    0.113680
    12  H    0.127932
    13  H    0.097179
    14  H    0.091641
    15  H    0.120473
    16  H    0.114235
    17  H    0.110641
    18  H    0.093678
    19  H    0.061613
 Sum of Mulliken charges =   0.00000

 Dipole moment (field-independent basis, Debye):
    X=             -1.5979    Y=              1.1244    Z=             -0.5079  Tot=              2.0188
 Quadrupole moment (field-independent basis, Debye-Ang):
   XX=            -69.7239   YY=            -51.5509   ZZ=            -48.6946
   XY=              1.9258   XZ=              0.0524   YZ=              0.9825

  Exact polarizability:  85.488  -1.732  68.226  -0.685  -0.137  72.621
 Approx polarizability: 124.046  -5.774  99.318   1.330   0.627 110.156

                      1                      2                      3
                      A                      A                      A
 Frequencies --     58.6456                98.7751               193.7894
 Red. masses --      4.6655                 4.4919                 2.2400
 Frc consts  --      0.0095                 0.0258                 0.0496
 IR Inten    --      6.4592                 3.7030                 0.3287

                      4                      5                      6
                      A                      A                      A
 Frequencies --    285.3001               306.2521               329.2423
 Red. masses --      1.5243                 1.7563                 1.8626
 Frc consts  --      0.0731                 0.0971                 0.1190
 IR Inten    --     26.7706                16.6234                34.6578

                      7                      8                      9
                      A                      A                      A
 Frequencies --    377.2839               401.8888               416.6253
 Red. masses --      3.5936                 3.5591                 2.9731
 Frc consts  --      0.3014                 0.3387                 0.3041
 IR Inten    --     22.0380                 6.2958                 3.6839

                     10                     11                     12
                      A                      A                      A
 Frequencies --    470.2342               561.0181               676.2550
 Red. masses --      2.9633                 3.3897                 2.4186
 Frc consts  --      0.3861                 0.6286                 0.6517
 IR Inten    --     14.3810                 5.1773                 3.5471

                     13                     14                     15
                      A                      A                      A
 Frequencies --    725.5171               809.3124               841.6846
 Red. masses --      4.2048                 1.8307                 1.8025
 Frc consts  --      1.3040                 0.7065                 0.7523
 IR Inten    --      2.0105                 2.4004                 4.8028

                     16                     17                     18
                      A                      A                      A
 Frequencies --    891.9798               917.5461               933.1583
 Red. masses --      2.5939                 1.9753                 1.7520
 Frc consts  --      1.2160                 0.9798                 0.8988
 IR Inten    --      5.5463                15.1272                17.0068

                     19                     20                     21
                      A                      A                      A
 Frequencies --    963.7729               985.2408              1000.6635
 Red. masses --      1.8584                 2.3869                 1.8933
 Frc consts  --      1.0171                 1.3651                 1.1170
 IR Inten    --      1.7272                 6.1012                 0.7431

                     22                     23                     24
                      A                      A                      A
 Frequencies --   1038.4878              1053.5049              1079.1336
 Red. masses --      2.0663                 1.3566                 1.6410
 Frc consts  --      1.3130                 0.8871                 1.1259
 IR Inten    --      6.1783                 3.3817                 7.6609

                     25                     26                     27
                      A                      A                      A
 Frequencies --   1101.6778              1123.8161              1182.6750
 Red. masses --      1.9440                 1.7308                 1.3612
 Frc consts  --      1.3902                 1.2879                 1.1218
 IR Inten    --      7.3540                 7.9115                 7.7135

                     28                     29                     30
                      A                      A                      A
 Frequencies --   1206.0171              1242.3273              1255.4297
 Red. masses --      1.5444                 1.6501                 1.4950
 Frc consts  --      1.3235                 1.5005                 1.3883
 IR Inten    --      6.5470                52.2188                24.9084

                     31                     32                     33
                      A                      A                      A
 Frequencies --   1273.6443              1297.0181              1320.7284
 Red. masses --      1.7206                 1.4271                 1.7684
 Frc consts  --      1.6444                 1.4145                 1.8174
 IR Inten    --     34.5502                21.2821                 0.5096

                     34                     35                     36
                      A                      A                      A
 Frequencies --   1334.4543              1357.5153              1419.3696
 Red. masses --      1.3764                 1.8767                 1.5495
 Frc consts  --      1.4441                 2.0377                 1.8393
 IR Inten    --     14.7930                48.5473                 1.6422

                     37                     38                     39
                      A                      A                      A
 Frequencies --   1430.8566              1482.8168              1493.4509
 Red. masses --      1.2244                 1.3371                 1.1193
 Frc consts  --      1.4769                 1.7322                 1.4709
 IR Inten    --      2.8024                10.8491                 2.9494

                     40                     41                     42
                      A                      A                      A
 Frequencies --   1511.3039              1835.1486              2830.2791
 Red. masses --      1.1981                10.3343                 1.0803
 Frc consts  --      1.6123                20.5056                 5.0986
 IR Inten    --      5.5363               202.6348                98.2375

                     43                     44                     45
                      A                      A                      A
 Frequencies --   3017.2304              3058.4531              3068.4033
 Red. masses --      1.0671                 1.0687                 1.0811
 Frc consts  --      5.7237                 5.8897                 5.9973
 IR Inten    --     36.6188                 7.5597                30.2461

                     46                     47                     48
                      A                      A                      A
 Frequencies --   3075.8851              3101.9567              3132.7135
 Red. masses --      1.0921                 1.1044                 1.0556
 Frc consts  --      6.0880                 6.2611                 6.1038
 IR Inten    --     27.0207                20.1644                12.1564

                     49                     50                     51
                      A                      A                      A
 Frequencies --   3171.6897              3223.4810              3785.5172
 Red. masses --      1.0907                 1.1153                 1.0658
 Frc consts  --      6.4643                 6.8278                 8.9984
 IR Inten    --      6.3663                 5.1918                12.1607

 - Thermochemistry -
 -------------------
 Temperature   298.150 Kelvin.  Pressure   1.00000 Atm.
 Atom     1 has atomic number  8 and mass  15.99491

 Molecular mass:   126.06808 amu.
 Principal axes and moments of inertia in atomic units:
                           1         2         3
     Eigenvalues --   589.395151613.519021695.66839
           X            0.99997   0.00659  -0.00398
           Y           -0.00669   0.99962  -0.02678
           Z            0.00380   0.02681   0.99963
 This molecule is an asymmetric top.
 Rotational symmetry number  1.
 Warning -- assumption of classical behavior for rotation
           may cause significant error
 Rotational temperatures (Kelvin)      0.14695     0.05368     0.05108
 Rotational constants (GHZ):           3.06202     1.11851     1.06432
 Zero-point vibrational energy     417192.7 (Joules/Mol)
                                   99.71144 (Kcal/Mol)
 Warning -- explicit consideration of  11 degrees of freedom as
           vibrations may cause significant error
 Vibrational temperatures:     84.38   142.12   278.82   410.48   440.63
          (Kelvin)            473.71   542.83   578.23   599.43   676.56
                              807.18   972.98  1043.86  1164.42  1210.99
                             1283.36  1320.14  1342.61  1386.65  1417.54
                             1439.73  1494.15  1515.76  1552.63  1585.07
                             1616.92  1701.60  1735.19  1787.43  1806.28
                             1832.49  1866.12  1900.23  1919.98  1953.16
                             2042.15  2058.68  2133.44  2148.74  2174.43
                             2640.37  4072.14  4341.12  4400.43  4414.74
                             4425.51  4463.02  4507.27  4563.35  4637.86
                             5446.51

 Zero-point correction=                           0.158900 (Hartree/Particle)
 Thermal correction to Energy=                    0.167377
 Thermal correction to Enthalpy=                  0.168321
 Thermal correction to Gibbs Free Energy=         0.125491
 Sum of electronic and zero-point Energies=           -423.031984
 Sum of electronic and thermal Energies=              -423.023507
 Sum of electronic and thermal Enthalpies=            -423.022563
 Sum of electronic and thermal Free Energies=         -423.065394

                     E (Thermal)             CV                S
                      KCal/Mol        Cal/Mol-Kelvin    Cal/Mol-Kelvin
 Total                  105.031             32.487             90.144
 Electronic               0.000              0.000              0.000
 Translational            0.889              2.981             40.409
 Rotational               0.889              2.981             28.868
 Vibrational            103.253             26.525             20.868
 Vibration     1          0.596              1.974              4.502
 Vibration     2          0.604              1.950              3.478
 Vibration     3          0.635              1.849              2.191
 Vibration     4          0.683              1.701              1.502
 Vibration     5          0.697              1.662              1.383
 Vibration     6          0.712              1.617              1.264
 Vibration     7          0.748              1.519              1.050
 Vibration     8          0.768              1.466              0.956
 Vibration     9          0.780              1.434              0.904
 Vibration    10          0.827              1.316              0.737
 Vibration    11          0.917              1.116              0.522

 Optimization completed.
    -- Stationary point found.
 Normal termination of Gaussian 09 at Mon Jan 27 18:15:30 2020.
