 Gaussian 09, Revision D.01,
 Gaussian 09:  ES64L-G09RevD.01 24-Apr-2013

 -----------------------------
 # b3lyp 6-31G(2df,p) opt Freq
 -----------------------------

 -----
 titel
 -----
 Symbolic Z-matrix:
 Charge =  0 Multiplicity = 1

 SCF Done:  E(RB3LYP) =  -423.137546630     A.U. after   14 cycles
 Optimization completed.
    -- Stationary point found.
 Normal termination of Gaussian 09 at Mon Jan 27 22:59:47 2020.

 ----------------------------------------------------------------------
 #N Geom=AllCheck Guess=TCheck SCRF=Check GenChk RB3LYP/6-31G(2df,p) Fr
 eq
 ----------------------------------------------------------------------

 Structure from the checkpoint file:  "/scratch/puck/g09_de4facf6-520a-4586-a072-36b6cf4e6c60/Gau-65375.chk"
 -----
 titel
 -----
 Charge =  0 Multiplicity = 1

                         Standard orientation:
 ---------------------------------------------------------------------
 Center     Atomic      Atomic             Coordinates (Angstroms)
 Number     Number       Type             X           Y           Z
 ---------------------------------------------------------------------
      1          6           0       -1.985968   -1.129449   -0.525671
      2          6           0       -1.150218   -0.324040    0.458354
      3          6           0        0.203204   -0.862286    1.065369
      4          6           0        0.543005    0.630560    1.343294
      5          6           0       -0.197575    0.831949   -0.011487
      6          8           0       -0.773085    2.031816   -0.421137
      7          6           0        0.718843    0.062184   -1.001771
      8          8           0        2.050768   -0.206075   -0.531236
      9          6           0        1.003232   -1.144003   -0.226993
     10          1           0       -1.392502   -1.549326   -1.341876
     11          1           0       -2.487431   -1.959456   -0.016035
     12          1           0       -2.763061   -0.497264   -0.967974
     13          1           0       -1.792247    0.050670    1.262465
     14          1           0        0.218942   -1.611647    1.854709
     15          1           0       -0.039695    1.031379    2.173257
     16          1           0        1.591370    0.912340    1.411910
     17          1           0       -0.068535    2.648296   -0.648106
     18          1           0        0.579664    0.118927   -2.076335
     19          1           0        1.124891   -2.139332   -0.639597
 ---------------------------------------------------------------------

 SCF Done:  E(RB3LYP) =  -423.137546630     A.U. after    1 cycles

 The electronic state is 1-A.
 Alpha  occ. eigenvalues --  -19.14966 -19.14534 -10.24317 -10.23407 -10.22994
 Alpha  occ. eigenvalues --  -10.19771 -10.19349 -10.17822 -10.17511  -1.07212
 Alpha  occ. eigenvalues --   -1.02931  -0.86973  -0.73103  -0.68186  -0.67967
 Alpha  occ. eigenvalues --   -0.61447  -0.57387  -0.54858  -0.53742  -0.47866
 Alpha  occ. eigenvalues --   -0.46603  -0.44369  -0.42357  -0.40569  -0.39783
 Alpha  occ. eigenvalues --   -0.37586  -0.36476  -0.35561  -0.34729  -0.32518
 Alpha  occ. eigenvalues --   -0.30087  -0.29048  -0.27335  -0.24320
 Alpha virt. eigenvalues --    0.06779   0.08678   0.09628   0.10706   0.12498
 Alpha virt. eigenvalues --    0.13940   0.15165   0.15762   0.16359   0.17152
 Alpha virt. eigenvalues --    0.18540   0.19231   0.20772   0.21503   0.22883

 Mulliken charges:
               1
     1  C   -0.439812
     2  C    0.018986
     3  C   -0.109955
     4  C   -0.293011
     5  C    0.360585
     6  O   -0.490087
     7  C   -0.048712
     8  O   -0.258289
     9  C    0.050290
    10  H    0.114756
    11  H    0.115991
    12  H    0.128817
    13  H    0.078294
    14  H    0.068196
    15  H    0.099876
    16  H    0.114856
    17  H    0.283189
    18  H    0.102867
    19  H    0.103163
 Sum of Mulliken charges =   0.00000

 Dipole moment (field-independent basis, Debye):
    X=             -0.6127    Y=             -0.4471    Z=             -0.0010  Tot=              0.7585
 Quadrupole moment (field-independent basis, Debye-Ang):
   XX=            -59.3954   YY=            -49.2754   ZZ=            -51.1699
   XY=              3.0575   XZ=             -0.2783   YZ=             -0.8467

  Exact polarizability:  74.305   1.326  74.684   0.172  -0.702  70.740
 Approx polarizability: 112.018  -0.274 111.877  -0.780  -5.282 104.910

                      1                      2                      3
                      A                      A                      A
 Frequencies --    195.0554               218.7994               239.4660
 Red. masses --      1.7238                 1.4873                 2.7071
 Frc consts  --      0.0386                 0.0420                 0.0915
 IR Inten    --      2.6199                 0.8901                 0.7308

                      4                      5                      6
                      A                      A                      A
 Frequencies --    259.2085               298.1122               365.0020
 Red. masses --      1.2230                 3.1334                 4.4096
 Frc consts  --      0.0484                 0.1641                 0.3461
 IR Inten    --     73.5279                16.7434                16.8567

                      7                      8                      9
                      A                      A                      A
 Frequencies --    445.3366               472.0186               551.1904
 Red. masses --      3.8324                 3.1648                 2.4667
 Frc consts  --      0.4478                 0.4154                 0.4415
 IR Inten    --      9.3955                 4.1450                 1.8379

                     10                     11                     12
                      A                      A                      A
 Frequencies --    600.1680               632.0122               700.4775
 Red. masses --      5.1983                 3.6602                 3.5800
 Frc consts  --      1.1032                 0.8614                 1.0350
 IR Inten    --      5.8379                 1.9458                 0.1469

                     13                     14                     15
                      A                      A                      A
 Frequencies --    759.7466               808.6453               820.1657
 Red. masses --      2.8430                 2.5663                 3.6658
 Frc consts  --      0.9669                 0.9887                 1.4528
 IR Inten    --      3.2283                 3.9115                 1.2066

                     16                     17                     18
                      A                      A                      A
 Frequencies --    867.9139               884.0039               907.6132
 Red. masses --      2.2582                 2.8105                 2.8334
 Frc consts  --      1.0022                 1.2940                 1.3752
 IR Inten    --     17.1047                18.5428                16.7157

                     19                     20                     21
                      A                      A                      A
 Frequencies --    941.6547               977.8504              1015.5977
 Red. masses --      2.1691                 2.1052                 1.8416
 Frc consts  --      1.1332                 1.1860                 1.1191
 IR Inten    --      9.3906                13.2878                 5.0946

                     22                     23                     24
                      A                      A                      A
 Frequencies --   1026.7786              1042.7161              1076.1882
 Red. masses --      1.3526                 1.3156                 1.4641
 Frc consts  --      0.8402                 0.8428                 0.9991
 IR Inten    --      6.2604                 1.2885                 1.3921

                     25                     26                     27
                      A                      A                      A
 Frequencies --   1097.8629              1129.2632              1158.6893
 Red. masses --      1.3550                 1.8393                 2.1101
 Frc consts  --      0.9623                 1.3820                 1.6691
 IR Inten    --     18.3797                 8.4798                12.8921

                     28                     29                     30
                      A                      A                      A
 Frequencies --   1167.1576              1198.0128              1219.3657
 Red. masses --      1.9674                 2.0815                 1.5468
 Frc consts  --      1.5791                 1.7601                 1.3551
 IR Inten    --     16.9985                26.5990                38.4983

                     31                     32                     33
                      A                      A                      A
 Frequencies --   1231.3764              1260.7012              1287.9958
 Red. masses --      1.4975                 1.5357                 1.8312
 Frc consts  --      1.3378                 1.4381                 1.7898
 IR Inten    --      4.4773                 6.9505                16.6763

                     34                     35                     36
                      A                      A                      A
 Frequencies --   1325.1562              1344.8218              1393.7212
 Red. masses --      1.9352                 1.6520                 1.7737
 Frc consts  --      2.0022                 1.7603                 2.0299
 IR Inten    --     99.7250                 6.0436                13.4027

                     37                     38                     39
                      A                      A                      A
 Frequencies --   1411.7146              1414.9099              1493.5361
 Red. masses --      1.7771                 1.3719                 1.1232
 Frc consts  --      2.0867                 1.6182                 1.4762
 IR Inten    --      9.8480                 6.5909                 2.5845

                     40                     41                     42
                      A                      A                      A
 Frequencies --   1501.5812              1503.5173              3036.2645
 Red. masses --      1.0734                 1.0791                 1.0378
 Frc consts  --      1.4260                 1.4372                 5.6370
 IR Inten    --      4.2813                 8.5245                25.2237

                     43                     44                     45
                      A                      A                      A
 Frequencies --   3053.9846              3096.3775              3096.7542
 Red. masses --      1.0832                 1.0934                 1.0648
 Frc consts  --      5.9523                 6.1766                 6.0161
 IR Inten    --     20.2385                19.7371                21.3666

                     46                     47                     48
                      A                      A                      A
 Frequencies --   3117.3692              3131.3329              3167.6292
 Red. masses --      1.0993                 1.0899                 1.0892
 Frc consts  --      6.2945                 6.2966                 6.4391
 IR Inten    --     25.6902                34.3269                14.3598

                     49                     50                     51
                      A                      A                      A
 Frequencies --   3168.5169              3180.9240              3806.4712
 Red. masses --      1.1075                 1.0975                 1.0659
 Frc consts  --      6.5511                 6.5426                 9.0996
 IR Inten    --     14.1333                17.8504                26.6631

 - Thermochemistry -
 -------------------
 Temperature   298.150 Kelvin.  Pressure   1.00000 Atm.
 Atom     1 has atomic number  6 and mass  12.00000

 Molecular mass:   126.06808 amu.
 Principal axes and moments of inertia in atomic units:
                           1         2         3
     Eigenvalues --   797.99638 956.382261178.04480
           X            0.98751   0.15453   0.03078
           Y           -0.15579   0.98682   0.04383
           Z           -0.02360  -0.04808   0.99856
 This molecule is an asymmetric top.
 Rotational symmetry number  1.
 Warning -- assumption of classical behavior for rotation
           may cause significant error
 Rotational temperatures (Kelvin)      0.10854     0.09056     0.07352
 Rotational constants (GHZ):           2.26159     1.88705     1.53198
 Zero-point vibrational energy     419295.5 (Joules/Mol)
                                  100.21402 (Kcal/Mol)
 Warning -- explicit consideration of  10 degrees of freedom as
           vibrations may cause significant error
 Vibrational temperatures:    280.64   314.80   344.54   372.94   428.92
          (Kelvin)            525.16   640.74   679.13   793.04   863.51
                              909.32  1007.83  1093.10  1163.46  1180.03
                             1248.73  1271.88  1305.85  1354.83  1406.91
                             1461.22  1477.30  1500.23  1548.39  1579.58
                             1624.76  1667.09  1679.28  1723.67  1754.39
                             1771.67  1813.87  1853.14  1906.60  1934.90
                             2005.25  2031.14  2035.74  2148.86  2160.44
                             2163.22  4368.50  4394.00  4454.99  4455.53
                             4485.19  4505.28  4557.51  4558.78  4576.63
                             5476.66

 Zero-point correction=                           0.159701 (Hartree/Particle)
 Thermal correction to Energy=                    0.167332
 Thermal correction to Enthalpy=                  0.168276
 Thermal correction to Gibbs Free Energy=         0.128257
 Sum of electronic and zero-point Energies=           -422.977845
 Sum of electronic and thermal Energies=              -422.970215
 Sum of electronic and thermal Enthalpies=            -422.969271
 Sum of electronic and thermal Free Energies=         -423.009290

                     E (Thermal)             CV                S
                      KCal/Mol        Cal/Mol-Kelvin    Cal/Mol-Kelvin
 Total                  105.002             31.442             84.227
 Electronic               0.000              0.000              0.000
 Translational            0.889              2.981             40.409
 Rotational               0.889              2.981             28.288
 Vibrational            103.225             25.480             15.531
 Vibration     1          0.636              1.847              2.179
 Vibration     2          0.647              1.812              1.969
 Vibration     3          0.657              1.780              1.807
 Vibration     4          0.668              1.747              1.667
 Vibration     5          0.691              1.677              1.427
 Vibration     6          0.738              1.544              1.101
 Vibration     7          0.805              1.371              0.810
 Vibration     8          0.829              1.312              0.732
 Vibration     9          0.907              1.137              0.542
 Vibration    10          0.958              1.031              0.449

 Normal termination of Gaussian 09 at Mon Jan 27 23:46:33 2020.
