 Gaussian 09, Revision D.01,
 Gaussian 09:  ES64L-G09RevD.01 24-Apr-2013

 -----------------------------
 # b3lyp 6-31G(2df,p) opt Freq
 -----------------------------

 -----
 titel
 -----
 Symbolic Z-matrix:
 Charge =  0 Multiplicity = 1

 SCF Done:  E(RB3LYP) =  -423.135529900     A.U. after   13 cycles
 Optimization completed.
    -- Stationary point found.
 Normal termination of Gaussian 09 at Mon Jan 27 16:09:54 2020.

 ----------------------------------------------------------------------
 #N Geom=AllCheck Guess=TCheck SCRF=Check GenChk RB3LYP/6-31G(2df,p) Fr
 eq
 ----------------------------------------------------------------------

 Structure from the checkpoint file:  "/scratch/puck/g09_b4c8a910-4bb8-47c6-83e6-f39bf600636f/Gau-59892.chk"
 -----
 titel
 -----
 Charge =  0 Multiplicity = 1

                         Standard orientation:
 ---------------------------------------------------------------------
 Center     Atomic      Atomic             Coordinates (Angstroms)
 Number     Number       Type             X           Y           Z
 ---------------------------------------------------------------------
      1          6           0       -2.242558   -0.409430    0.596774
      2          6           0       -0.964184    0.083553   -0.076164
      3          8           0       -1.237354    0.840837   -1.231352
      4          6           0        0.045021    0.665423    0.967381
      5          6           0        1.287897    1.290589    0.285313
      6          6           0        1.811725   -0.132174   -0.020751
      7          8           0        1.133013   -0.719992   -1.152660
      8          6           0        0.011674   -1.096274   -0.335738
      9          6           0        0.773920   -0.732913    0.971897
     10          1           0       -2.853541   -0.969746   -0.117758
     11          1           0       -2.026597   -1.057739    1.452153
     12          1           0       -2.832045    0.437460    0.969530
     13          1           0       -1.916734    1.488668   -1.014819
     14          1           0       -0.369633    1.154244    1.850657
     15          1           0        1.116631    1.943701   -0.573098
     16          1           0        1.928541    1.791440    1.018299
     17          1           0        2.886335   -0.323479   -0.044731
     18          1           0       -0.405592   -2.064662   -0.623634
     19          1           0        0.966395   -1.379286    1.823217
 ---------------------------------------------------------------------

 SCF Done:  E(RB3LYP) =  -423.135529900     A.U. after    1 cycles

 The electronic state is 1-A.
 Alpha  occ. eigenvalues --  -19.13596 -19.12731 -10.23515 -10.23011 -10.22756
 Alpha  occ. eigenvalues --  -10.18976 -10.18628 -10.18345 -10.17658  -1.04593
 Alpha  occ. eigenvalues --   -1.01603  -0.84469  -0.76412  -0.70091  -0.65432
 Alpha  occ. eigenvalues --   -0.60702  -0.58826  -0.52228  -0.51474  -0.48514
 Alpha  occ. eigenvalues --   -0.45886  -0.44678  -0.42714  -0.41668  -0.39420
 Alpha  occ. eigenvalues --   -0.38619  -0.37881  -0.34895  -0.33111  -0.31806
 Alpha  occ. eigenvalues --   -0.28658  -0.27874  -0.25665  -0.23206
 Alpha virt. eigenvalues --    0.07109   0.07919   0.10103   0.10691   0.12144
 Alpha virt. eigenvalues --    0.14119   0.14775   0.15714   0.16366   0.16833
 Alpha virt. eigenvalues --    0.17261   0.17794   0.19882   0.21209   0.22912

 Mulliken charges:
               1
     1  C   -0.460159
     2  C    0.419945
     3  O   -0.468099
     4  C   -0.132595
     5  C   -0.249953
     6  C    0.100794
     7  O   -0.296570
     8  C    0.061432
     9  C   -0.095037
    10  H    0.126635
    11  H    0.125123
    12  H    0.108813
    13  H    0.275537
    14  H    0.056007
    15  H    0.113884
    16  H    0.095573
    17  H    0.076119
    18  H    0.069868
    19  H    0.072683
 Sum of Mulliken charges =   0.00000

 Dipole moment (field-independent basis, Debye):
    X=             -1.1996    Y=              0.5662    Z=              2.6747  Tot=              2.9856
 Quadrupole moment (field-independent basis, Debye-Ang):
   XX=            -48.7762   YY=            -50.5043   ZZ=            -57.3240
   XY=             -0.8297   XZ=              1.7962   YZ=             -0.9398

  Exact polarizability:  83.714   1.823  72.241   0.660   0.581  66.206
 Approx polarizability: 111.776   0.232 107.060   0.473   1.456 105.725

                      1                      2                      3
                      A                      A                      A
 Frequencies --    173.3289               211.1191               247.9016
 Red. masses --      3.9164                 2.9248                 1.1416
 Frc consts  --      0.0693                 0.0768                 0.0413
 IR Inten    --      0.7236                 0.2930                31.7749

                      4                      5                      6
                      A                      A                      A
 Frequencies --    253.3114               307.8919               341.6001
 Red. masses --      1.0271                 2.7973                 3.2185
 Frc consts  --      0.0388                 0.1562                 0.2213
 IR Inten    --     60.3785                 1.5576                 5.4747

                      7                      8                      9
                      A                      A                      A
 Frequencies --    404.1186               482.1613               545.3090
 Red. masses --      2.4714                 3.3597                 4.1260
 Frc consts  --      0.2378                 0.4602                 0.7229
 IR Inten    --      3.5913                 6.8181                13.9046

                     10                     11                     12
                      A                      A                      A
 Frequencies --    604.5995               694.9110               765.0078
 Red. masses --      4.1065                 4.1213                 2.7617
 Frc consts  --      0.8844                 1.1726                 0.9523
 IR Inten    --      2.6373                 1.8505                10.8633

                     13                     14                     15
                      A                      A                      A
 Frequencies --    827.8070               831.7716               841.4285
 Red. masses --      1.8518                 2.1632                 1.7140
 Frc consts  --      0.7477                 0.8818                 0.7150
 IR Inten    --      1.9584                 1.9148                 2.3474

                     16                     17                     18
                      A                      A                      A
 Frequencies --    880.7742               895.5522               950.4710
 Red. masses --      2.0519                 2.2769                 1.9134
 Frc consts  --      0.9378                 1.0759                 1.0184
 IR Inten    --      1.4893                 5.2648                12.6996

                     19                     20                     21
                      A                      A                      A
 Frequencies --    970.7930               991.8511              1007.6412
 Red. masses --      1.9786                 3.5236                 2.3263
 Frc consts  --      1.0987                 2.0424                 1.3917
 IR Inten    --      7.8887                31.8627                16.6316

                     22                     23                     24
                      A                      A                      A
 Frequencies --   1029.2560              1053.8481              1095.2556
 Red. masses --      3.1916                 2.9773                 1.8464
 Frc consts  --      1.9921                 1.9482                 1.3050
 IR Inten    --     43.2267                14.9924                37.8593

                     25                     26                     27
                      A                      A                      A
 Frequencies --   1115.5286              1134.0066              1142.5175
 Red. masses --      2.1517                 1.2592                 2.3404
 Frc consts  --      1.5776                 0.9540                 1.8000
 IR Inten    --     14.1998                15.5142                12.8679

                     28                     29                     30
                      A                      A                      A
 Frequencies --   1177.7084              1182.6576              1193.6726
 Red. masses --      1.8411                 1.5971                 1.8090
 Frc consts  --      1.5046                 1.3161                 1.5187
 IR Inten    --      2.3991                 3.7377                24.2002

                     31                     32                     33
                      A                      A                      A
 Frequencies --   1234.6219              1255.7860              1275.0710
 Red. masses --      2.7052                 1.6194                 1.5268
 Frc consts  --      2.4295                 1.5046                 1.4625
 IR Inten    --     70.1495                 2.9663                 1.1759

                     34                     35                     36
                      A                      A                      A
 Frequencies --   1292.7336              1309.1539              1338.9123
 Red. masses --      1.7166                 1.4963                 1.4044
 Frc consts  --      1.6902                 1.5109                 1.4834
 IR Inten    --     10.1669                 9.4065                11.4897

                     37                     38                     39
                      A                      A                      A
 Frequencies --   1388.8664              1403.5125              1463.6029
 Red. masses --      1.8696                 1.2509                 1.1109
 Frc consts  --      2.1248                 1.4518                 1.4021
 IR Inten    --      7.5265                 5.4829                 2.6395

                     40                     41                     42
                      A                      A                      A
 Frequencies --   1488.8286              1494.4331              3021.9967
 Red. masses --      1.0535                 1.0762                 1.0374
 Frc consts  --      1.3758                 1.4161                 5.5819
 IR Inten    --      3.0470                 4.0478                20.6885

                     43                     44                     45
                      A                      A                      A
 Frequencies --   3050.3038              3074.6357              3088.0327
 Red. masses --      1.0606                 1.0894                 1.0892
 Frc consts  --      5.8140                 6.0675                 6.1196
 IR Inten    --     26.9153                58.8357                80.5293

                     46                     47                     48
                      A                      A                      A
 Frequencies --   3089.1188              3090.7698              3110.3701
 Red. masses --      1.0975                 1.0904                 1.1020
 Frc consts  --      6.1708                 6.1371                 6.2812
 IR Inten    --     31.6786                17.7614                18.9251

                     49                     50                     51
                      A                      A                      A
 Frequencies --   3119.3964              3157.0118              3802.1485
 Red. masses --      1.1049                 1.0945                 1.0660
 Frc consts  --      6.3343                 6.4272                 9.0794
 IR Inten    --     16.1793                26.3027                15.3641

 - Thermochemistry -
 -------------------
 Temperature   298.150 Kelvin.  Pressure   1.00000 Atm.
 Atom     1 has atomic number  6 and mass  12.00000

 Molecular mass:   126.06808 amu.
 Principal axes and moments of inertia in atomic units:
                           1         2         3
     Eigenvalues --   622.722961100.584091106.77781
           X            0.99941   0.01736   0.02952
           Y           -0.03348   0.67747   0.73479
           Z            0.00724   0.73534  -0.67766
 This molecule is an asymmetric top.
 Rotational symmetry number  1.
 Warning -- assumption of classical behavior for rotation
           may cause significant error
 Rotational temperatures (Kelvin)      0.13909     0.07870     0.07826
 Rotational constants (GHZ):           2.89814     1.63980     1.63063
 Zero-point vibrational energy     418113.4 (Joules/Mol)
                                   99.93151 (Kcal/Mol)
 Warning -- explicit consideration of  10 degrees of freedom as
           vibrations may cause significant error
 Vibrational temperatures:    249.38   303.75   356.67   364.46   442.99
          (Kelvin)            491.49   581.44   693.72   784.58   869.88
                              999.82  1100.67  1191.03  1196.73  1210.63
                             1267.24  1288.50  1367.51  1396.75  1427.05
                             1449.77  1480.87  1516.25  1575.83  1604.99
                             1631.58  1643.83  1694.46  1701.58  1717.43
                             1776.34  1806.79  1834.54  1859.95  1883.58
                             1926.39  1998.27  2019.34  2105.80  2142.09
                             2150.15  4347.97  4388.70  4423.71  4442.98
                             4444.55  4446.92  4475.12  4488.11  4542.23
                             5470.44

 Zero-point correction=                           0.159251 (Hartree/Particle)
 Thermal correction to Energy=                    0.166872
 Thermal correction to Enthalpy=                  0.167816
 Thermal correction to Gibbs Free Energy=         0.127808
 Sum of electronic and zero-point Energies=           -422.976279
 Sum of electronic and thermal Energies=              -422.968658
 Sum of electronic and thermal Enthalpies=            -422.967714
 Sum of electronic and thermal Free Energies=         -423.007722

                     E (Thermal)             CV                S
                      KCal/Mol        Cal/Mol-Kelvin    Cal/Mol-Kelvin
 Total                  104.714             31.089             84.205
 Electronic               0.000              0.000              0.000
 Translational            0.889              2.981             40.409
 Rotational               0.889              2.981             28.119
 Vibrational            102.936             25.127             15.677
 Vibration     1          0.627              1.875              2.399
 Vibration     2          0.643              1.824              2.034
 Vibration     3          0.662              1.766              1.745
 Vibration     4          0.664              1.757              1.707
 Vibration     5          0.698              1.659              1.374
 Vibration     6          0.721              1.592              1.205
 Vibration     7          0.769              1.461              0.948
 Vibration     8          0.838              1.290              0.704
 Vibration     9          0.900              1.150              0.554
 Vibration    10          0.963              1.022              0.442

 Optimization completed.
    -- Stationary point found.
 Normal termination of Gaussian 09 at Mon Jan 27 16:54:30 2020.
