 Gaussian 09, Revision D.01,
 Gaussian 09:  ES64L-G09RevD.01 24-Apr-2013

 -----------------------------
 # b3lyp 6-31G(2df,p) opt Freq
 -----------------------------

 -----
 titel
 -----
 Symbolic Z-matrix:
 Charge =  0 Multiplicity = 1

 SCF Done:  E(RB3LYP) =  -423.162788592     A.U. after   13 cycles
 Optimization completed.
    -- Stationary point found.
 Normal termination of Gaussian 09 at Mon Jan 27 18:00:41 2020.

 ----------------------------------------------------------------------
 #N Geom=AllCheck Guess=TCheck SCRF=Check GenChk RB3LYP/6-31G(2df,p) Fr
 eq
 ----------------------------------------------------------------------

 Structure from the checkpoint file:  "/scratch/puck/g09_9d9bc75c-c3de-4d03-889c-ddeaaf39a94c/Gau-180793.chk"
 -----
 titel
 -----
 Charge =  0 Multiplicity = 1

                         Standard orientation:
 ---------------------------------------------------------------------
 Center     Atomic      Atomic             Coordinates (Angstroms)
 Number     Number       Type             X           Y           Z
 ---------------------------------------------------------------------
      1          8           0        2.013468    0.755014    0.921734
      2          6           0        1.109659    0.224111   -0.020173
      3          6           0        1.614297   -1.042253   -0.656390
      4          6           0        0.451568   -1.108822    0.297422
      5          8           0       -0.764235   -1.415791   -0.310395
      6          6           0       -1.911103   -0.784896    0.230521
      7          6           0       -1.734311    0.723059    0.519521
      8          6           0       -0.959562    1.467699   -0.542089
      9          6           0        0.331050    1.232906   -0.790184
     10          1           0        1.519893    1.362920    1.484149
     11          1           0        1.387836   -1.215608   -1.701873
     12          1           0        2.576022   -1.403823   -0.310969
     13          1           0        0.616555   -1.526918    1.291459
     14          1           0       -2.693342   -0.939675   -0.519095
     15          1           0       -2.231718   -1.285886    1.157603
     16          1           0       -2.731109    1.156109    0.650600
     17          1           0       -1.227285    0.834824    1.484843
     18          1           0       -1.488415    2.220243   -1.121680
     19          1           0        0.868127    1.813205   -1.537522
 ---------------------------------------------------------------------

 SCF Done:  E(RB3LYP) =  -423.162788592     A.U. after    1 cycles

 The electronic state is 1-A.
 Alpha  occ. eigenvalues --  -19.14240 -19.14232 -10.23670 -10.23165 -10.22753
 Alpha  occ. eigenvalues --  -10.19242 -10.18980 -10.18275 -10.17883  -1.04120
 Alpha  occ. eigenvalues --   -1.02321  -0.84091  -0.80270  -0.72275  -0.66071
 Alpha  occ. eigenvalues --   -0.60062  -0.56921  -0.55486  -0.52172  -0.49133
 Alpha  occ. eigenvalues --   -0.46409  -0.45284  -0.44569  -0.43201  -0.39574
 Alpha  occ. eigenvalues --   -0.38742  -0.37224  -0.34737  -0.34067  -0.32147
 Alpha  occ. eigenvalues --   -0.30248  -0.26721  -0.25148  -0.23050
 Alpha virt. eigenvalues --    0.00184   0.08031   0.09686   0.10626   0.12217
 Alpha virt. eigenvalues --    0.14188   0.14517   0.15643   0.16936   0.17487
 Alpha virt. eigenvalues --    0.17895   0.19419   0.20013   0.22657   0.23772

 Mulliken charges:
               1
     1  O   -0.457913
     2  C    0.348522
     3  C   -0.351630
     4  C    0.012470
     5  O   -0.231293
     6  C   -0.055420
     7  C   -0.294286
     8  C   -0.043426
     9  C   -0.145300
    10  H    0.277840
    11  H    0.127172
    12  H    0.122665
    13  H    0.085864
    14  H    0.111501
    15  H    0.090211
    16  H    0.104893
    17  H    0.109792
    18  H    0.095141
    19  H    0.093198
 Sum of Mulliken charges =   0.00000

 Dipole moment (field-independent basis, Debye):
    X=             -1.5803    Y=              1.2044    Z=              0.8660  Tot=              2.1675
 Quadrupole moment (field-independent basis, Debye-Ang):
   XX=            -53.5798   YY=            -53.7261   ZZ=            -50.8211
   XY=             -2.3617   XZ=             -1.7722   YZ=             -0.4891

  Exact polarizability:  92.338  -4.848  72.128  -4.212  -3.047  66.353
 Approx polarizability: 136.031  -5.948 102.888  -5.830  -1.382 101.462

                      1                      2                      3
                      A                      A                      A
 Frequencies --    152.4505               159.4624               229.2987
 Red. masses --      3.5220                 2.1987                 3.3184
 Frc consts  --      0.0482                 0.0329                 0.1028
 IR Inten    --      0.4484                 1.0483                 3.7889

                      4                      5                      6
                      A                      A                      A
 Frequencies --    284.3733               322.9963               338.3989
 Red. masses --      2.7905                 1.2286                 2.9733
 Frc consts  --      0.1330                 0.0755                 0.2006
 IR Inten    --      0.8784                62.3220                 1.6293

                      7                      8                      9
                      A                      A                      A
 Frequencies --    388.8028               419.3006               454.0881
 Red. masses --      3.1932                 4.3244                 2.4338
 Frc consts  --      0.2844                 0.4480                 0.2957
 IR Inten    --     34.9829                 5.9456                 6.1270

                     10                     11                     12
                      A                      A                      A
 Frequencies --    541.8590               618.2768               634.8222
 Red. masses --      2.8385                 3.6781                 2.3260
 Frc consts  --      0.4910                 0.8284                 0.5523
 IR Inten    --      1.1906                 4.7246                 0.8704

                     13                     14                     15
                      A                      A                      A
 Frequencies --    772.9761               784.7509               807.6454
 Red. masses --      1.5734                 2.7042                 2.1636
 Frc consts  --      0.5539                 0.9812                 0.8315
 IR Inten    --     16.9274                19.0030                 7.0366

                     16                     17                     18
                      A                      A                      A
 Frequencies --    866.1169               902.1610               923.3336
 Red. masses --      2.6361                 2.0873                 1.6236
 Frc consts  --      1.1651                 1.0009                 0.8155
 IR Inten    --      4.7499                 0.7643                10.9113

                     19                     20                     21
                      A                      A                      A
 Frequencies --    944.6740               993.2438               999.0052
 Red. masses --      2.9615                 1.4645                 1.8414
 Frc consts  --      1.5571                 0.8512                 1.0828
 IR Inten    --     16.8257                 4.3599                 2.6822

                     22                     23                     24
                      A                      A                      A
 Frequencies --   1032.5797              1042.0762              1081.4540
 Red. masses --      1.6244                 2.4333                 2.0415
 Frc consts  --      1.0205                 1.5569                 1.4068
 IR Inten    --      9.8926                 4.2177                18.6984

                     25                     26                     27
                      A                      A                      A
 Frequencies --   1108.1627              1116.2695              1169.7121
 Red. masses --      1.6436                 2.3957                 2.3913
 Frc consts  --      1.1892                 1.7588                 1.9277
 IR Inten    --     23.3538                21.9697                94.2022

                     28                     29                     30
                      A                      A                      A
 Frequencies --   1211.9091              1218.8446              1266.4729
 Red. masses --      1.5651                 1.8942                 1.2813
 Frc consts  --      1.3543                 1.6579                 1.2109
 IR Inten    --     19.1501                85.6527                 9.6490

                     31                     32                     33
                      A                      A                      A
 Frequencies --   1272.6058              1282.8615              1324.4797
 Red. masses --      1.4188                 1.3684                 1.3161
 Frc consts  --      1.3538                 1.3269                 1.3603
 IR Inten    --      9.4119                 2.8254                19.8268

                     34                     35                     36
                      A                      A                      A
 Frequencies --   1355.9502              1394.3395              1409.7011
 Red. masses --      1.3098                 1.4141                 1.4249
 Frc consts  --      1.4188                 1.6199                 1.6684
 IR Inten    --      6.0235                24.8689                 3.6834

                     37                     38                     39
                      A                      A                      A
 Frequencies --   1429.7318              1474.9878              1482.6047
 Red. masses --      1.4652                 1.8042                 1.1002
 Frc consts  --      1.7647                 2.3126                 1.4248
 IR Inten    --      9.6225                21.5428                 6.1228

                     40                     41                     42
                      A                      A                      A
 Frequencies --   1507.9099              1702.8030              2980.1723
 Red. masses --      1.1086                 7.1108                 1.0701
 Frc consts  --      1.4851                12.1478                 5.5995
 IR Inten    --      0.7757                 3.7942                76.0571

                     43                     44                     45
                      A                      A                      A
 Frequencies --   3035.0451              3070.2756              3087.0334
 Red. masses --      1.0650                 1.0925                 1.0978
 Frc consts  --      5.7801                 6.0676                 6.1638
 IR Inten    --     22.0540                13.4102                43.5364

                     46                     47                     48
                      A                      A                      A
 Frequencies --   3093.2963              3141.6282              3142.2710
 Red. masses --      1.0874                 1.0760                 1.0617
 Frc consts  --      6.1302                 6.2572                 6.1763
 IR Inten    --     32.7164                 3.0979                 8.2260

                     49                     50                     51
                      A                      A                      A
 Frequencies --   3166.7747              3238.5325              3791.0259
 Red. masses --      1.0966                 1.1179                 1.0660
 Frc consts  --      6.4794                 6.9080                 9.0265
 IR Inten    --     33.4158                 2.3911                11.4642

 - Thermochemistry -
 -------------------
 Temperature   298.150 Kelvin.  Pressure   1.00000 Atm.
 Atom     1 has atomic number  8 and mass  15.99491

 Molecular mass:   126.06808 amu.
 Principal axes and moments of inertia in atomic units:
                           1         2         3
     Eigenvalues --   709.504851077.953531423.45808
           X            0.99869  -0.04596  -0.02234
           Y            0.04559   0.99882  -0.01651
           Z            0.02307   0.01547   0.99961
 This molecule is an asymmetric top.
 Rotational symmetry number  1.
 Warning -- assumption of classical behavior for rotation
           may cause significant error
 Rotational temperatures (Kelvin)      0.12208     0.08035     0.06085
 Rotational constants (GHZ):           2.54366     1.67423     1.26786
 Zero-point vibrational energy     419707.1 (Joules/Mol)
                                  100.31240 (Kcal/Mol)
 Warning -- explicit consideration of  11 degrees of freedom as
           vibrations may cause significant error
 Vibrational temperatures:    219.34   229.43   329.91   409.15   464.72
          (Kelvin)            486.88   559.40   603.28   653.33   779.61
                              889.56   913.37  1112.14  1129.08  1162.02
                             1246.15  1298.01  1328.47  1359.17  1429.05
                             1437.34  1485.65  1499.31  1555.97  1594.40
                             1606.06  1682.95  1743.66  1753.64  1822.17
                             1830.99  1845.75  1905.63  1950.91  2006.14
                             2028.24  2057.06  2122.18  2133.13  2169.54
                             2449.95  4287.80  4366.75  4417.44  4441.55
                             4450.56  4520.10  4521.02  4556.28  4659.52
                             5454.43

 Zero-point correction=                           0.159858 (Hartree/Particle)
 Thermal correction to Energy=                    0.167852
 Thermal correction to Enthalpy=                  0.168797
 Thermal correction to Gibbs Free Energy=         0.127872
 Sum of electronic and zero-point Energies=           -423.002931
 Sum of electronic and thermal Energies=              -422.994936
 Sum of electronic and thermal Enthalpies=            -422.993992
 Sum of electronic and thermal Free Energies=         -423.034917

                     E (Thermal)             CV                S
                      KCal/Mol        Cal/Mol-Kelvin    Cal/Mol-Kelvin
 Total                  105.329             32.043             86.134
 Electronic               0.000              0.000              0.000
 Translational            0.889              2.981             40.409
 Rotational               0.889              2.981             28.478
 Vibrational            103.552             26.081             17.247
 Vibration     1          0.619              1.900              2.641
 Vibration     2          0.621              1.892              2.556
 Vibration     3          0.652              1.796              1.884
 Vibration     4          0.683              1.703              1.507
 Vibration     5          0.708              1.629              1.295
 Vibration     6          0.719              1.599              1.220
 Vibration     7          0.757              1.494              1.005
 Vibration     8          0.782              1.428              0.894
 Vibration     9          0.813              1.352              0.784
 Vibration    10          0.897              1.158              0.561
 Vibration    11          0.978              0.993              0.419

 Normal termination of Gaussian 09 at Mon Jan 27 18:48:29 2020.
