 Gaussian 09, Revision D.01,
 Gaussian 09:  ES64L-G09RevD.01 24-Apr-2013

 -----------------------------
 # b3lyp 6-31G(2df,p) opt Freq
 -----------------------------

 -----
 titel
 -----
 Symbolic Z-matrix:
 Charge =  0 Multiplicity = 1

 SCF Done:  E(RB3LYP) =  -423.201955796     A.U. after   14 cycles
 Optimization completed.
    -- Stationary point found.
 Normal termination of Gaussian 09 at Tue Jan 28 03:17:13 2020.

 ----------------------------------------------------------------------
 #N Geom=AllCheck Guess=TCheck SCRF=Check GenChk RB3LYP/6-31G(2df,p) Fr
 eq
 ----------------------------------------------------------------------

 Structure from the checkpoint file:  "/scratch/puck/g09_02146ad7-29e5-46ce-903f-6a8b42e80035/Gau-1281.chk"
 -----
 titel
 -----
 Charge =  0 Multiplicity = 1

                         Standard orientation:
 ---------------------------------------------------------------------
 Center     Atomic      Atomic             Coordinates (Angstroms)
 Number     Number       Type             X           Y           Z
 ---------------------------------------------------------------------
      1          6           0        2.777196    0.286291    0.070693
      2          6           0        1.313643    0.182446   -0.327091
      3          6           0        0.403894    1.144756    0.457088
      4          6           0       -1.039498    1.000014   -0.005713
      5          8           0       -1.768325    1.952819   -0.174092
      6          6           0       -1.467758   -0.389247   -0.337226
      7          6           0       -1.399750   -1.513721    0.701357
      8          6           0       -0.408865   -1.476577   -0.411793
      9          8           0        0.908472   -1.163178   -0.071077
     10          1           0        2.898961    0.068596    1.136191
     11          1           0        3.376850   -0.430093   -0.496904
     12          1           0        3.155631    1.293375   -0.126064
     13          1           0        1.210735    0.394141   -1.403695
     14          1           0        0.485392    0.900158    1.524163
     15          1           0        0.698032    2.189293    0.325733
     16          1           0       -2.301515   -0.430451   -1.028786
     17          1           0       -1.023975   -1.269902    1.688286
     18          1           0       -2.206466   -2.237201    0.679693
     19          1           0       -0.488002   -2.198829   -1.221155
 ---------------------------------------------------------------------

 SCF Done:  E(RB3LYP) =  -423.201955796     A.U. after    1 cycles

 The electronic state is 1-A.
 Alpha  occ. eigenvalues --  -19.15301 -19.12218 -10.26758 -10.25110 -10.24764
 Alpha  occ. eigenvalues --  -10.20424 -10.20394 -10.19085 -10.18331  -1.05227
 Alpha  occ. eigenvalues --   -1.03251  -0.86580  -0.79763  -0.72154  -0.65134
 Alpha  occ. eigenvalues --   -0.62682  -0.59405  -0.53579  -0.51904  -0.49983
 Alpha  occ. eigenvalues --   -0.46734  -0.44525  -0.43927  -0.41274  -0.40478
 Alpha  occ. eigenvalues --   -0.39185  -0.38435  -0.38411  -0.35769  -0.34892
 Alpha  occ. eigenvalues --   -0.32595  -0.28647  -0.26331  -0.23782
 Alpha virt. eigenvalues --   -0.01460   0.08287   0.08865   0.10444   0.12041
 Alpha virt. eigenvalues --    0.13539   0.13876   0.15328   0.15801   0.17149
 Alpha virt. eigenvalues --    0.17940   0.18526   0.19626   0.22027   0.22685

 Mulliken charges:
               1
     1  C   -0.399716
     2  C    0.123972
     3  C   -0.316930
     4  C    0.381361
     5  O   -0.327819
     6  C   -0.148301
     7  C   -0.308931
     8  C    0.091673
     9  O   -0.269755
    10  H    0.125381
    11  H    0.127640
    12  H    0.121047
    13  H    0.078989
    14  H    0.123192
    15  H    0.123115
    16  H    0.112871
    17  H    0.131082
    18  H    0.127086
    19  H    0.104045
 Sum of Mulliken charges =   0.00000

 Dipole moment (field-independent basis, Debye):
    X=              1.2737    Y=             -1.6897    Z=              0.0055  Tot=              2.1160
 Quadrupole moment (field-independent basis, Debye-Ang):
   XX=            -54.8354   YY=            -58.0197   ZZ=            -50.8249
   XY=              9.3978   XZ=             -0.3696   YZ=              1.4234

  Exact polarizability:  84.915   2.482  81.601   1.009  -0.783  62.783
 Approx polarizability: 113.168  -6.772 124.920   2.589  -4.469  98.006

                      1                      2                      3
                      A                      A                      A
 Frequencies --     95.9562               140.4921               199.0646
 Red. masses --      4.1872                 3.1394                 2.9899
 Frc consts  --      0.0227                 0.0365                 0.0698
 IR Inten    --      7.5194                 0.2444                 0.6154

                      4                      5                      6
                      A                      A                      A
 Frequencies --    221.8003               285.8914               391.2156
 Red. masses --      1.0739                 2.7079                 3.6671
 Frc consts  --      0.0311                 0.1304                 0.3307
 IR Inten    --      0.0770                 0.4176                 0.8712

                      7                      8                      9
                      A                      A                      A
 Frequencies --    432.4906               439.1852               470.0855
 Red. masses --      3.8707                 3.5734                 3.7688
 Frc consts  --      0.4266                 0.4061                 0.4907
 IR Inten    --      7.7165                 7.6239                 2.3096

                     10                     11                     12
                      A                      A                      A
 Frequencies --    493.3448               584.2357               704.9794
 Red. masses --      2.2495                 3.2185                 3.4968
 Frc consts  --      0.3226                 0.6473                 1.0240
 IR Inten    --      6.8700                 1.7841                 1.6354

                     13                     14                     15
                      A                      A                      A
 Frequencies --    755.3928               803.3439               839.0969
 Red. masses --      2.3591                 2.7504                 1.8028
 Frc consts  --      0.7931                 1.0458                 0.7479
 IR Inten    --      2.3570                 4.0783                29.6989

                     16                     17                     18
                      A                      A                      A
 Frequencies --    878.6241               892.9292               923.4914
 Red. masses --      2.3324                 1.6057                 2.0893
 Frc consts  --      1.0609                 0.7543                 1.0498
 IR Inten    --      2.3219                 4.6627                 1.5706

                     19                     20                     21
                      A                      A                      A
 Frequencies --    977.1747              1007.8212              1022.8466
 Red. masses --      1.9631                 2.1758                 2.3946
 Frc consts  --      1.1044                 1.3021                 1.4761
 IR Inten    --      6.5356                25.9725                 6.5297

                     22                     23                     24
                      A                      A                      A
 Frequencies --   1047.9664              1088.8749              1117.4247
 Red. masses --      1.2451                 2.0356                 2.1067
 Frc consts  --      0.8057                 1.4220                 1.5499
 IR Inten    --      5.3182                20.6791                 4.2192

                     25                     26                     27
                      A                      A                      A
 Frequencies --   1121.7376              1160.4368              1173.6352
 Red. masses --      1.2570                 2.0532                 1.8498
 Frc consts  --      0.9319                 1.6290                 1.5012
 IR Inten    --      0.0238                12.8058                11.0018

                     28                     29                     30
                      A                      A                      A
 Frequencies --   1208.6780              1233.5887              1258.9828
 Red. masses --      1.4486                 2.1285                 1.8245
 Frc consts  --      1.2469                 1.9083                 1.7038
 IR Inten    --     10.9771                71.2402                72.1183

                     31                     32                     33
                      A                      A                      A
 Frequencies --   1288.4251              1356.8668              1365.9277
 Red. masses --      1.6374                 1.3479                 2.0228
 Frc consts  --      1.6015                 1.4621                 2.2236
 IR Inten    --     29.5990                66.3348                10.7574

                     34                     35                     36
                      A                      A                      A
 Frequencies --   1385.3740              1398.5972              1412.9811
 Red. masses --      1.4456                 1.3971                 1.3658
 Frc consts  --      1.6347                 1.6102                 1.6066
 IR Inten    --     22.5379                13.8951                11.4913

                     37                     38                     39
                      A                      A                      A
 Frequencies --   1453.7573              1478.2444              1483.5506
 Red. masses --      1.1143                 1.2334                 1.0564
 Frc consts  --      1.3875                 1.5880                 1.3699
 IR Inten    --      5.0149                 8.2534                 7.8946

                     40                     41                     42
                      A                      A                      A
 Frequencies --   1498.6401              1799.3020              2973.0813
 Red. masses --      1.0530                11.5193                 1.0828
 Frc consts  --      1.3934                21.9727                 5.6393
 IR Inten    --      2.1501               233.4736                36.4820

                     43                     44                     45
                      A                      A                      A
 Frequencies --   3034.2478              3045.0535              3107.5124
 Red. masses --      1.0636                 1.0355                 1.0978
 Frc consts  --      5.7695                 5.6569                 6.2460
 IR Inten    --      8.1291                15.7807                 7.4815

                     46                     47                     48
                      A                      A                      A
 Frequencies --   3120.1536              3125.4663              3130.3356
 Red. masses --      1.1017                 1.1020                 1.0878
 Frc consts  --      6.3190                 6.3428                 6.2805
 IR Inten    --     24.7083                19.6802                25.6642

                     49                     50                     51
                      A                      A                      A
 Frequencies --   3143.4142              3181.0239              3236.0843
 Red. masses --      1.0554                 1.0902                 1.1174
 Frc consts  --      6.1442                 6.4995                 6.8945
 IR Inten    --      7.9980                 4.3891                 4.9586

 - Thermochemistry -
 -------------------
 Temperature   298.150 Kelvin.  Pressure   1.00000 Atm.
 Atom     1 has atomic number  6 and mass  12.00000

 Molecular mass:   126.06808 amu.
 Principal axes and moments of inertia in atomic units:
                           1         2         3
     Eigenvalues --   751.593351119.978231688.66227
           X            0.99143   0.13064   0.00139
           Y           -0.13065   0.99140   0.00694
           Z           -0.00047  -0.00707   0.99997
 This molecule is an asymmetric top.
 Rotational symmetry number  1.
 Warning -- assumption of classical behavior for rotation
           may cause significant error
 Rotational temperatures (Kelvin)      0.11524     0.07734     0.05129
 Rotational constants (GHZ):           2.40122     1.61141     1.06874
 Zero-point vibrational energy     418626.1 (Joules/Mol)
                                  100.05405 (Kcal/Mol)
 Warning -- explicit consideration of  11 degrees of freedom as
           vibrations may cause significant error
 Vibrational temperatures:    138.06   202.14   286.41   319.12   411.33
          (Kelvin)            562.87   622.26   631.89   676.35   709.81
                              840.58  1014.31  1086.84  1155.83  1207.27
                             1264.14  1284.72  1328.70  1405.93  1450.03
                             1471.65  1507.79  1566.65  1607.72  1613.93
                             1669.61  1688.60  1739.02  1774.86  1811.39
                             1853.75  1952.23  1965.26  1993.24  2012.27
                             2032.96  2091.63  2126.86  2134.50  2156.21
                             2588.79  4277.60  4365.60  4381.15  4471.01
                             4489.20  4496.84  4503.85  4522.67  4576.78
                             4656.00

 Zero-point correction=                           0.159446 (Hartree/Particle)
 Thermal correction to Energy=                    0.167605
 Thermal correction to Enthalpy=                  0.168549
 Thermal correction to Gibbs Free Energy=         0.126783
 Sum of electronic and zero-point Energies=           -423.042510
 Sum of electronic and thermal Energies=              -423.034351
 Sum of electronic and thermal Enthalpies=            -423.033406
 Sum of electronic and thermal Free Energies=         -423.075173

                     E (Thermal)             CV                S
                      KCal/Mol        Cal/Mol-Kelvin    Cal/Mol-Kelvin
 Total                  105.174             31.725             87.904
 Electronic               0.000              0.000              0.000
 Translational            0.889              2.981             40.409
 Rotational               0.889              2.981             28.743
 Vibrational            103.396             25.763             18.753
 Vibration     1          0.603              1.952              3.535
 Vibration     2          0.615              1.913              2.797
 Vibration     3          0.637              1.841              2.142
 Vibration     4          0.648              1.808              1.944
 Vibration     5          0.684              1.700              1.498
 Vibration     6          0.759              1.489              0.996
 Vibration     7          0.793              1.399              0.851
 Vibration     8          0.799              1.385              0.829
 Vibration     9          0.827              1.316              0.737
 Vibration    10          0.849              1.265              0.675
 Vibration    11          0.941              1.065              0.478

 Optimization completed.
    -- Stationary point found.
 Normal termination of Gaussian 09 at Tue Jan 28 04:00:53 2020.
