 Gaussian 09, Revision D.01,
 Gaussian 09:  ES64L-G09RevD.01 24-Apr-2013

 -----------------------------
 # b3lyp 6-31G(2df,p) opt Freq
 -----------------------------

 -----
 titel
 -----
 Symbolic Z-matrix:
 Charge =  0 Multiplicity = 1

 SCF Done:  E(RB3LYP) =  -423.164705792     A.U. after   13 cycles
 Optimization completed.
    -- Stationary point found.
 Normal termination of Gaussian 09 at Mon Jan 27 12:17:51 2020.

 ----------------------------------------------------------------------
 #N Geom=AllCheck Guess=TCheck SCRF=Check GenChk RB3LYP/6-31G(2df,p) Fr
 eq
 ----------------------------------------------------------------------

 Structure from the checkpoint file:  "/scratch/puck/g09_1db4a8f1-ea5d-4544-9de9-edc862d30c3d/Gau-167046.chk"
 -----
 titel
 -----
 Charge =  0 Multiplicity = 1

                         Standard orientation:
 ---------------------------------------------------------------------
 Center     Atomic      Atomic             Coordinates (Angstroms)
 Number     Number       Type             X           Y           Z
 ---------------------------------------------------------------------
      1          6           0       -2.067452   -0.071156    0.169278
      2          6           0       -1.288505   -1.392617    0.454623
      3          6           0       -0.039821   -0.682104   -0.065145
      4          8           0        1.056950   -1.333054   -0.705615
      5          6           0        2.011371   -0.450340   -0.063826
      6          6           0        0.894043    0.171265    0.815573
      7          8           0        0.567557    1.533291    0.680877
      8          6           0       -0.204137    1.715935   -0.516308
      9          6           0       -0.910476    0.388531   -0.771899
     10          1           0       -3.053144   -0.172216   -0.286698
     11          1           0       -2.148891    0.563853    1.055052
     12          1           0       -1.266504   -1.782803    1.475456
     13          1           0       -1.595258   -2.192163   -0.226005
     14          1           0        2.790540   -1.012110    0.461824
     15          1           0        2.474534    0.250302   -0.768788
     16          1           0        0.968748   -0.059196    1.880215
     17          1           0       -0.877227    2.560652   -0.339802
     18          1           0        0.452750    1.971409   -1.360884
     19          1           0       -1.111747    0.193296   -1.826237
 ---------------------------------------------------------------------

 SCF Done:  E(RB3LYP) =  -423.164705792     A.U. after    1 cycles

 The electronic state is 1-A.
 Alpha  occ. eigenvalues --  -19.14276 -19.13596 -10.23360 -10.23255 -10.22857
 Alpha  occ. eigenvalues --  -10.22780 -10.18905 -10.18729 -10.18520  -1.05617
 Alpha  occ. eigenvalues --   -1.02218  -0.84490  -0.74288  -0.70470  -0.66765
 Alpha  occ. eigenvalues --   -0.63110  -0.57804  -0.54358  -0.50817  -0.49764
 Alpha  occ. eigenvalues --   -0.46652  -0.44511  -0.43473  -0.42422  -0.40243
 Alpha  occ. eigenvalues --   -0.39068  -0.36918  -0.35646  -0.33213  -0.32507
 Alpha  occ. eigenvalues --   -0.30920  -0.29231  -0.25130  -0.24299
 Alpha virt. eigenvalues --    0.07033   0.09410   0.10414   0.11143   0.12582
 Alpha virt. eigenvalues --    0.13178   0.13842   0.14507   0.16354   0.17476
 Alpha virt. eigenvalues --    0.18356   0.18925   0.20013   0.20583   0.21166

 Mulliken charges:
               1
     1  C   -0.239789
     2  C   -0.317248
     3  C    0.438279
     4  O   -0.332297
     5  C   -0.129261
     6  C    0.007914
     7  O   -0.267629
     8  C   -0.116386
     9  C   -0.082587
    10  H    0.105366
    11  H    0.115519
    12  H    0.100141
    13  H    0.116143
    14  H    0.107844
    15  H    0.106834
    16  H    0.092063
    17  H    0.111276
    18  H    0.099330
    19  H    0.084487
 Sum of Mulliken charges =   0.00000

 Dipole moment (field-independent basis, Debye):
    X=             -0.8167    Y=              0.2509    Z=              0.0668  Tot=              0.8569
 Quadrupole moment (field-independent basis, Debye-Ang):
   XX=            -50.2965   YY=            -56.8007   ZZ=            -52.7626
   XY=              0.0585   XZ=              1.4431   YZ=             -4.2872

  Exact polarizability:  82.926  -0.570  73.151   0.648  -4.690  65.738
 Approx polarizability: 110.465  -1.722 106.576   1.309  -2.119 101.942

                      1                      2                      3
                      A                      A                      A
 Frequencies --    136.4703               180.3783               248.3620
 Red. masses --      2.5888                 2.6987                 2.4962
 Frc consts  --      0.0284                 0.0517                 0.0907
 IR Inten    --      2.6413                 2.9400                 1.2672

                      4                      5                      6
                      A                      A                      A
 Frequencies --    286.8769               398.9285               421.1213
 Red. masses --      2.8648                 2.6740                 2.6714
 Frc consts  --      0.1389                 0.2507                 0.2791
 IR Inten    --      1.2743                 3.4584                 8.4238

                      7                      8                      9
                      A                      A                      A
 Frequencies --    498.5203               616.4796               694.3311
 Red. masses --      4.2350                 3.7603                 2.3198
 Frc consts  --      0.6201                 0.8420                 0.6589
 IR Inten    --      1.3906                 2.1608                 1.2906

                     10                     11                     12
                      A                      A                      A
 Frequencies --    728.7460               787.5942               812.8127
 Red. masses --      3.5542                 1.9111                 2.4027
 Frc consts  --      1.1121                 0.6984                 0.9352
 IR Inten    --      7.7582                 2.4752                 2.1105

                     13                     14                     15
                      A                      A                      A
 Frequencies --    846.5000               872.8015               903.3370
 Red. masses --      2.0083                 2.0590                 2.0944
 Frc consts  --      0.8479                 0.9241                 1.0069
 IR Inten    --      8.8768                 3.6616                 4.6591

                     16                     17                     18
                      A                      A                      A
 Frequencies --    925.1273               957.4971               997.2910
 Red. masses --      2.7059                 3.2174                 2.3362
 Frc consts  --      1.3645                 1.7379                 1.3690
 IR Inten    --      2.3733                13.6993                41.9066

                     19                     20                     21
                      A                      A                      A
 Frequencies --   1004.3923              1031.2877              1052.6056
 Red. masses --      2.0586                 2.9752                 1.8999
 Frc consts  --      1.2236                 1.8644                 1.2403
 IR Inten    --     56.5016                 2.1802                 9.1368

                     22                     23                     24
                      A                      A                      A
 Frequencies --   1094.5220              1121.8495              1136.9092
 Red. masses --      3.4812                 3.0592                 2.1124
 Frc consts  --      2.4571                 2.2684                 1.6087
 IR Inten    --     50.6241                31.3895                 4.5970

                     25                     26                     27
                      A                      A                      A
 Frequencies --   1139.7872              1165.5941              1189.7954
 Red. masses --      2.0224                 1.2935                 2.0030
 Frc consts  --      1.5479                 1.0354                 1.6706
 IR Inten    --      0.9356                 1.5599                54.8465

                     28                     29                     30
                      A                      A                      A
 Frequencies --   1214.4710              1224.0685              1239.4633
 Red. masses --      1.4954                 1.4068                 1.1928
 Frc consts  --      1.2995                 1.2419                 1.0796
 IR Inten    --      7.9117                31.9586                 3.4465

                     31                     32                     33
                      A                      A                      A
 Frequencies --   1249.4584              1270.1399              1294.9238
 Red. masses --      1.5698                 1.4674                 2.2163
 Frc consts  --      1.4439                 1.3948                 2.1896
 IR Inten    --      0.9821                17.0497                14.5678

                     34                     35                     36
                      A                      A                      A
 Frequencies --   1329.0755              1333.0325              1359.2184
 Red. masses --      1.4509                 1.6013                 1.3984
 Frc consts  --      1.5100                 1.6765                 1.5221
 IR Inten    --      7.0194                 3.2915                 3.3308

                     37                     38                     39
                      A                      A                      A
 Frequencies --   1397.2175              1479.0260              1496.6006
 Red. masses --      1.4506                 1.0888                 1.1301
 Frc consts  --      1.6685                 1.4033                 1.4914
 IR Inten    --      6.1105                 1.4802                 3.4099

                     40                     41                     42
                      A                      A                      A
 Frequencies --   1510.2422              1521.5141              2996.0265
 Red. masses --      1.0992                 1.1017                 1.0687
 Frc consts  --      1.4771                 1.5027                 5.6518
 IR Inten    --      1.5092                 1.2824                54.1137

                     43                     44                     45
                      A                      A                      A
 Frequencies --   3027.3505              3056.4331              3071.7934
 Red. masses --      1.0559                 1.0575                 1.0611
 Frc consts  --      5.7019                 5.8204                 5.8991
 IR Inten    --     63.0744                32.2089                16.7668

                     46                     47                     48
                      A                      A                      A
 Frequencies --   3077.3297              3077.9483              3096.1738
 Red. masses --      1.1066                 1.0940                 1.0928
 Frc consts  --      6.1743                 6.1063                 6.1723
 IR Inten    --     23.7571                33.7009                46.3239

                     49                     50                     51
                      A                      A                      A
 Frequencies --   3104.2283              3108.0476              3132.4695
 Red. masses --      1.0952                 1.1011                 1.1067
 Frc consts  --      6.2177                 6.2668                 6.3979
 IR Inten    --     18.0402                 4.8569                33.1386

 - Thermochemistry -
 -------------------
 Temperature   298.150 Kelvin.  Pressure   1.00000 Atm.
 Atom     1 has atomic number  6 and mass  12.00000

 Molecular mass:   126.06808 amu.
 Principal axes and moments of inertia in atomic units:
                           1         2         3
     Eigenvalues --   730.99178 884.404501262.23708
           X            0.99960   0.02832  -0.00036
           Y           -0.02830   0.99793  -0.05782
           Z           -0.00128   0.05781   0.99833
 This molecule is an asymmetric top.
 Rotational symmetry number  1.
 Warning -- assumption of classical behavior for rotation
           may cause significant error
 Rotational temperatures (Kelvin)      0.11849     0.09793     0.06862
 Rotational constants (GHZ):           2.46889     2.04063     1.42980
 Zero-point vibrational energy     424172.9 (Joules/Mol)
                                  101.37975 (Kcal/Mol)
 Warning -- explicit consideration of   8 degrees of freedom as
           vibrations may cause significant error
 Vibrational temperatures:    196.35   259.52   357.34   412.75   573.97
          (Kelvin)            605.90   717.26   886.98   998.99  1048.50
                             1133.17  1169.45  1217.92  1255.77  1299.70
                             1331.05  1377.62  1434.88  1445.09  1483.79
                             1514.46  1574.77  1614.09  1635.76  1639.90
                             1677.03  1711.85  1747.35  1761.16  1783.31
                             1797.69  1827.45  1863.10  1912.24  1917.93
                             1955.61  2010.28  2127.99  2153.27  2172.90
                             2189.12  4310.61  4355.68  4397.52  4419.62
                             4427.59  4428.48  4454.70  4466.29  4471.78
                             4506.92

 Zero-point correction=                           0.161559 (Hartree/Particle)
 Thermal correction to Energy=                    0.168600
 Thermal correction to Enthalpy=                  0.169544
 Thermal correction to Gibbs Free Energy=         0.130272
 Sum of electronic and zero-point Energies=           -423.003147
 Sum of electronic and thermal Energies=              -422.996106
 Sum of electronic and thermal Enthalpies=            -422.995161
 Sum of electronic and thermal Free Energies=         -423.034434

                     E (Thermal)             CV                S
                      KCal/Mol        Cal/Mol-Kelvin    Cal/Mol-Kelvin
 Total                  105.798             28.529             82.657
 Electronic               0.000              0.000              0.000
 Translational            0.889              2.981             40.409
 Rotational               0.889              2.981             28.192
 Vibrational            104.021             22.568             14.056
 Vibration     1          0.614              1.917              2.853
 Vibration     2          0.629              1.866              2.324
 Vibration     3          0.662              1.765              1.742
 Vibration     4          0.684              1.698              1.492
 Vibration     5          0.765              1.472              0.967
 Vibration     6          0.784              1.424              0.888
 Vibration     7          0.854              1.253              0.662
 Vibration     8          0.976              0.997              0.422

 Optimization completed.
    -- Stationary point found.
 Normal termination of Gaussian 09 at Mon Jan 27 13:06:26 2020.
