 Gaussian 09, Revision D.01,
 Gaussian 09:  ES64L-G09RevD.01 24-Apr-2013

 -----------------------------
 # b3lyp 6-31G(2df,p) opt Freq
 -----------------------------

 -----
 titel
 -----
 Symbolic Z-matrix:
 Charge =  0 Multiplicity = 1

 SCF Done:  E(RB3LYP) =  -423.149261011     A.U. after   14 cycles
 Optimization completed.
    -- Stationary point found.
 Normal termination of Gaussian 09 at Mon Jan 27 16:22:09 2020.

 ----------------------------------------------------------------------
 #N Geom=AllCheck Guess=TCheck SCRF=Check GenChk RB3LYP/6-31G(2df,p) Fr
 eq
 ----------------------------------------------------------------------

 Structure from the checkpoint file:  "/scratch/puck/g09_3f632591-0f86-45df-8906-03b5e9a25f4d/Gau-176893.chk"
 -----
 titel
 -----
 Charge =  0 Multiplicity = 1

                         Standard orientation:
 ---------------------------------------------------------------------
 Center     Atomic      Atomic             Coordinates (Angstroms)
 Number     Number       Type             X           Y           Z
 ---------------------------------------------------------------------
      1          6           0        1.163000   -0.706515    1.370524
      2          6           0        1.012174   -0.155468   -0.047046
      3          8           0        2.001888   -0.694489   -0.911796
      4          6           0        0.987029    1.428706   -0.050564
      5          6           0       -0.488229    1.757689    0.150719
      6          6           0       -1.204745    0.719246   -0.265030
      7          6           0       -2.335270   -0.222656    0.060462
      8          8           0       -1.370582   -1.322380    0.017344
      9          6           0       -0.380651   -0.459981   -0.645820
     10          1           0        1.086965   -1.796226    1.363824
     11          1           0        2.138802   -0.421435    1.782340
     12          1           0        0.388819   -0.312872    2.033619
     13          1           0        2.860591   -0.584942   -0.490597
     14          1           0        1.613676    1.849060    0.744963
     15          1           0        1.389403    1.790911   -1.004640
     16          1           0       -0.841838    2.643515    0.665248
     17          1           0       -2.814852   -0.115238    1.039221
     18          1           0       -3.102555   -0.347568   -0.714461
     19          1           0       -0.289308   -0.736374   -1.703365
 ---------------------------------------------------------------------

 SCF Done:  E(RB3LYP) =  -423.149261011     A.U. after    1 cycles

 The electronic state is 1-A.
 Alpha  occ. eigenvalues --  -19.13684 -19.13562 -10.24123 -10.24024 -10.22242
 Alpha  occ. eigenvalues --  -10.18886 -10.18722 -10.18664 -10.17512  -1.03525
 Alpha  occ. eigenvalues --   -1.01829  -0.83314  -0.74558  -0.69629  -0.68786
 Alpha  occ. eigenvalues --   -0.64437  -0.57381  -0.52884  -0.49796  -0.48146
 Alpha  occ. eigenvalues --   -0.46474  -0.44468  -0.42912  -0.41777  -0.40621
 Alpha  occ. eigenvalues --   -0.38988  -0.36150  -0.35920  -0.33876  -0.32765
 Alpha  occ. eigenvalues --   -0.30445  -0.27064  -0.25305  -0.23823
 Alpha virt. eigenvalues --    0.00354   0.07061   0.07964   0.11381   0.12193
 Alpha virt. eigenvalues --    0.13806   0.14724   0.15664   0.16151   0.16886
 Alpha virt. eigenvalues --    0.17848   0.17948   0.18957   0.20341   0.21366

 Mulliken charges:
               1
     1  C   -0.423386
     2  C    0.331539
     3  O   -0.481285
     4  C   -0.302461
     5  C   -0.212141
     6  C    0.195149
     7  C   -0.158576
     8  O   -0.309347
     9  C    0.089957
    10  H    0.136241
    11  H    0.098847
    12  H    0.125827
    13  H    0.276262
    14  H    0.097324
    15  H    0.115134
    16  H    0.099836
    17  H    0.119302
    18  H    0.111060
    19  H    0.090717
 Sum of Mulliken charges =   0.00000

 Dipole moment (field-independent basis, Debye):
    X=              0.5458    Y=              1.8680    Z=              1.1281  Tot=              2.2494
 Quadrupole moment (field-independent basis, Debye-Ang):
   XX=            -46.3037   YY=            -56.2054   ZZ=            -54.0876
   XY=             -1.0410   XZ=              2.0227   YZ=              0.3503

  Exact polarizability:  90.070   5.293  75.787   0.497   4.279  64.383
 Approx polarizability: 124.890  13.091 120.809   0.990  10.680  98.668

                      1                      2                      3
                      A                      A                      A
 Frequencies --    114.6940               204.8265               236.0953
 Red. masses --      3.2446                 2.8097                 1.0896
 Frc consts  --      0.0251                 0.0695                 0.0358
 IR Inten    --      1.5247                 3.7368                 0.2960

                      4                      5                      6
                      A                      A                      A
 Frequencies --    254.6999               272.4939               302.4956
 Red. masses --      1.1553                 2.3981                 3.4751
 Frc consts  --      0.0442                 0.1049                 0.1874
 IR Inten    --     75.0911                18.0784                 0.7647

                      7                      8                      9
                      A                      A                      A
 Frequencies --    323.7750               369.4488               431.8091
 Red. masses --      2.3711                 3.2225                 2.9021
 Frc consts  --      0.1464                 0.2591                 0.3188
 IR Inten    --      3.0075                 1.3625                13.9141

                     10                     11                     12
                      A                      A                      A
 Frequencies --    509.0190               577.6569               645.5267
 Red. masses --      3.2656                 4.1942                 4.2503
 Frc consts  --      0.4985                 0.8246                 1.0435
 IR Inten    --     10.3051                 1.6955                 2.6203

                     13                     14                     15
                      A                      A                      A
 Frequencies --    744.9020               786.0463               836.0152
 Red. masses --      2.5149                 5.6201                 1.4472
 Frc consts  --      0.8222                 2.0459                 0.5959
 IR Inten    --      6.8675                 5.8139                21.0883

                     16                     17                     18
                      A                      A                      A
 Frequencies --    891.8552               905.1883               924.6989
 Red. masses --      2.6897                 2.3014                 3.2826
 Frc consts  --      1.2605                 1.1110                 1.6538
 IR Inten    --     26.8054                 7.2968                36.1199

                     19                     20                     21
                      A                      A                      A
 Frequencies --    947.8744               954.2288               977.3102
 Red. masses --      2.0683                 3.0919                 2.1606
 Frc consts  --      1.0949                 1.6587                 1.2159
 IR Inten    --     29.7277                49.0103                16.5101

                     22                     23                     24
                      A                      A                      A
 Frequencies --   1003.3967              1025.7888              1090.3113
 Red. masses --      2.3596                 1.7833                 1.7885
 Frc consts  --      1.3997                 1.1056                 1.2527
 IR Inten    --      3.7447                13.8771                 4.0841

                     25                     26                     27
                      A                      A                      A
 Frequencies --   1121.8783              1126.3969              1139.7022
 Red. masses --      1.7378                 1.8680                 1.2322
 Frc consts  --      1.2887                 1.3964                 0.9430
 IR Inten    --     56.3854                 3.0991                 1.9288

                     28                     29                     30
                      A                      A                      A
 Frequencies --   1165.3278              1212.3176              1239.2524
 Red. masses --      2.6975                 1.6187                 1.5294
 Frc consts  --      2.1583                 1.4017                 1.3839
 IR Inten    --     46.1250                 2.4782                11.9870

                     31                     32                     33
                      A                      A                      A
 Frequencies --   1268.9707              1294.7271              1338.2809
 Red. masses --      1.4691                 1.5495                 1.4194
 Frc consts  --      1.3938                 1.5304                 1.4978
 IR Inten    --     22.2886                 6.2382                 4.8096

                     34                     35                     36
                      A                      A                      A
 Frequencies --   1344.5319              1379.1019              1404.9432
 Red. masses --      1.8025                 1.8196                 1.2714
 Frc consts  --      1.9199                 2.0391                 1.4786
 IR Inten    --      9.4181                19.3184                10.7544

                     37                     38                     39
                      A                      A                      A
 Frequencies --   1478.9825              1489.2080              1491.9771
 Red. masses --      1.0663                 1.0673                 1.0830
 Frc consts  --      1.3743                 1.3946                 1.4203
 IR Inten    --      1.3002                 3.7755                 5.1788

                     40                     41                     42
                      A                      A                      A
 Frequencies --   1509.5466              1745.0000              3014.9748
 Red. masses --      1.1049                 8.6653                 1.0595
 Frc consts  --      1.4834                15.5463                 5.6743
 IR Inten    --      1.1478                 3.5804                77.7380

                     43                     44                     45
                      A                      A                      A
 Frequencies --   3024.5066              3030.7710              3035.0651
 Red. masses --      1.0587                 1.0465                 1.0795
 Frc consts  --      5.7058                 5.6638                 5.8589
 IR Inten    --     32.1588                37.0871                24.1834

                     46                     47                     48
                      A                      A                      A
 Frequencies --   3063.8657              3072.4646              3106.7819
 Red. masses --      1.1035                 1.1053                 1.0933
 Frc consts  --      6.1035                 6.1474                 6.2176
 IR Inten    --     19.9227                30.2177                19.1378

                     49                     50                     51
                      A                      A                      A
 Frequencies --   3134.9065              3198.5755              3812.9929
 Red. masses --      1.1021                 1.0951                 1.0660
 Frc consts  --      6.3816                 6.6010                 9.1316
 IR Inten    --     12.9182                12.9006                16.1786

 - Thermochemistry -
 -------------------
 Temperature   298.150 Kelvin.  Pressure   1.00000 Atm.
 Atom     1 has atomic number  6 and mass  12.00000

 Molecular mass:   126.06808 amu.
 Principal axes and moments of inertia in atomic units:
                           1         2         3
     Eigenvalues --   675.088271132.081071393.53087
           X            0.99982   0.00227   0.01860
           Y           -0.00208   0.99994  -0.01037
           Z           -0.01862   0.01033   0.99977
 This molecule is an asymmetric top.
 Rotational symmetry number  1.
 Warning -- assumption of classical behavior for rotation
           may cause significant error
 Rotational temperatures (Kelvin)      0.12830     0.07651     0.06215
 Rotational constants (GHZ):           2.67334     1.59418     1.29509
 Zero-point vibrational energy     416152.1 (Joules/Mol)
                                   99.46275 (Kcal/Mol)
 Warning -- explicit consideration of  11 degrees of freedom as
           vibrations may cause significant error
 Vibrational temperatures:    165.02   294.70   339.69   366.46   392.06
          (Kelvin)            435.22   465.84   531.55   621.28   732.36
                              831.12   928.77  1071.75  1130.94  1202.84
                             1283.18  1302.36  1330.43  1363.78  1372.92
                             1406.13  1443.66  1475.88  1568.71  1614.13
                             1620.63  1639.78  1676.64  1744.25  1783.01
                             1825.76  1862.82  1925.49  1934.48  1984.22
                             2021.40  2127.92  2142.64  2146.62  2171.90
                             2510.66  4337.87  4351.59  4360.60  4366.78
                             4408.21  4420.59  4469.96  4510.43  4602.03
                             5486.04

 Zero-point correction=                           0.158504 (Hartree/Particle)
 Thermal correction to Energy=                    0.166820
 Thermal correction to Enthalpy=                  0.167764
 Thermal correction to Gibbs Free Energy=         0.126189
 Sum of electronic and zero-point Energies=           -422.990757
 Sum of electronic and thermal Energies=              -422.982441
 Sum of electronic and thermal Enthalpies=            -422.981497
 Sum of electronic and thermal Free Energies=         -423.023072

                     E (Thermal)             CV                S
                      KCal/Mol        Cal/Mol-Kelvin    Cal/Mol-Kelvin
 Total                  104.681             32.747             87.503
 Electronic               0.000              0.000              0.000
 Translational            0.889              2.981             40.409
 Rotational               0.889              2.981             28.456
 Vibrational            102.904             26.785             18.638
 Vibration     1          0.608              1.937              3.188
 Vibration     2          0.640              1.833              2.089
 Vibration     3          0.655              1.786              1.832
 Vibration     4          0.665              1.755              1.698
 Vibration     5          0.675              1.724              1.580
 Vibration     6          0.694              1.669              1.403
 Vibration     7          0.708              1.628              1.291
 Vibration     8          0.742              1.535              1.082
 Vibration     9          0.793              1.401              0.853
 Vibration    10          0.864              1.230              0.636
 Vibration    11          0.934              1.080              0.490

 Optimization completed.
    -- Stationary point found.
 Normal termination of Gaussian 09 at Mon Jan 27 17:05:54 2020.
