 Gaussian 09, Revision D.01,
 Gaussian 09:  ES64L-G09RevD.01 24-Apr-2013

 -----------------------------
 # b3lyp 6-31G(2df,p) opt Freq
 -----------------------------

 -----
 titel
 -----
 Symbolic Z-matrix:
 Charge =  0 Multiplicity = 1

 SCF Done:  E(RB3LYP) =  -423.111648777     A.U. after   13 cycles
 Optimization completed.
    -- Stationary point found.
 Normal termination of Gaussian 09 at Tue Jan 28 09:22:45 2020.

 ----------------------------------------------------------------------
 #N Geom=AllCheck Guess=TCheck SCRF=Check GenChk RB3LYP/6-31G(2df,p) Fr
 eq
 ----------------------------------------------------------------------

 Structure from the checkpoint file:  "/scratch/puck/g09_40458b1a-69f3-4aac-8431-198bf2181cb6/Gau-82542.chk"
 -----
 titel
 -----
 Charge =  0 Multiplicity = 1

                         Standard orientation:
 ---------------------------------------------------------------------
 Center     Atomic      Atomic             Coordinates (Angstroms)
 Number     Number       Type             X           Y           Z
 ---------------------------------------------------------------------
      1          6           0       -2.560394   -0.465045   -0.495724
      2          8           0       -1.684968   -0.160315    0.580829
      3          6           0       -0.360780   -0.143709    0.221438
      4          6           0        0.479157   -1.429312    0.106911
      5          6           0        1.725759   -1.095696   -0.711687
      6          6           0        1.680427    0.282322    0.001384
      7          6           0        0.803099   -0.371851    1.150095
      8          6           0        0.381963    0.957044   -0.542296
      9          8           0        0.130977    2.253646   -0.053811
     10          1           0       -2.338317   -1.452265   -0.923075
     11          1           0       -3.573855   -0.466260   -0.089437
     12          1           0       -2.495208    0.287809   -1.292267
     13          1           0        0.012000   -2.390292    0.285000
     14          1           0        2.585540   -1.695633   -0.399274
     15          1           0        1.658085   -1.096434   -1.806393
     16          1           0        2.567225    0.895970    0.142954
     17          1           0        0.879646   -0.431365    2.225571
     18          1           0        0.285235    1.018346   -1.632207
     19          1           0       -0.043819    2.180955    0.892254
 ---------------------------------------------------------------------

 SCF Done:  E(RB3LYP) =  -423.111648777     A.U. after    1 cycles

 The electronic state is 1-A.
 Alpha  occ. eigenvalues --  -19.15386 -19.13289 -10.23731 -10.22917 -10.22775
 Alpha  occ. eigenvalues --  -10.19425 -10.19365 -10.19187 -10.18693  -1.05091
 Alpha  occ. eigenvalues --   -1.01637  -0.92107  -0.72759  -0.70100  -0.68043
 Alpha  occ. eigenvalues --   -0.62679  -0.56070  -0.53971  -0.52569  -0.47784
 Alpha  occ. eigenvalues --   -0.47009  -0.46121  -0.44150  -0.42926  -0.41189
 Alpha  occ. eigenvalues --   -0.38246  -0.35625  -0.35126  -0.33818  -0.31314
 Alpha  occ. eigenvalues --   -0.30334  -0.26777  -0.25050  -0.23264
 Alpha virt. eigenvalues --    0.08260   0.09893   0.10517   0.11247   0.11755
 Alpha virt. eigenvalues --    0.13451   0.14030   0.15286   0.16120   0.16561
 Alpha virt. eigenvalues --    0.16849   0.18623   0.19341   0.20269   0.21713

 Mulliken charges:
               1
     1  C   -0.262152
     2  O   -0.287895
     3  C    0.392594
     4  C   -0.132917
     5  C   -0.242428
     6  C   -0.103705
     7  C   -0.188959
     8  C    0.088227
     9  O   -0.448324
    10  H    0.112227
    11  H    0.129165
    12  H    0.122652
    13  H    0.091139
    14  H    0.102647
    15  H    0.089299
    16  H    0.078697
    17  H    0.099075
    18  H    0.076433
    19  H    0.284226
 Sum of Mulliken charges =   0.00000

 Dipole moment (field-independent basis, Debye):
    X=              0.0191    Y=             -1.5109    Z=             -0.0093  Tot=              1.5110
 Quadrupole moment (field-independent basis, Debye-Ang):
   XX=            -50.4404   YY=            -56.7213   ZZ=            -51.1460
   XY=              0.6053   XZ=              2.3801   YZ=              2.4967

  Exact polarizability:  82.728  -1.283  73.309   0.675   1.207  68.361
 Approx polarizability: 110.825  -1.600 108.403   0.882   2.629 108.170

                      1                      2                      3
                      A                      A                      A
 Frequencies --     80.2559               162.1325               175.5171
 Red. masses --      2.9406                 1.1883                 2.6173
 Frc consts  --      0.0112                 0.0184                 0.0475
 IR Inten    --      2.9835                 2.0149                 4.0551

                      4                      5                      6
                      A                      A                      A
 Frequencies --    219.1658               233.5163               305.4364
 Red. masses --      2.7444                 1.8484                 1.8917
 Frc consts  --      0.0777                 0.0594                 0.1040
 IR Inten    --     15.0314                13.9595                57.0661

                      7                      8                      9
                      A                      A                      A
 Frequencies --    380.1758               404.4022               470.0759
 Red. masses --      2.4231                 3.8828                 3.0094
 Frc consts  --      0.2063                 0.3741                 0.3918
 IR Inten    --      0.0327                 3.6026                 0.8989

                     10                     11                     12
                      A                      A                      A
 Frequencies --    537.0842               642.5839               723.4139
 Red. masses --      4.6800                 3.8287                 3.2921
 Frc consts  --      0.7954                 0.9315                 1.0151
 IR Inten    --      1.9113                11.9916                 5.4077

                     13                     14                     15
                      A                      A                      A
 Frequencies --    809.3300               827.5562               834.7262
 Red. masses --      1.9830                 2.0654                 1.5851
 Frc consts  --      0.7653                 0.8334                 0.6507
 IR Inten    --      3.3760                 9.8697                 4.1069

                     16                     17                     18
                      A                      A                      A
 Frequencies --    896.7280               922.7836               943.5385
 Red. masses --      2.5921                 2.0458                 2.1203
 Frc consts  --      1.2281                 1.0264                 1.1121
 IR Inten    --     11.0142                 1.7709                18.1634

                     19                     20                     21
                      A                      A                      A
 Frequencies --    971.6938               985.2701              1000.0274
 Red. masses --      2.3038                 2.6469                 1.8824
 Frc consts  --      1.2816                 1.5139                 1.1091
 IR Inten    --     12.9074                16.7075                 1.7236

                     22                     23                     24
                      A                      A                      A
 Frequencies --   1035.1940              1057.5898              1102.7410
 Red. masses --      1.7375                 3.2758                 2.2439
 Frc consts  --      1.0971                 2.1587                 1.6077
 IR Inten    --     13.7230                26.7185                37.0702

                     25                     26                     27
                      A                      A                      A
 Frequencies --   1124.6269              1143.9641              1159.9831
 Red. masses --      2.4766                 1.6833                 1.7896
 Frc consts  --      1.8455                 1.2979                 1.4188
 IR Inten    --     52.2458                35.7473                 2.6106

                     28                     29                     30
                      A                      A                      A
 Frequencies --   1180.1178              1187.2338              1200.4590
 Red. masses --      1.2842                 1.5558                 1.5564
 Frc consts  --      1.0538                 1.2920                 1.3215
 IR Inten    --      1.5008                 2.0464                14.9207

                     31                     32                     33
                      A                      A                      A
 Frequencies --   1231.0652              1253.9573              1277.9092
 Red. masses --      1.5651                 1.8586                 1.6076
 Frc consts  --      1.3975                 1.7219                 1.5467
 IR Inten    --      3.4337                37.8335                10.2714

                     34                     35                     36
                      A                      A                      A
 Frequencies --   1294.1903              1310.5870              1391.9443
 Red. masses --      1.6119                 2.3831                 2.3228
 Frc consts  --      1.5907                 2.4118                 2.6516
 IR Inten    --     13.9773                34.6812                82.1512

                     37                     38                     39
                      A                      A                      A
 Frequencies --   1444.0345              1486.1357              1492.9802
 Red. masses --      1.4294                 1.1122                 1.2987
 Frc consts  --      1.7561                 1.4472                 1.7055
 IR Inten    --    102.0813                 8.0639                18.0503

                     40                     41                     42
                      A                      A                      A
 Frequencies --   1501.6377              1505.5590              3000.4676
 Red. masses --      1.1203                 1.0533                 1.0343
 Frc consts  --      1.4884                 1.4067                 5.4861
 IR Inten    --      2.6846                 6.4451                42.8968

                     43                     44                     45
                      A                      A                      A
 Frequencies --   3025.8867              3047.9771              3058.5332
 Red. masses --      1.0608                 1.0848                 1.1037
 Frc consts  --      5.7224                 5.9380                 6.0830
 IR Inten    --     50.1156                53.1042                44.1259

                     46                     47                     48
                      A                      A                      A
 Frequencies --   3087.0877              3127.0975              3144.5429
 Red. masses --      1.1042                 1.0993                 1.0915
 Frc consts  --      6.2002                 6.3338                 6.3592
 IR Inten    --     32.3392                27.5830                25.4054

                     49                     50                     51
                      A                      A                      A
 Frequencies --   3189.7649              3228.2075              3786.0529
 Red. masses --      1.0914                 1.0979                 1.0652
 Frc consts  --      6.5426                 6.7411                 8.9963
 IR Inten    --     14.7846                 4.4528                13.3941

 - Thermochemistry -
 -------------------
 Temperature   298.150 Kelvin.  Pressure   1.00000 Atm.
 Atom     1 has atomic number  6 and mass  12.00000

 Molecular mass:   126.06808 amu.
 Principal axes and moments of inertia in atomic units:
                           1         2         3
     Eigenvalues --   732.561061066.045781448.59438
           X            0.99985   0.00172   0.01736
           Y           -0.00212   0.99973   0.02321
           Z           -0.01732  -0.02324   0.99958
 This molecule is an asymmetric top.
 Rotational symmetry number  1.
 Warning -- assumption of classical behavior for rotation
           may cause significant error
 Rotational temperatures (Kelvin)      0.11823     0.08125     0.05979
 Rotational constants (GHZ):           2.46361     1.69293     1.24586
 Zero-point vibrational energy     416318.0 (Joules/Mol)
                                   99.50240 (Kcal/Mol)
 Warning -- explicit consideration of  10 degrees of freedom as
           vibrations may cause significant error
 Vibrational temperatures:    115.47   233.27   252.53   315.33   335.98
          (Kelvin)            439.45   546.99   581.84   676.33   772.74
                              924.53  1040.83  1164.44  1190.67  1200.98
                             1290.19  1327.68  1357.54  1398.05  1417.58
                             1438.81  1489.41  1521.63  1586.60  1618.09
                             1645.91  1668.95  1697.92  1708.16  1727.19
                             1771.23  1804.16  1838.62  1862.05  1885.64
                             2002.69  2077.64  2138.22  2148.06  2160.52
                             2166.16  4317.00  4353.57  4385.35  4400.54
                             4441.63  4499.19  4524.29  4589.35  4644.66
                             5447.28

 Zero-point correction=                           0.158567 (Hartree/Particle)
 Thermal correction to Energy=                    0.166952
 Thermal correction to Enthalpy=                  0.167897
 Thermal correction to Gibbs Free Energy=         0.125677
 Sum of electronic and zero-point Energies=           -422.953082
 Sum of electronic and thermal Energies=              -422.944696
 Sum of electronic and thermal Enthalpies=            -422.943752
 Sum of electronic and thermal Free Energies=         -422.985972

                     E (Thermal)             CV                S
                      KCal/Mol        Cal/Mol-Kelvin    Cal/Mol-Kelvin
 Total                  104.764             32.195             88.859
 Electronic               0.000              0.000              0.000
 Translational            0.889              2.981             40.409
 Rotational               0.889              2.981             28.516
 Vibrational            102.987             26.233             19.934
 Vibration     1          0.600              1.963              3.885
 Vibration     2          0.622              1.889              2.525
 Vibration     3          0.627              1.873              2.376
 Vibration     4          0.647              1.812              1.966
 Vibration     5          0.654              1.790              1.852
 Vibration     6          0.696              1.663              1.387
 Vibration     7          0.750              1.512              1.038
 Vibration     8          0.770              1.461              0.947
 Vibration     9          0.827              1.316              0.737
 Vibration    10          0.892              1.168              0.572

 Normal termination of Gaussian 09 at Tue Jan 28 10:20:30 2020.
