 Gaussian 09, Revision D.01,
 Gaussian 09:  ES64L-G09RevD.01 24-Apr-2013

 -----------------------------
 # b3lyp 6-31G(2df,p) opt Freq
 -----------------------------

 -----
 titel
 -----
 Symbolic Z-matrix:
 Charge =  0 Multiplicity = 1

 SCF Done:  E(RB3LYP) =  -423.172588297     A.U. after   14 cycles
 Optimization completed.
    -- Stationary point found.
 Normal termination of Gaussian 09 at Tue Jan 28 02:51:48 2020.

 ----------------------------------------------------------------------
 #N Geom=AllCheck Guess=TCheck SCRF=Check GenChk RB3LYP/6-31G(2df,p) Fr
 eq
 ----------------------------------------------------------------------

 Structure from the checkpoint file:  "/scratch/puck/g09_c306f436-edf0-46c0-8619-e22860df000e/Gau-193485.chk"
 -----
 titel
 -----
 Charge =  0 Multiplicity = 1

                         Standard orientation:
 ---------------------------------------------------------------------
 Center     Atomic      Atomic             Coordinates (Angstroms)
 Number     Number       Type             X           Y           Z
 ---------------------------------------------------------------------
      1          6           0       -2.653758    0.790202   -0.009071
      2          6           0       -1.543283   -0.120852   -0.518871
      3          6           0       -1.320910   -1.417393    0.341014
      4          6           0        0.067546   -0.904868    0.734406
      5          6           0        0.893791   -0.746352   -0.561976
      6          6           0        2.289081   -0.334517   -0.392033
      7          8           0        2.665043    0.513150    0.402714
      8          6           0       -0.135110    0.321203   -0.110463
      9          8           0        0.191143    1.633630    0.059776
     10          1           0       -2.631476    1.757369   -0.519094
     11          1           0       -3.633136    0.331870   -0.181316
     12          1           0       -2.548420    0.979303    1.064192
     13          1           0       -1.663380   -0.293976   -1.593960
     14          1           0       -2.007527   -1.459381    1.190026
     15          1           0       -1.350437   -2.375534   -0.187452
     16          1           0        0.583500   -1.042196    1.677109
     17          1           0        0.692997   -1.415273   -1.396545
     18          1           0        3.023315   -0.831653   -1.058690
     19          1           0        1.100933    1.650681    0.407777
 ---------------------------------------------------------------------

 SCF Done:  E(RB3LYP) =  -423.172588297     A.U. after    1 cycles

 The electronic state is 1-A.
 Alpha  occ. eigenvalues --  -19.14576 -19.14307 -10.27625 -10.25625 -10.20589
 Alpha  occ. eigenvalues --  -10.20280 -10.19941 -10.19538 -10.17732  -1.05507
 Alpha  occ. eigenvalues --   -1.03262  -0.89969  -0.77476  -0.70796  -0.65561
 Alpha  occ. eigenvalues --   -0.63011  -0.57241  -0.53952  -0.51428  -0.50496
 Alpha  occ. eigenvalues --   -0.47381  -0.44574  -0.42215  -0.41723  -0.40024
 Alpha  occ. eigenvalues --   -0.39104  -0.38517  -0.37120  -0.35397  -0.33669
 Alpha  occ. eigenvalues --   -0.32598  -0.28360  -0.26408  -0.23600
 Alpha virt. eigenvalues --   -0.03300   0.09222   0.10053   0.11284   0.12512
 Alpha virt. eigenvalues --    0.13405   0.13723   0.15122   0.15883   0.17085
 Alpha virt. eigenvalues --    0.17445   0.17764   0.18371   0.21060   0.22900

 Mulliken charges:
               1
     1  C   -0.403165
     2  C   -0.046464
     3  C   -0.258765
     4  C   -0.133360
     5  C   -0.211321
     6  C    0.131969
     7  O   -0.315161
     8  C    0.454391
     9  O   -0.463615
    10  H    0.131861
    11  H    0.112520
    12  H    0.121643
    13  H    0.073682
    14  H    0.112808
    15  H    0.099936
    16  H    0.107332
    17  H    0.086973
    18  H    0.093401
    19  H    0.305337
 Sum of Mulliken charges =   0.00000

 Dipole moment (field-independent basis, Debye):
    X=             -1.1466    Y=             -2.2413    Z=             -0.7489  Tot=              2.6266
 Quadrupole moment (field-independent basis, Debye-Ang):
   XX=            -55.2764   YY=            -54.9202   ZZ=            -51.7091
   XY=             -1.8873   XZ=             -2.6293   YZ=              0.4914

  Exact polarizability:  97.080  -0.256  72.697  -2.407   3.195  64.767
 Approx polarizability: 128.183   3.206 114.610  -0.002   7.196 104.724

                      1                      2                      3
                      A                      A                      A
 Frequencies --    122.2954               145.8837               190.6332
 Red. masses --      4.0934                 3.8378                 3.2143
 Frc consts  --      0.0361                 0.0481                 0.0688
 IR Inten    --      0.8756                 7.6041                 1.7807

                      4                      5                      6
                      A                      A                      A
 Frequencies --    229.8228               242.4781               267.9182
 Red. masses --      1.1986                 2.0105                 3.8297
 Frc consts  --      0.0373                 0.0696                 0.1620
 IR Inten    --      4.2545                 7.0850                 8.2582

                      7                      8                      9
                      A                      A                      A
 Frequencies --    348.0931               391.8084               432.6341
 Red. masses --      4.3538                 2.5904                 2.3563
 Frc consts  --      0.3108                 0.2343                 0.2598
 IR Inten    --      1.7607                 0.3497                 7.7273

                     10                     11                     12
                      A                      A                      A
 Frequencies --    461.2124               597.5283               658.5866
 Red. masses --      3.9403                 1.1131                 5.3341
 Frc consts  --      0.4938                 0.2341                 1.3631
 IR Inten    --      5.1396                91.0559                 3.8893

                     13                     14                     15
                      A                      A                      A
 Frequencies --    701.3865               740.0204               814.8819
 Red. masses --      3.2025                 3.7221                 4.6098
 Frc consts  --      0.9282                 1.2009                 1.8035
 IR Inten    --      8.3195                 8.8263                55.2163

                     16                     17                     18
                      A                      A                      A
 Frequencies --    846.9033               877.9464               940.5726
 Red. masses --      2.8408                 1.6230                 1.7377
 Frc consts  --      1.2005                 0.7371                 0.9058
 IR Inten    --     16.9967                 1.2368                 4.4162

                     19                     20                     21
                      A                      A                      A
 Frequencies --    947.4806               978.5723              1013.0820
 Red. masses --      1.8195                 1.5998                 1.4407
 Frc consts  --      0.9624                 0.9026                 0.8712
 IR Inten    --      2.0245                24.4177                 6.4803

                     22                     23                     24
                      A                      A                      A
 Frequencies --   1023.8497              1070.7759              1079.3227
 Red. masses --      1.7953                 1.6432                 1.8448
 Frc consts  --      1.1088                 1.1101                 1.2662
 IR Inten    --     36.7323                33.8921                20.9812

                     25                     26                     27
                      A                      A                      A
 Frequencies --   1087.6586              1123.1985              1146.8368
 Red. masses --      1.7145                 1.8916                 1.8813
 Frc consts  --      1.1950                 1.4060                 1.4579
 IR Inten    --     16.2849                 1.1441                19.8676

                     28                     29                     30
                      A                      A                      A
 Frequencies --   1198.4390              1221.3396              1253.5073
 Red. masses --      1.5298                 1.6689                 1.4599
 Frc consts  --      1.2945                 1.4667                 1.3515
 IR Inten    --     11.9802                 5.0268                33.1603

                     31                     32                     33
                      A                      A                      A
 Frequencies --   1272.9222              1331.8943              1355.1073
 Red. masses --      1.5261                 1.5117                 1.5455
 Frc consts  --      1.4569                 1.5800                 1.6722
 IR Inten    --      5.0456                92.5570                19.4578

                     34                     35                     36
                      A                      A                      A
 Frequencies --   1397.8812              1410.2933              1425.2373
 Red. masses --      3.8565                 1.2575                 1.3346
 Frc consts  --      4.4400                 1.4736                 1.5973
 IR Inten    --    124.4983                 2.0738                13.0613

                     37                     38                     39
                      A                      A                      A
 Frequencies --   1447.2232              1489.9673              1492.8213
 Red. masses --      1.7001                 1.0642                 1.1394
 Frc consts  --      2.0979                 1.3920                 1.4960
 IR Inten    --     72.4315                 5.7421                 0.9674

                     40                     41                     42
                      A                      A                      A
 Frequencies --   1499.0360              1752.5529              2920.2069
 Red. masses --      1.0723                 8.2181                 1.0844
 Frc consts  --      1.4197                14.8719                 5.4483
 IR Inten    --      4.4094               172.1928               125.5976

                     43                     44                     45
                      A                      A                      A
 Frequencies --   3035.3907              3039.4066              3050.1476
 Red. masses --      1.0354                 1.0813                 1.0636
 Frc consts  --      5.6207                 5.8853                 5.8301
 IR Inten    --     22.6564                24.5193                46.7480

                     46                     47                     48
                      A                      A                      A
 Frequencies --   3103.6261              3107.3346              3115.2908
 Red. masses --      1.1034                 1.1040                 1.1013
 Frc consts  --      6.2621                 6.2803                 6.2971
 IR Inten    --     16.3258                28.6382                21.5378

                     49                     50                     51
                      A                      A                      A
 Frequencies --   3124.1205              3188.1463              3622.3776
 Red. masses --      1.0897                 1.0931                 1.0647
 Frc consts  --      6.2665                 6.5459                 8.2314
 IR Inten    --     19.9801                 7.2966               106.1502

 - Thermochemistry -
 -------------------
 Temperature   298.150 Kelvin.  Pressure   1.00000 Atm.
 Atom     1 has atomic number  6 and mass  12.00000

 Molecular mass:   126.06808 amu.
 Principal axes and moments of inertia in atomic units:
                           1         2         3
     Eigenvalues --   526.343021422.406521726.93150
           X            0.99985  -0.01488  -0.00860
           Y            0.01498   0.99981   0.01251
           Z            0.00842  -0.01264   0.99988
 This molecule is an asymmetric top.
 Rotational symmetry number  1.
 Warning -- assumption of classical behavior for rotation
           may cause significant error
 Rotational temperatures (Kelvin)      0.16456     0.06089     0.05015
 Rotational constants (GHZ):           3.42883     1.26879     1.04506
 Zero-point vibrational energy     414719.3 (Joules/Mol)
                                   99.12029 (Kcal/Mol)
 Warning -- explicit consideration of  11 degrees of freedom as
           vibrations may cause significant error
 Vibrational temperatures:    175.96   209.89   274.28   330.66   348.87
          (Kelvin)            385.47   500.83   563.72   622.46   663.58
                              859.71   947.56  1009.14  1064.72  1172.43
                             1218.50  1263.17  1353.27  1363.21  1407.95
                             1457.60  1473.09  1540.61  1552.90  1564.90
                             1616.03  1650.04  1724.28  1757.23  1803.52
                             1831.45  1916.30  1949.69  2011.24  2029.09
                             2050.60  2082.23  2143.73  2147.83  2156.78
                             2521.53  4201.52  4367.24  4373.02  4388.48
                             4465.42  4470.76  4482.20  4494.91  4587.03
                             5211.79

 Zero-point correction=                           0.157958 (Hartree/Particle)
 Thermal correction to Energy=                    0.166545
 Thermal correction to Enthalpy=                  0.167489
 Thermal correction to Gibbs Free Energy=         0.125135
 Sum of electronic and zero-point Energies=           -423.014630
 Sum of electronic and thermal Energies=              -423.006044
 Sum of electronic and thermal Enthalpies=            -423.005100
 Sum of electronic and thermal Free Energies=         -423.047453

                     E (Thermal)             CV                S
                      KCal/Mol        Cal/Mol-Kelvin    Cal/Mol-Kelvin
 Total                  104.508             33.064             89.140
 Electronic               0.000              0.000              0.000
 Translational            0.889              2.981             40.409
 Rotational               0.889              2.981             28.649
 Vibrational            102.731             27.102             20.083
 Vibration     1          0.610              1.931              3.064
 Vibration     2          0.617              1.907              2.725
 Vibration     3          0.634              1.853              2.222
 Vibration     4          0.652              1.795              1.880
 Vibration     5          0.659              1.775              1.785
 Vibration     6          0.673              1.732              1.610
 Vibration     7          0.726              1.579              1.175
 Vibration     8          0.759              1.488              0.993
 Vibration     9          0.794              1.399              0.850
 Vibration    10          0.819              1.336              0.763
 Vibration    11          0.955              1.037              0.454

 Optimization completed.
    -- Stationary point found.
 Normal termination of Gaussian 09 at Tue Jan 28 03:37:34 2020.
