 Gaussian 09, Revision D.01,
 Gaussian 09:  ES64L-G09RevD.01 24-Apr-2013

 -----------------------------
 # b3lyp 6-31G(2df,p) opt Freq
 -----------------------------

 -----
 titel
 -----
 Symbolic Z-matrix:
 Charge =  0 Multiplicity = 1

 SCF Done:  E(RB3LYP) =  -423.181231197     A.U. after   13 cycles
 Optimization completed.
    -- Stationary point found.
 Normal termination of Gaussian 09 at Mon Jan 27 11:19:04 2020.

 ----------------------------------------------------------------------
 #N Geom=AllCheck Guess=TCheck SCRF=Check GenChk RB3LYP/6-31G(2df,p) Fr
 eq
 ----------------------------------------------------------------------

 Structure from the checkpoint file:  "/scratch/puck/g09_a3278279-bd60-4bbd-894a-ca9281acc7db/Gau-162683.chk"
 -----
 titel
 -----
 Charge =  0 Multiplicity = 1

                         Standard orientation:
 ---------------------------------------------------------------------
 Center     Atomic      Atomic             Coordinates (Angstroms)
 Number     Number       Type             X           Y           Z
 ---------------------------------------------------------------------
      1          6           0        2.258499    0.000000   -0.236343
      2          6           0        1.017094   -0.761584   -0.623968
      3          6           0        1.017094    0.761583   -0.623969
      4          6           0        0.025908    1.164402    0.464826
      5          6           0        0.079816    0.000001    1.469598
      6          6           0        0.025909   -1.164401    0.464828
      7          8           0       -1.309839   -1.188692   -0.068476
      8          6           0       -1.653036   -0.000001   -0.751777
      9          8           0       -1.309840    1.188692   -0.068476
     10          1           0        2.617380    0.000000    0.786127
     11          1           0        3.055825    0.000000   -0.972107
     12          1           0        1.013932   -1.331163   -1.546166
     13          1           0        1.013931    1.331161   -1.546168
     14          1           0        0.190767    2.155210    0.893325
     15          1           0        0.983553    0.000001    2.082187
     16          1           0       -0.792215    0.000001    2.123799
     17          1           0        0.190767   -2.155209    0.893328
     18          1           0       -1.202202    0.000000   -1.755195
     19          1           0       -2.742012   -0.000001   -0.842688
 ---------------------------------------------------------------------

 SCF Done:  E(RB3LYP) =  -423.181231197     A.U. after    1 cycles

 The electronic state is 1-A.
 Alpha  occ. eigenvalues --  -19.13751 -19.13751 -10.26539 -10.23677 -10.23676
 Alpha  occ. eigenvalues --  -10.19632 -10.19428 -10.19406 -10.17844  -1.06414
 Alpha  occ. eigenvalues --   -0.99486  -0.88528  -0.77235  -0.69299  -0.66851
 Alpha  occ. eigenvalues --   -0.62920  -0.56953  -0.54769  -0.52622  -0.49756
 Alpha  occ. eigenvalues --   -0.46931  -0.46037  -0.45450  -0.40549  -0.40513
 Alpha  occ. eigenvalues --   -0.39375  -0.38195  -0.35482  -0.33453  -0.32927
 Alpha  occ. eigenvalues --   -0.28738  -0.28485  -0.25591  -0.24990
 Alpha virt. eigenvalues --    0.08998   0.10151   0.10434   0.12356   0.13875
 Alpha virt. eigenvalues --    0.14240   0.14647   0.16310   0.16524   0.16959
 Alpha virt. eigenvalues --    0.17890   0.19046   0.19405   0.20843   0.23488

 Mulliken charges:
               1
     1  C   -0.330919
     2  C   -0.045180
     3  C   -0.045180
     4  C    0.104587
     5  C   -0.256671
     6  C    0.104587
     7  O   -0.277408
     8  C    0.028770
     9  O   -0.277408
    10  H    0.115916
    11  H    0.117072
    12  H    0.095032
    13  H    0.095032
    14  H    0.077932
    15  H    0.100555
    16  H    0.113880
    17  H    0.077932
    18  H    0.086255
    19  H    0.115216
 Sum of Mulliken charges =   0.00000

 Dipole moment (field-independent basis, Debye):
    X=              1.8837    Y=              0.0000    Z=             -0.2043  Tot=              1.8947
 Quadrupole moment (field-independent basis, Debye-Ang):
   XX=            -53.5707   YY=            -55.7969   ZZ=            -49.9769
   XY=              0.0000   XZ=              0.7647   YZ=              0.0000

  Exact polarizability:  81.038   0.000  67.340   1.442   0.000  69.464
 Approx polarizability: 114.521   0.000 106.487   3.563   0.000 101.864

                      1                      2                      3
                      A                      A                      A
 Frequencies --    249.9275               287.8347               355.7990
 Red. masses --      3.6612                 2.3719                 4.6749
 Frc consts  --      0.1347                 0.1158                 0.3487
 IR Inten    --      0.3143                 1.5009                 0.9349

                      4                      5                      6
                      A                      A                      A
 Frequencies --    381.4529               448.9156               467.2730
 Red. masses --      2.7983                 5.7167                 2.2073
 Frc consts  --      0.2399                 0.6788                 0.2840
 IR Inten    --     11.5910                 3.9627                 0.1591

                      7                      8                      9
                      A                      A                      A
 Frequencies --    513.7439               627.5564               716.2388
 Red. masses --      3.3734                 4.3966                 2.5937
 Frc consts  --      0.5246                 1.0202                 0.7839
 IR Inten    --      5.3944                 1.8729                 8.6921

                     10                     11                     12
                      A                      A                      A
 Frequencies --    786.6668               843.1707               848.8991
 Red. masses --      3.4866                 1.9728                 2.7816
 Frc consts  --      1.2713                 0.8263                 1.1810
 IR Inten    --      0.7340                13.3309                 3.1097

                     13                     14                     15
                      A                      A                      A
 Frequencies --    853.9916               880.3167               885.3702
 Red. masses --      2.5437                 2.6550                 1.8327
 Frc consts  --      1.0930                 1.2123                 0.8464
 IR Inten    --     14.0122                 6.6602                 3.2756

                     16                     17                     18
                      A                      A                      A
 Frequencies --    926.9487               951.7605               995.7578
 Red. masses --      2.7340                 1.8674                 3.0191
 Frc consts  --      1.3841                 0.9967                 1.7638
 IR Inten    --      4.7233                 9.2801                 2.5861

                     19                     20                     21
                      A                      A                      A
 Frequencies --   1009.4528              1027.7404              1051.6429
 Red. masses --      3.4636                 2.6066                 2.2140
 Frc consts  --      2.0795                 1.6222                 1.4427
 IR Inten    --     77.9163                 2.0667                29.9341

                     22                     23                     24
                      A                      A                      A
 Frequencies --   1066.9710              1084.4520              1089.6047
 Red. masses --      1.2388                 1.4822                 1.4424
 Frc consts  --      0.8309                 1.0270                 1.0090
 IR Inten    --      7.1002                 0.5755                24.7120

                     25                     26                     27
                      A                      A                      A
 Frequencies --   1119.7595              1136.9470              1164.4325
 Red. masses --      1.3169                 3.5920                 1.1880
 Frc consts  --      0.9729                 2.7357                 0.9491
 IR Inten    --      1.4790               119.5691                 0.4279

                     28                     29                     30
                      A                      A                      A
 Frequencies --   1180.9128              1195.6864              1248.8963
 Red. masses --      2.0410                 1.8039                 2.0124
 Frc consts  --      1.6770                 1.5195                 1.8494
 IR Inten    --     66.7900                10.8439                 5.2010

                     31                     32                     33
                      A                      A                      A
 Frequencies --   1287.4297              1299.5886              1316.5142
 Red. masses --      1.1032                 1.3519                 2.1619
 Frc consts  --      1.0774                 1.3453                 2.2077
 IR Inten    --      0.4770                 2.1164                 6.5245

                     34                     35                     36
                      A                      A                      A
 Frequencies --   1339.1081              1351.0164              1372.1212
 Red. masses --      1.3962                 1.3278                 1.4568
 Frc consts  --      1.4751                 1.4279                 1.6160
 IR Inten    --      0.5586                 6.4382                19.8091

                     37                     38                     39
                      A                      A                      A
 Frequencies --   1387.7481              1443.7424              1475.5344
 Red. masses --      1.7461                 1.2042                 1.1947
 Frc consts  --      1.9812                 1.4788                 1.5325
 IR Inten    --     10.4438                 9.5620                 4.5382

                     40                     41                     42
                      A                      A                      A
 Frequencies --   1509.9348              1521.4597              2986.1675
 Red. masses --      1.1393                 1.0889                 1.0693
 Frc consts  --      1.5304                 1.4852                 5.6177
 IR Inten    --      4.4089                 0.4343                77.9286

                     43                     44                     45
                      A                      A                      A
 Frequencies --   3079.1224              3090.0046              3094.8283
 Red. masses --      1.0667                 1.0867                 1.0853
 Frc consts  --      5.9588                 6.1135                 6.1246
 IR Inten    --      3.3848                66.0176                42.4106

                     46                     47                     48
                      A                      A                      A
 Frequencies --   3099.3031              3136.3767              3141.3444
 Red. masses --      1.0948                 1.0709                 1.0872
 Frc consts  --      6.1961                 6.2064                 6.3209
 IR Inten    --     28.6256                 3.9707                30.3191

                     49                     50                     51
                      A                      A                      A
 Frequencies --   3174.0965              3182.3964              3217.0155
 Red. masses --      1.0884                 1.0948                 1.1139
 Frc consts  --      6.4609                 6.5328                 6.7920
 IR Inten    --     11.7599                 6.2167                12.0112

 - Thermochemistry -
 -------------------
 Temperature   298.150 Kelvin.  Pressure   1.00000 Atm.
 Atom     1 has atomic number  6 and mass  12.00000

 Molecular mass:   126.06808 amu.
 Principal axes and moments of inertia in atomic units:
                           1         2         3
     Eigenvalues --   619.12879 969.716081097.62351
           X            0.99997   0.00000   0.00802
           Y            0.00000   1.00000   0.00000
           Z           -0.00802   0.00000   0.99997
 This molecule is an asymmetric top.
 Rotational symmetry number  1.
 Warning -- assumption of classical behavior for rotation
           may cause significant error
 Rotational temperatures (Kelvin)      0.13990     0.08932     0.07891
 Rotational constants (GHZ):           2.91497     1.86110     1.64423
 Zero-point vibrational energy     430075.3 (Joules/Mol)
                                  102.79046 (Kcal/Mol)
 Warning -- explicit consideration of   7 degrees of freedom as
           vibrations may cause significant error
 Vibrational temperatures:    359.59   414.13   511.91   548.83   645.89
          (Kelvin)            672.30   739.16   902.91  1030.51  1131.84
                             1213.13  1221.37  1228.70  1266.58  1273.85
                             1333.67  1369.37  1432.67  1452.38  1478.69
                             1513.08  1535.13  1560.28  1567.70  1611.08
                             1635.81  1675.36  1699.07  1720.32  1796.88
                             1852.32  1869.82  1894.17  1926.68  1943.81
                             1974.17  1996.66  2077.22  2122.96  2172.46
                             2189.04  4296.42  4430.16  4445.82  4452.76
                             4459.20  4512.54  4519.69  4566.81  4578.75
                             4628.56

 Zero-point correction=                           0.163807 (Hartree/Particle)
 Thermal correction to Energy=                    0.170131
 Thermal correction to Enthalpy=                  0.171075
 Thermal correction to Gibbs Free Energy=         0.133562
 Sum of electronic and zero-point Energies=           -423.017424
 Sum of electronic and thermal Energies=              -423.011101
 Sum of electronic and thermal Enthalpies=            -423.010156
 Sum of electronic and thermal Free Energies=         -423.047670

                     E (Thermal)             CV                S
                      KCal/Mol        Cal/Mol-Kelvin    Cal/Mol-Kelvin
 Total                  106.759             27.407             78.953
 Electronic               0.000              0.000              0.000
 Translational            0.889              2.981             40.409
 Rotational               0.889              2.981             27.979
 Vibrational            104.981             21.446             10.566
 Vibration     1          0.663              1.763              1.731
 Vibration     2          0.685              1.696              1.487
 Vibration     3          0.731              1.563              1.140
 Vibration     4          0.751              1.510              1.033
 Vibration     5          0.808              1.363              0.799
 Vibration     6          0.825              1.323              0.745
 Vibration     7          0.869              1.220              0.625

 Optimization completed.
    -- Stationary point found.
 Normal termination of Gaussian 09 at Mon Jan 27 12:11:47 2020.
