 Gaussian 09, Revision D.01,
 Gaussian 09:  ES64L-G09RevD.01 24-Apr-2013

 -----------------------------
 # b3lyp 6-31G(2df,p) opt Freq
 -----------------------------

 -----
 titel
 -----
 Symbolic Z-matrix:
 Charge =  0 Multiplicity = 1

 SCF Done:  E(RB3LYP) =  -423.165430863     A.U. after   14 cycles
 Optimization completed.
    -- Stationary point found.
 Normal termination of Gaussian 09 at Tue Jan 28 00:33:17 2020.

 ----------------------------------------------------------------------
 #N Geom=AllCheck Guess=TCheck SCRF=Check GenChk RB3LYP/6-31G(2df,p) Fr
 eq
 ----------------------------------------------------------------------

 Structure from the checkpoint file:  "/scratch/puck/g09_a527bed9-4895-4b57-8862-606345f4bf5e/Gau-80666.chk"
 -----
 titel
 -----
 Charge =  0 Multiplicity = 1

                         Standard orientation:
 ---------------------------------------------------------------------
 Center     Atomic      Atomic             Coordinates (Angstroms)
 Number     Number       Type             X           Y           Z
 ---------------------------------------------------------------------
      1          8           0        0.122708    2.058096    0.109284
      2          6           0        0.595009    0.857134   -0.477399
      3          6           0        1.981110    0.522770    0.008786
      4          6           0        2.123599   -0.784349    0.217347
      5          6           0        0.845443   -1.543151   -0.060664
      6          6           0       -0.213270   -0.427984   -0.124049
      7          6           0       -1.534316   -0.581379   -0.901337
      8          8           0       -2.277753   -0.003207    0.195866
      9          6           0       -1.155725   -0.223093    1.085172
     10          1           0       -0.797395    2.173075   -0.156408
     11          1           0        0.608144    0.973313   -1.577749
     12          1           0        2.748274    1.281365    0.107204
     13          1           0        3.043204   -1.277236    0.512456
     14          1           0        0.911747   -2.083671   -1.016633
     15          1           0        0.612534   -2.297661    0.699879
     16          1           0       -1.646124   -0.005888   -1.828922
     17          1           0       -1.831586   -1.623668   -1.088099
     18          1           0       -0.966328    0.634530    1.733526
     19          1           0       -1.293213   -1.132963    1.686402
 ---------------------------------------------------------------------

 SCF Done:  E(RB3LYP) =  -423.165430863     A.U. after    1 cycles

 The electronic state is 1-A.
 Alpha  occ. eigenvalues --  -19.13762 -19.13600 -10.23633 -10.23143 -10.22523
 Alpha  occ. eigenvalues --  -10.19898 -10.19281 -10.18856 -10.18173  -1.04114
 Alpha  occ. eigenvalues --   -1.01803  -0.84479  -0.73819  -0.70228  -0.68959
 Alpha  occ. eigenvalues --   -0.63117  -0.55859  -0.53683  -0.51739  -0.49757
 Alpha  occ. eigenvalues --   -0.48007  -0.44972  -0.43048  -0.40995  -0.40727
 Alpha  occ. eigenvalues --   -0.39802  -0.38026  -0.36650  -0.32821  -0.31117
 Alpha  occ. eigenvalues --   -0.30470  -0.27693  -0.25091  -0.24702
 Alpha virt. eigenvalues --    0.01140   0.06758   0.08344   0.11256   0.12635
 Alpha virt. eigenvalues --    0.13042   0.13818   0.15009   0.15350   0.16080
 Alpha virt. eigenvalues --    0.17030   0.19269   0.19621   0.20637   0.22934

 Mulliken charges:
               1
     1  O   -0.439482
     2  C    0.054682
     3  C   -0.077563
     4  C   -0.068297
     5  C   -0.359490
     6  C    0.253376
     7  C   -0.148924
     8  O   -0.288133
     9  C   -0.118732
    10  H    0.291495
    11  H    0.070844
    12  H    0.104977
    13  H    0.098645
    14  H    0.111132
    15  H    0.107330
    16  H    0.098609
    17  H    0.095053
    18  H    0.124128
    19  H    0.090350
 Sum of Mulliken charges =   0.00000

 Dipole moment (field-independent basis, Debye):
    X=              0.9694    Y=             -1.4793    Z=             -0.9412  Tot=              2.0035
 Quadrupole moment (field-independent basis, Debye-Ang):
   XX=            -56.5816   YY=            -53.2835   ZZ=            -51.7084
   XY=             -1.7281   XZ=              1.3631   YZ=             -1.5357

  Exact polarizability:  79.210  -0.843  81.224   3.375  -1.813  65.039
 Approx polarizability: 106.602  -3.368 128.784   4.575  -3.272  99.507

                      1                      2                      3
                      A                      A                      A
 Frequencies --     80.2715                99.1691               255.9988
 Red. masses --      3.6194                 3.9488                 2.3006
 Frc consts  --      0.0137                 0.0229                 0.0888
 IR Inten    --      4.8947                13.1202                 2.6534

                      4                      5                      6
                      A                      A                      A
 Frequencies --    278.8475               323.5947               368.7192
 Red. masses --      3.2234                 3.1955                 1.1839
 Frc consts  --      0.1477                 0.1971                 0.0948
 IR Inten    --      0.4159                 7.0753               102.0662

                      7                      8                      9
                      A                      A                      A
 Frequencies --    393.6177               442.8911               467.2383
 Red. masses --      2.1597                 2.9953                 3.0329
 Frc consts  --      0.1971                 0.3462                 0.3901
 IR Inten    --      0.8216                 4.9988                 8.1386

                     10                     11                     12
                      A                      A                      A
 Frequencies --    573.7781               685.5090               756.2651
 Red. masses --      3.5656                 2.0012                 3.6643
 Frc consts  --      0.6916                 0.5541                 1.2348
 IR Inten    --     10.7566                 9.2702                 1.1697

                     13                     14                     15
                      A                      A                      A
 Frequencies --    780.4498               850.3332               888.3968
 Red. masses --      2.2948                 3.0880                 1.9865
 Frc consts  --      0.8235                 1.3155                 0.9238
 IR Inten    --     14.4864                11.1132                 7.3005

                     16                     17                     18
                      A                      A                      A
 Frequencies --    919.6701               962.2976               977.8735
 Red. masses --      2.0550                 2.2228                 1.4643
 Frc consts  --      1.0241                 1.2128                 0.8250
 IR Inten    --      8.4546                 3.0403                 4.4816

                     19                     20                     21
                      A                      A                      A
 Frequencies --    982.5791               996.8885              1012.3631
 Red. masses --      2.1100                 2.2192                 4.4633
 Frc consts  --      1.2003                 1.2994                 2.6951
 IR Inten    --      5.7381                10.4090                47.2867

                     22                     23                     24
                      A                      A                      A
 Frequencies --   1019.1705              1068.6656              1102.9874
 Red. masses --      2.4720                 2.0524                 2.0247
 Frc consts  --      1.5128                 1.3810                 1.4513
 IR Inten    --     12.5484                24.3134                40.5575

                     25                     26                     27
                      A                      A                      A
 Frequencies --   1146.6978              1153.1169              1170.9772
 Red. masses --      1.5742                 1.1112                 1.8653
 Frc consts  --      1.2195                 0.8706                 1.5069
 IR Inten    --     22.5897                 0.7427                24.5251

                     28                     29                     30
                      A                      A                      A
 Frequencies --   1188.6148              1213.8072              1229.8565
 Red. masses --      1.4005                 2.1733                 1.3262
 Frc consts  --      1.1658                 1.8865                 1.1818
 IR Inten    --      2.6152                 6.3913                37.7973

                     31                     32                     33
                      A                      A                      A
 Frequencies --   1259.6282              1303.8423              1316.1358
 Red. masses --      1.5652                 1.2763                 1.5207
 Frc consts  --      1.4632                 1.2783                 1.5520
 IR Inten    --     23.9724                 0.8088                 4.8497

                     34                     35                     36
                      A                      A                      A
 Frequencies --   1346.4405              1357.8279              1377.7853
 Red. masses --      1.4104                 1.6899                 1.5281
 Frc consts  --      1.5065                 1.8357                 1.7091
 IR Inten    --     16.3232                11.5958                 5.5528

                     37                     38                     39
                      A                      A                      A
 Frequencies --   1435.0266              1484.2025              1506.8436
 Red. masses --      1.6845                 1.0920                 1.0800
 Frc consts  --      2.0438                 1.4173                 1.4448
 IR Inten    --      7.6955                 2.2216                 1.4001

                     40                     41                     42
                      A                      A                      A
 Frequencies --   1532.9501              1687.6414              2912.7804
 Red. masses --      1.1135                 6.4054                 1.0806
 Frc consts  --      1.5417                10.7487                 5.4016
 IR Inten    --      1.6850                 2.7907                60.7493

                     43                     44                     45
                      A                      A                      A
 Frequencies --   2989.3823              2999.7770              3005.2447
 Red. masses --      1.0592                 1.0671                 1.0690
 Frc consts  --      5.5768                 5.6578                 5.6882
 IR Inten    --     62.5435                39.4687                51.8118

                     46                     47                     48
                      A                      A                      A
 Frequencies --   3045.9685              3048.6100              3112.7919
 Red. masses --      1.1057                 1.0926                 1.0972
 Frc consts  --      6.0441                 5.9831                 6.2636
 IR Inten    --     43.5681                26.2049                16.6883

                     49                     50                     51
                      A                      A                      A
 Frequencies --   3189.5465              3217.2341              3792.7685
 Red. masses --      1.0859                 1.1038                 1.0661
 Frc consts  --      6.5085                 6.7316                 9.0354
 IR Inten    --      7.4171                16.5176                23.6374

 - Thermochemistry -
 -------------------
 Temperature   298.150 Kelvin.  Pressure   1.00000 Atm.
 Atom     1 has atomic number  8 and mass  15.99491

 Molecular mass:   126.06808 amu.
 Principal axes and moments of inertia in atomic units:
                           1         2         3
     Eigenvalues --   673.601371117.746381484.27824
           X            0.99994  -0.00796   0.00728
           Y            0.00803   0.99993  -0.00867
           Z           -0.00721   0.00873   0.99994
 This molecule is an asymmetric top.
 Rotational symmetry number  1.
 Warning -- assumption of classical behavior for rotation
           may cause significant error
 Rotational temperatures (Kelvin)      0.12858     0.07749     0.05835
 Rotational constants (GHZ):           2.67924     1.61462     1.21590
 Zero-point vibrational energy     420565.6 (Joules/Mol)
                                  100.51758 (Kcal/Mol)
 Warning -- explicit consideration of  10 degrees of freedom as
           vibrations may cause significant error
 Vibrational temperatures:    115.49   142.68   368.32   401.20   465.58
          (Kelvin)            530.50   566.33   637.22   672.25   825.54
                              986.29  1088.10  1122.89  1223.44  1278.20
                             1323.20  1384.53  1406.94  1413.71  1434.30
                             1456.56  1466.36  1537.57  1586.95  1649.84
                             1659.08  1684.77  1710.15  1746.40  1769.49
                             1812.32  1875.94  1893.62  1937.23  1953.61
                             1982.32  2064.68  2135.43  2168.01  2205.57
                             2428.14  4190.84  4301.05  4316.00  4323.87
                             4382.46  4386.26  4478.61  4589.04  4628.88
                             5456.94

 Zero-point correction=                           0.160185 (Hartree/Particle)
 Thermal correction to Energy=                    0.168135
 Thermal correction to Enthalpy=                  0.169079
 Thermal correction to Gibbs Free Energy=         0.127579
 Sum of electronic and zero-point Energies=           -423.005246
 Sum of electronic and thermal Energies=              -422.997296
 Sum of electronic and thermal Enthalpies=            -422.996352
 Sum of electronic and thermal Free Energies=         -423.037852

                     E (Thermal)             CV                S
                      KCal/Mol        Cal/Mol-Kelvin    Cal/Mol-Kelvin
 Total                  105.506             30.979             87.344
 Electronic               0.000              0.000              0.000
 Translational            0.889              2.981             40.409
 Rotational               0.889              2.981             28.504
 Vibrational            103.729             25.017             18.432
 Vibration     1          0.600              1.963              3.884
 Vibration     2          0.604              1.950              3.471
 Vibration     3          0.666              1.753              1.689
 Vibration     4          0.679              1.713              1.541
 Vibration     5          0.708              1.628              1.292
 Vibration     6          0.741              1.537              1.085
 Vibration     7          0.761              1.484              0.986
 Vibration     8          0.803              1.377              0.818
 Vibration     9          0.825              1.323              0.745
 Vibration    10          0.930              1.088              0.497

 Optimization completed.
    -- Stationary point found.
 Normal termination of Gaussian 09 at Tue Jan 28 01:17:37 2020.
