 Gaussian 09, Revision D.01,
 Gaussian 09:  ES64L-G09RevD.01 24-Apr-2013

 -----------------------------
 # b3lyp 6-31G(2df,p) opt Freq
 -----------------------------

 -----
 titel
 -----
 Symbolic Z-matrix:
 Charge =  0 Multiplicity = 1

 SCF Done:  E(RB3LYP) =  -423.175313730     A.U. after   14 cycles
 Optimization completed.
    -- Stationary point found.
 Normal termination of Gaussian 09 at Tue Jan 28 00:04:12 2020.

 ----------------------------------------------------------------------
 #N Geom=AllCheck Guess=TCheck SCRF=Check GenChk RB3LYP/6-31G(2df,p) Fr
 eq
 ----------------------------------------------------------------------

 Structure from the checkpoint file:  "/scratch/puck/g09_5dfbc665-9832-4e45-bcc8-d18ec7885839/Gau-188100.chk"
 -----
 titel
 -----
 Charge =  0 Multiplicity = 1

                         Standard orientation:
 ---------------------------------------------------------------------
 Center     Atomic      Atomic             Coordinates (Angstroms)
 Number     Number       Type             X           Y           Z
 ---------------------------------------------------------------------
      1          6           0       -2.654889   -0.738578   -0.118500
      2          6           0       -1.209312   -0.373445    0.023681
      3          6           0       -0.239756   -1.177033    0.471978
      4          6           0        1.186779   -0.662312    0.529605
      5          8           0        2.025173   -1.373885   -0.374351
      6          6           0        1.188873    0.830865    0.168461
      7          6           0        0.054103    1.626644    0.842625
      8          6           0       -0.749807    1.030104   -0.339473
      9          8           0        0.491936    0.939823   -1.111887
     10          1           0       -3.294627   -0.075886    0.478987
     11          1           0       -2.987404   -0.634852   -1.159325
     12          1           0       -2.842044   -1.767217    0.200599
     13          1           0       -0.417895   -2.213742    0.743801
     14          1           0        1.625384   -0.817679    1.522653
     15          1           0        1.673557   -1.172694   -1.251936
     16          1           0        2.201403    1.239458    0.128234
     17          1           0       -0.251283    1.361306    1.855919
     18          1           0        0.206642    2.703539    0.747621
     19          1           0       -1.506552    1.632790   -0.846917
 ---------------------------------------------------------------------

 SCF Done:  E(RB3LYP) =  -423.175313730     A.U. after    1 cycles

 The electronic state is 1-A.
 Alpha  occ. eigenvalues --  -19.13655 -19.12855 -10.24198 -10.23485 -10.23125
 Alpha  occ. eigenvalues --  -10.19348 -10.19280 -10.18881 -10.17727  -1.04780
 Alpha  occ. eigenvalues --   -1.00726  -0.81547  -0.75367  -0.72703  -0.69035
 Alpha  occ. eigenvalues --   -0.61934  -0.58878  -0.52309  -0.50691  -0.48878
 Alpha  occ. eigenvalues --   -0.45514  -0.44133  -0.42984  -0.41488  -0.41389
 Alpha  occ. eigenvalues --   -0.39938  -0.38174  -0.36608  -0.34941  -0.31733
 Alpha  occ. eigenvalues --   -0.31067  -0.28175  -0.24295  -0.23994
 Alpha virt. eigenvalues --    0.00344   0.08627   0.09539   0.10974   0.12782
 Alpha virt. eigenvalues --    0.13431   0.13818   0.14864   0.16112   0.16374
 Alpha virt. eigenvalues --    0.17289   0.18071   0.19215   0.21693   0.22208

 Mulliken charges:
               1
     1  C   -0.504006
     2  C    0.360543
     3  C   -0.235406
     4  C    0.123153
     5  O   -0.442618
     6  C    0.049115
     7  C   -0.257495
     8  C   -0.010415
     9  O   -0.307776
    10  H    0.127479
    11  H    0.132144
    12  H    0.127658
    13  H    0.092533
    14  H    0.086418
    15  H    0.282473
    16  H    0.084038
    17  H    0.105387
    18  H    0.110935
    19  H    0.075838
 Sum of Mulliken charges =   0.00000

 Dipole moment (field-independent basis, Debye):
    X=             -2.0207    Y=              0.9268    Z=              1.1281  Tot=              2.4930
 Quadrupole moment (field-independent basis, Debye-Ang):
   XX=            -53.7930   YY=            -53.4952   ZZ=            -52.9648
   XY=              2.6674   XZ=              1.5739   YZ=              1.5581

  Exact polarizability:  89.516  -3.029  77.091   4.274  -1.762  62.477
 Approx polarizability: 127.618 -13.720 112.328   7.528  -6.852 101.905

                      1                      2                      3
                      A                      A                      A
 Frequencies --    138.7834               150.8549               193.2461
 Red. masses --      3.2677                 3.2425                 1.1096
 Frc consts  --      0.0371                 0.0435                 0.0244
 IR Inten    --      1.3313                 3.7427                 0.7520

                      4                      5                      6
                      A                      A                      A
 Frequencies --    276.8555               314.4976               398.0253
 Red. masses --      3.5987                 2.5501                 2.5847
 Frc consts  --      0.1625                 0.1486                 0.2413
 IR Inten    --      0.5942                 1.3244                 1.8861

                      7                      8                      9
                      A                      A                      A
 Frequencies --    459.3608               464.6416               490.4173
 Red. masses --      2.8250                 1.6465                 2.7568
 Frc consts  --      0.3512                 0.2094                 0.3906
 IR Inten    --      9.1657                30.6007                54.8775

                     10                     11                     12
                      A                      A                      A
 Frequencies --    516.6546               588.5453               734.6683
 Red. masses --      4.3418                 3.3469                 3.3026
 Frc consts  --      0.6828                 0.6831                 1.0503
 IR Inten    --      1.6459                 4.7502                 3.2518

                     13                     14                     15
                      A                      A                      A
 Frequencies --    770.4441               830.3257               861.2287
 Red. masses --      2.7040                 2.3801                 1.8631
 Frc consts  --      0.9457                 0.9668                 0.8142
 IR Inten    --      1.7764                 3.0894                 7.5885

                     16                     17                     18
                      A                      A                      A
 Frequencies --    880.2200               931.2603               939.9809
 Red. masses --      2.4091                 3.0499                 3.1530
 Frc consts  --      1.0997                 1.5584                 1.6414
 IR Inten    --     46.1202                19.2847                36.0365

                     19                     20                     21
                      A                      A                      A
 Frequencies --    952.2622               972.1105              1029.3493
 Red. masses --      2.5154                 2.3452                 1.5100
 Frc consts  --      1.3439                 1.3057                 0.9426
 IR Inten    --     10.4008                19.8304                 7.2523

                     22                     23                     24
                      A                      A                      A
 Frequencies --   1049.7451              1061.6476              1078.8677
 Red. masses --      4.4606                 1.5646                 2.2384
 Frc consts  --      2.8961                 1.0390                 1.5350
 IR Inten    --     89.8613                 3.6542                10.8494

                     25                     26                     27
                      A                      A                      A
 Frequencies --   1109.5438              1117.6375              1183.5732
 Red. masses --      1.8147                 1.2889                 2.3456
 Frc consts  --      1.3163                 0.9486                 1.9359
 IR Inten    --      6.0331                 3.1970                 7.7031

                     28                     29                     30
                      A                      A                      A
 Frequencies --   1205.2426              1248.3765              1262.9474
 Red. masses --      1.4704                 1.3873                 1.2873
 Frc consts  --      1.2584                 1.2739                 1.2097
 IR Inten    --      5.0251                11.1207                 6.6416

                     31                     32                     33
                      A                      A                      A
 Frequencies --   1285.1874              1306.4950              1333.3043
 Red. masses --      1.4537                 1.5402                 1.6621
 Frc consts  --      1.4147                 1.5490                 1.7408
 IR Inten    --      0.7739                 5.0181                 5.8506

                     34                     35                     36
                      A                      A                      A
 Frequencies --   1357.5817              1362.7220              1414.3377
 Red. masses --      1.5258                 1.8176                 1.2780
 Frc consts  --      1.6568                 1.9886                 1.5062
 IR Inten    --      1.3244                 2.5107                 0.8852

                     37                     38                     39
                      A                      A                      A
 Frequencies --   1428.4412              1478.2840              1486.7111
 Red. masses --      1.2495                 1.0450                 1.1271
 Frc consts  --      1.5022                 1.3455                 1.4678
 IR Inten    --     82.8269                 6.5674                 2.9632

                     40                     41                     42
                      A                      A                      A
 Frequencies --   1487.5674              1717.7443              3014.8529
 Red. masses --      1.0604                 6.9815                 1.0384
 Frc consts  --      1.3825                12.1371                 5.5611
 IR Inten    --      8.5087                 3.1196                25.0765

                     43                     44                     45
                      A                      A                      A
 Frequencies --   3042.1181              3060.9970              3071.2451
 Red. masses --      1.0840                 1.0983                 1.0594
 Frc consts  --      5.9104                 6.0632                 5.8878
 IR Inten    --     28.9822                15.8702                24.0480

                     46                     47                     48
                      A                      A                      A
 Frequencies --   3087.0750              3091.6170              3113.5745
 Red. masses --      1.0867                 1.0893                 1.0989
 Frc consts  --      6.1019                 6.1342                 6.2767
 IR Inten    --     76.0301                22.5734                17.8309

                     49                     50                     51
                      A                      A                      A
 Frequencies --   3137.5823              3167.8464              3765.7292
 Red. masses --      1.1102                 1.0918                 1.0653
 Frc consts  --      6.4391                 6.4556                 8.9004
 IR Inten    --     23.4252                15.4274                19.5881

 - Thermochemistry -
 -------------------
 Temperature   298.150 Kelvin.  Pressure   1.00000 Atm.
 Atom     1 has atomic number  6 and mass  12.00000

 Molecular mass:   126.06808 amu.
 Principal axes and moments of inertia in atomic units:
                           1         2         3
     Eigenvalues --   715.043991082.817811446.32311
           X            0.99866   0.05023   0.01279
           Y           -0.05050   0.99847   0.02251
           Z           -0.01164  -0.02312   0.99966
 This molecule is an asymmetric top.
 Rotational symmetry number  1.
 Warning -- assumption of classical behavior for rotation
           may cause significant error
 Rotational temperatures (Kelvin)      0.12113     0.07999     0.05989
 Rotational constants (GHZ):           2.52396     1.66671     1.24781
 Zero-point vibrational energy     421219.1 (Joules/Mol)
                                  100.67377 (Kcal/Mol)
 Warning -- explicit consideration of  11 degrees of freedom as
           vibrations may cause significant error
 Vibrational temperatures:    199.68   217.05   278.04   398.33   452.49
          (Kelvin)            572.67   660.92   668.51   705.60   743.35
                              846.78  1057.02  1108.50  1194.65  1239.11
                             1266.44  1339.87  1352.42  1370.09  1398.65
                             1481.00  1510.35  1527.47  1552.25  1596.38
                             1608.03  1702.90  1734.07  1796.13  1817.10
                             1849.10  1879.75  1918.33  1953.25  1960.65
                             2034.91  2055.21  2126.92  2139.04  2140.28
                             2471.45  4337.70  4376.92  4404.09  4418.83
                             4441.61  4448.14  4479.73  4514.28  4557.82
                             5418.04

 Zero-point correction=                           0.160434 (Hartree/Particle)
 Thermal correction to Energy=                    0.168290
 Thermal correction to Enthalpy=                  0.169234
 Thermal correction to Gibbs Free Energy=         0.128387
 Sum of electronic and zero-point Energies=           -423.014880
 Sum of electronic and thermal Energies=              -423.007024
 Sum of electronic and thermal Enthalpies=            -423.006080
 Sum of electronic and thermal Free Energies=         -423.046927

                     E (Thermal)             CV                S
                      KCal/Mol        Cal/Mol-Kelvin    Cal/Mol-Kelvin
 Total                  105.604             31.298             85.970
 Electronic               0.000              0.000              0.000
 Translational            0.889              2.981             40.409
 Rotational               0.889              2.981             28.506
 Vibrational            103.826             25.336             17.055
 Vibration     1          0.614              1.915              2.821
 Vibration     2          0.618              1.902              2.661
 Vibration     3          0.635              1.849              2.196
 Vibration     4          0.678              1.716              1.553
 Vibration     5          0.702              1.646              1.339
 Vibration     6          0.764              1.474              0.970
 Vibration     7          0.817              1.340              0.768
 Vibration     8          0.822              1.328              0.753
 Vibration     9          0.846              1.271              0.683
 Vibration    10          0.872              1.213              0.618
 Vibration    11          0.946              1.056              0.470

 Optimization completed.
    -- Stationary point found.
 Normal termination of Gaussian 09 at Tue Jan 28 00:51:33 2020.
