 Gaussian 09, Revision D.01,
 Gaussian 09:  ES64L-G09RevD.01 24-Apr-2013

 -----------------------------
 # b3lyp 6-31G(2df,p) opt Freq
 -----------------------------

 -----
 titel
 -----
 Symbolic Z-matrix:
 Charge =  0 Multiplicity = 1

 SCF Done:  E(RB3LYP) =  -423.175166821     A.U. after   14 cycles
 Optimization completed.
    -- Stationary point found.
 Normal termination of Gaussian 09 at Mon Jan 27 15:56:34 2020.

 ----------------------------------------------------------------------
 #N Geom=AllCheck Guess=TCheck SCRF=Check GenChk RB3LYP/6-31G(2df,p) Fr
 eq
 ----------------------------------------------------------------------

 Structure from the checkpoint file:  "/scratch/puck/g09_e32ebd4b-30ba-4f66-ae23-065b0602e9f7/Gau-45777.chk"
 -----
 titel
 -----
 Charge =  0 Multiplicity = 1

                         Standard orientation:
 ---------------------------------------------------------------------
 Center     Atomic      Atomic             Coordinates (Angstroms)
 Number     Number       Type             X           Y           Z
 ---------------------------------------------------------------------
      1          6           0        0.621257    1.529390   -1.152599
      2          6           0        0.399744    0.583748    0.026440
      3          8           0        0.496146    1.255422    1.265723
      4          6           0        1.233052   -0.723372   -0.057983
      5          8           0        2.378197   -0.962922    0.197297
      6          6           0        0.000244   -1.567932   -0.421000
      7          6           0       -0.845910   -0.326630   -0.078533
      8          6           0       -2.208495    0.044835   -0.579317
      9          6           0       -1.995685   -0.289087    0.879881
     10          1           0       -0.104714    2.347049   -1.110377
     11          1           0        1.629058    1.956664   -1.113014
     12          1           0        0.507955    1.013891   -2.111509
     13          1           0        1.426640    1.463008    1.411925
     14          1           0       -0.014349   -1.858320   -1.477923
     15          1           0       -0.144777   -2.464046    0.189165
     16          1           0       -2.393466    1.081457   -0.843057
     17          1           0       -2.734587   -0.672730   -1.201038
     18          1           0       -2.012788    0.521591    1.599334
     19          1           0       -2.378954   -1.234274    1.251002
 ---------------------------------------------------------------------

 SCF Done:  E(RB3LYP) =  -423.175166821     A.U. after    1 cycles

 The electronic state is 1-A.
 Alpha  occ. eigenvalues --  -19.14609 -19.14356 -10.26919 -10.24346 -10.20334
 Alpha  occ. eigenvalues --  -10.19546 -10.19107 -10.18830 -10.18597  -1.05397
 Alpha  occ. eigenvalues --   -1.02684  -0.87823  -0.80004  -0.73320  -0.64213
 Alpha  occ. eigenvalues --   -0.60532  -0.56309  -0.54127  -0.49462  -0.48335
 Alpha  occ. eigenvalues --   -0.47501  -0.44954  -0.43340  -0.42372  -0.40825
 Alpha  occ. eigenvalues --   -0.39435  -0.37253  -0.36831  -0.35539  -0.33833
 Alpha  occ. eigenvalues --   -0.29391  -0.29160  -0.28579  -0.23366
 Alpha virt. eigenvalues --   -0.02700   0.06999   0.09868   0.10975   0.11067
 Alpha virt. eigenvalues --    0.12091   0.13624   0.14378   0.16576   0.17079
 Alpha virt. eigenvalues --    0.17770   0.18806   0.21493   0.22499   0.23554

 Mulliken charges:
               1
     1  C   -0.438498
     2  C    0.210436
     3  O   -0.469744
     4  C    0.363697
     5  O   -0.309515
     6  C   -0.452526
     7  C    0.335561
     8  C   -0.337140
     9  C   -0.308217
    10  H    0.128974
    11  H    0.121863
    12  H    0.120451
    13  H    0.290183
    14  H    0.130899
    15  H    0.134588
    16  H    0.117229
    17  H    0.113808
    18  H    0.135124
    19  H    0.112827
 Sum of Mulliken charges =   0.00000

 Dipole moment (field-independent basis, Debye):
    X=             -1.4668    Y=              0.4331    Z=             -1.1746  Tot=              1.9284
 Quadrupole moment (field-independent basis, Debye-Ang):
   XX=            -58.0747   YY=            -51.3291   ZZ=            -52.6100
   XY=              5.5404   XZ=              0.6336   YZ=              0.0368

  Exact polarizability:  85.221   1.303  75.099   1.199   0.062  67.770
 Approx polarizability: 123.111  -1.395 105.526   4.103   2.319 102.601

                      1                      2                      3
                      A                      A                      A
 Frequencies --     28.0934                96.6962               185.5346
 Red. masses --      3.1864                 1.6411                 2.7091
 Frc consts  --      0.0015                 0.0090                 0.0549
 IR Inten    --     10.1394                44.6760                31.6398

                      4                      5                      6
                      A                      A                      A
 Frequencies --    198.2248               228.1719               240.1250
 Red. masses --      2.5172                 1.3562                 1.9072
 Frc consts  --      0.0583                 0.0416                 0.0648
 IR Inten    --      2.1258                11.2215                 0.5935

                      7                      8                      9
                      A                      A                      A
 Frequencies --    286.0354               298.1701               389.7296
 Red. masses --      2.9073                 2.1563                 2.8226
 Frc consts  --      0.1401                 0.1129                 0.2526
 IR Inten    --     19.6464                 4.8884                 4.3967

                     10                     11                     12
                      A                      A                      A
 Frequencies --    461.1114               493.1189               526.3450
 Red. masses --      3.4473                 3.6798                 2.4579
 Frc consts  --      0.4319                 0.5272                 0.4012
 IR Inten    --      2.1604                 1.9302                 1.3319

                     13                     14                     15
                      A                      A                      A
 Frequencies --    579.6481               687.6357               763.1863
 Red. masses --      2.9774                 3.9383                 2.1255
 Frc consts  --      0.5894                 1.0972                 0.7294
 IR Inten    --      2.2176                 2.6217                 3.4220

                     16                     17                     18
                      A                      A                      A
 Frequencies --    787.1472               836.4150               866.4586
 Red. masses --      1.1886                 2.0828                 2.1296
 Frc consts  --      0.4339                 0.8585                 0.9420
 IR Inten    --      2.4519                 2.6991                17.5491

                     19                     20                     21
                      A                      A                      A
 Frequencies --    928.7912               947.3801               982.2590
 Red. masses --      1.9766                 1.4262                 2.8574
 Frc consts  --      1.0046                 0.7542                 1.6243
 IR Inten    --      1.0132                10.2944                10.4486

                     22                     23                     24
                      A                      A                      A
 Frequencies --    988.7852              1042.0375              1054.3155
 Red. masses --      2.6379                 3.2416                 1.3978
 Frc consts  --      1.5196                 2.0739                 0.9155
 IR Inten    --     23.8726                40.5006                 4.0215

                     25                     26                     27
                      A                      A                      A
 Frequencies --   1077.0034              1084.5872              1137.6411
 Red. masses --      1.5040                 1.5409                 1.4291
 Frc consts  --      1.0279                 1.0679                 1.0897
 IR Inten    --     16.8119                43.1010                 0.7024

                     28                     29                     30
                      A                      A                      A
 Frequencies --   1158.3969              1184.7532              1190.0979
 Red. masses --      3.5582                 1.9555                 1.4383
 Frc consts  --      2.8132                 1.6172                 1.2002
 IR Inten    --     23.6159                13.3187                 6.0396

                     31                     32                     33
                      A                      A                      A
 Frequencies --   1209.9632              1272.9813              1328.2310
 Red. masses --      1.8387                 2.5570                 2.0869
 Frc consts  --      1.5860                 2.4413                 2.1692
 IR Inten    --     14.0761                28.0480                17.2794

                     34                     35                     36
                      A                      A                      A
 Frequencies --   1393.9099              1398.5734              1442.9162
 Red. masses --      1.6448                 1.4502                 1.1493
 Frc consts  --      1.8830                 1.6713                 1.4098
 IR Inten    --     17.3765                 2.9052                10.4031

                     37                     38                     39
                      A                      A                      A
 Frequencies --   1467.2211              1484.1355              1486.6364
 Red. masses --      1.0895                 1.0624                 1.0841
 Frc consts  --      1.3819                 1.3787                 1.4117
 IR Inten    --      2.6295                 1.2895                 4.7556

                     40                     41                     42
                      A                      A                      A
 Frequencies --   1506.8619              1890.1448              3031.2637
 Red. masses --      1.4762                12.7941                 1.0341
 Frc consts  --      1.9748                26.9309                 5.5982
 IR Inten    --      0.8730               246.3192                14.3855

                     43                     44                     45
                      A                      A                      A
 Frequencies --   3041.3809              3098.1892              3104.2043
 Red. masses --      1.0605                 1.1029                 1.1016
 Frc consts  --      5.7796                 6.2373                 6.2541
 IR Inten    --     11.5400                 8.0386                21.0201

                     46                     47                     48
                      A                      A                      A
 Frequencies --   3112.3030              3123.6611              3132.4724
 Red. masses --      1.1019                 1.0530                 1.0564
 Frc consts  --      6.2887                 6.0535                 6.1072
 IR Inten    --     15.2852                15.9018                12.1368

                     49                     50                     51
                      A                      A                      A
 Frequencies --   3203.9377              3224.9173              3796.3679
 Red. masses --      1.1172                 1.1153                 1.0659
 Frc consts  --      6.7567                 6.8343                 9.0510
 IR Inten    --      3.8005                 7.8099                27.6654

 - Thermochemistry -
 -------------------
 Temperature   298.150 Kelvin.  Pressure   1.00000 Atm.
 Atom     1 has atomic number  6 and mass  12.00000

 Molecular mass:   126.06808 amu.
 Principal axes and moments of inertia in atomic units:
                           1         2         3
     Eigenvalues --   752.541851204.579521421.37458
           X            0.99850   0.05381  -0.00997
           Y           -0.05429   0.99689  -0.05714
           Z            0.00686   0.05760   0.99832
 This molecule is an asymmetric top.
 Rotational symmetry number  1.
 Warning -- assumption of classical behavior for rotation
           may cause significant error
 Rotational temperatures (Kelvin)      0.11510     0.07190     0.06094
 Rotational constants (GHZ):           2.39819     1.49823     1.26972
 Zero-point vibrational energy     409590.4 (Joules/Mol)
                                   97.89445 (Kcal/Mol)
 Warning -- explicit consideration of  13 degrees of freedom as
           vibrations may cause significant error
 Vibrational temperatures:     40.42   139.12   266.94   285.20   328.29
          (Kelvin)            345.49   411.54   429.00   560.73   663.44
                              709.49   757.29   833.98   989.35  1098.05
                             1132.53  1203.41  1246.64  1336.32  1363.07
                             1413.25  1422.64  1499.26  1516.92  1549.57
                             1560.48  1636.81  1666.67  1704.59  1712.28
                             1740.87  1831.53  1911.03  2005.52  2012.23
                             2076.03  2111.00  2135.34  2138.94  2168.04
                             2719.49  4361.31  4375.86  4457.60  4466.25
                             4477.90  4494.25  4506.92  4609.75  4639.93
                             5462.12

 Zero-point correction=                           0.156005 (Hartree/Particle)
 Thermal correction to Energy=                    0.165530
 Thermal correction to Enthalpy=                  0.166474
 Thermal correction to Gibbs Free Energy=         0.121180
 Sum of electronic and zero-point Energies=           -423.019162
 Sum of electronic and thermal Energies=              -423.009637
 Sum of electronic and thermal Enthalpies=            -423.008693
 Sum of electronic and thermal Free Energies=         -423.053986

                     E (Thermal)             CV                S
                      KCal/Mol        Cal/Mol-Kelvin    Cal/Mol-Kelvin
 Total                  103.872             35.272             95.329
 Electronic               0.000              0.000              0.000
 Translational            0.889              2.981             40.409
 Rotational               0.889              2.981             28.645
 Vibrational            102.094             29.311             26.275
 Vibration     1          0.593              1.984              5.960
 Vibration     2          0.603              1.952              3.520
 Vibration     3          0.632              1.860              2.272
 Vibration     4          0.637              1.842              2.150
 Vibration     5          0.651              1.798              1.893
 Vibration     6          0.657              1.779              1.802
 Vibration     7          0.684              1.700              1.497
 Vibration     8          0.691              1.677              1.427
 Vibration     9          0.758              1.492              1.001
 Vibration    10          0.819              1.336              0.763
 Vibration    11          0.849              1.265              0.676
 Vibration    12          0.881              1.192              0.595
 Vibration    13          0.936              1.075              0.486

 Optimization completed.
    -- Stationary point found.
 Normal termination of Gaussian 09 at Mon Jan 27 16:40:09 2020.
