 Gaussian 09, Revision D.01,
 Gaussian 09:  ES64L-G09RevD.01 24-Apr-2013

 -----------------------------
 # b3lyp 6-31G(2df,p) opt Freq
 -----------------------------

 -----
 titel
 -----
 Symbolic Z-matrix:
 Charge =  0 Multiplicity = 1

 SCF Done:  E(RB3LYP) =  -423.141703751     A.U. after   14 cycles
 Optimization completed.
    -- Stationary point found.
 Normal termination of Gaussian 09 at Mon Jan 27 15:50:22 2020.

 ----------------------------------------------------------------------
 #N Geom=AllCheck Guess=TCheck SCRF=Check GenChk RB3LYP/6-31G(2df,p) Fr
 eq
 ----------------------------------------------------------------------

 Structure from the checkpoint file:  "/scratch/puck/g09_8406855c-ee92-4a4e-8f11-452a8f61a1a0/Gau-165010.chk"
 -----
 titel
 -----
 Charge =  0 Multiplicity = 1

                         Standard orientation:
 ---------------------------------------------------------------------
 Center     Atomic      Atomic             Coordinates (Angstroms)
 Number     Number       Type             X           Y           Z
 ---------------------------------------------------------------------
      1          6           0        2.781233   -1.124994   -0.244383
      2          6           0        1.520630   -0.284601   -0.445359
      3          6           0        0.297880   -0.889671    0.256460
      4          8           0       -0.853050   -0.180545   -0.156050
      5          6           0       -2.032414   -0.634389    0.483169
      6          6           0       -3.178752    0.130064    0.012008
      7          6           0       -4.140014    0.745995   -0.359357
      8          6           0        1.714672    1.159452   -0.006714
      9          8           0        2.771440    1.629259    0.333463
     10          1           0        2.659987   -2.122177   -0.677083
     11          1           0        3.640634   -0.640973   -0.711949
     12          1           0        3.013229   -1.236540    0.819533
     13          1           0        1.261235   -0.237198   -1.514217
     14          1           0        0.210129   -1.957055   -0.005096
     15          1           0        0.416600   -0.833253    1.352566
     16          1           0       -2.190068   -1.707035    0.278311
     17          1           0       -1.940170   -0.532197    1.577790
     18          1           0       -4.986826    1.294348   -0.691405
     19          1           0        0.788718    1.771239   -0.022694
 ---------------------------------------------------------------------

 SCF Done:  E(RB3LYP) =  -423.141703751     A.U. after    1 cycles

 The electronic state is 1-A.
 Alpha  occ. eigenvalues --  -19.16014 -19.13811 -10.26600 -10.26544 -10.24721
 Alpha  occ. eigenvalues --  -10.20368 -10.19101 -10.18487 -10.18270  -1.05500
 Alpha  occ. eigenvalues --   -1.04376  -0.81662  -0.77440  -0.71266  -0.67049
 Alpha  occ. eigenvalues --   -0.64674  -0.55525  -0.54010  -0.51326  -0.50303
 Alpha  occ. eigenvalues --   -0.49367  -0.47402  -0.44545  -0.43346  -0.40842
 Alpha  occ. eigenvalues --   -0.38320  -0.37908  -0.36689  -0.35814  -0.33577
 Alpha  occ. eigenvalues --   -0.28819  -0.28423  -0.26811  -0.24566
 Alpha virt. eigenvalues --   -0.02091   0.02440   0.04798   0.08848   0.10019
 Alpha virt. eigenvalues --    0.12103   0.12457   0.14069   0.14726   0.15808
 Alpha virt. eigenvalues --    0.16975   0.17482   0.18586   0.19024   0.20849

 Mulliken charges:
               1
     1  C   -0.402713
     2  C   -0.097301
     3  C   -0.056399
     4  O   -0.249751
     5  C   -0.208136
     6  C    0.277551
     7  C   -0.408943
     8  C    0.152651
     9  O   -0.246568
    10  H    0.113202
    11  H    0.139570
    12  H    0.126824
    13  H    0.113918
    14  H    0.098207
    15  H    0.097824
    16  H    0.121856
    17  H    0.123337
    18  H    0.204123
    19  H    0.100750
 Sum of Mulliken charges =   0.00000

 Dipole moment (field-independent basis, Debye):
    X=             -1.8248    Y=             -2.2972    Z=              0.0017  Tot=              2.9338
 Quadrupole moment (field-independent basis, Debye-Ang):
   XX=            -56.6035   YY=            -54.0365   ZZ=            -52.3090
   XY=             -7.0038   XZ=             -1.9779   YZ=             -2.1940

  Exact polarizability: 105.482 -10.173  73.412   6.141  -2.107  59.346
 Approx polarizability: 137.628 -13.884 107.691  15.183  -4.902  92.666

                      1                      2                      3
                      A                      A                      A
 Frequencies --     38.8490                68.4842                81.9826
 Red. masses --      3.8666                 3.2793                 3.1301
 Frc consts  --      0.0034                 0.0091                 0.0124
 IR Inten    --      0.5153                 3.5402                 2.0010

                      4                      5                      6
                      A                      A                      A
 Frequencies --    103.1467               134.4334               178.4362
 Red. masses --      3.2526                 2.7764                 1.1728
 Frc consts  --      0.0204                 0.0296                 0.0220
 IR Inten    --      3.5978                 3.4172                 0.8770

                      7                      8                      9
                      A                      A                      A
 Frequencies --    208.6524               260.8798               322.0494
 Red. masses --      3.5452                 3.1054                 3.3930
 Frc consts  --      0.0909                 0.1245                 0.2073
 IR Inten    --      2.8933                 3.5247                 2.1393

                     10                     11                     12
                      A                      A                      A
 Frequencies --    333.4844               371.2013               423.1123
 Red. masses --      3.4414                 4.4568                 2.4847
 Frc consts  --      0.2255                 0.3618                 0.2621
 IR Inten    --      1.9447                 4.3153                 0.4844

                     13                     14                     15
                      A                      A                      A
 Frequencies --    563.9654               613.4631               651.5272
 Red. masses --      6.2294                 1.1941                 3.5275
 Frc consts  --      1.1673                 0.2648                 0.8822
 IR Inten    --      2.7728                43.9147                 2.5078

                     16                     17                     18
                      A                      A                      A
 Frequencies --    681.6226               813.8386               909.4440
 Red. masses --      1.2422                 3.1793                 1.4635
 Frc consts  --      0.3400                 1.2407                 0.7132
 IR Inten    --     33.4529                17.6766                11.7192

                     19                     20                     21
                      A                      A                      A
 Frequencies --    927.8832               963.6584               989.8172
 Red. masses --      1.3010                 1.8794                 2.3201
 Frc consts  --      0.6599                 1.0283                 1.3393
 IR Inten    --      0.5688                 4.1494                 7.3330

                     22                     23                     24
                      A                      A                      A
 Frequencies --   1017.3073              1032.6867              1129.9838
 Red. masses --      6.3027                 1.6305                 1.9706
 Frc consts  --      3.8431                 1.0245                 1.4825
 IR Inten    --     24.6347                 2.5367                22.1457

                     25                     26                     27
                      A                      A                      A
 Frequencies --   1136.6896              1155.9284              1174.0907
 Red. masses --      5.3656                 2.5911                 2.1832
 Frc consts  --      4.0846                 2.0398                 1.7732
 IR Inten    --    191.3626                68.0424                 3.5949

                     28                     29                     30
                      A                      A                      A
 Frequencies --   1242.7489              1258.2456              1298.1311
 Red. masses --      1.1596                 1.1238                 1.3178
 Frc consts  --      1.0552                 1.0483                 1.3084
 IR Inten    --      1.3008                 7.7849                 1.9857

                     31                     32                     33
                      A                      A                      A
 Frequencies --   1345.1538              1382.1428              1405.1050
 Red. masses --      1.4899                 1.3235                 1.1929
 Frc consts  --      1.5883                 1.4896                 1.3876
 IR Inten    --     11.6247                82.1466                 1.4995

                     34                     35                     36
                      A                      A                      A
 Frequencies --   1421.3589              1442.4390              1490.0869
 Red. masses --      1.2627                 1.4434                 1.0450
 Frc consts  --      1.5030                 1.7694                 1.3670
 IR Inten    --     19.3486                 8.8968                 6.5232

                     37                     38                     39
                      A                      A                      A
 Frequencies --   1495.7991              1498.5889              1526.6982
 Red. masses --      1.0609                 1.0731                 1.0818
 Frc consts  --      1.3985                 1.4199                 1.4857
 IR Inten    --      4.1349                 3.4345                 3.3820

                     40                     41                     42
                      A                      A                      A
 Frequencies --   1824.6526              2249.8041              2923.0264
 Red. masses --     10.2257                 5.8871                 1.0841
 Frc consts  --     20.0587                17.5566                 5.4575
 IR Inten    --    155.7899                 3.1217                77.6732

                     43                     44                     45
                      A                      A                      A
 Frequencies --   2949.6163              2959.7557              2975.6997
 Red. masses --      1.0554                 1.0553                 1.1026
 Frc consts  --      5.4100                 5.4468                 5.7522
 IR Inten    --     10.0897                62.7135                53.3955

                     46                     47                     48
                      A                      A                      A
 Frequencies --   2983.8568              3006.5680              3046.9776
 Red. masses --      1.1011                 1.0844                 1.0367
 Frc consts  --      5.7760                 5.7754                 5.6706
 IR Inten    --     26.6296                16.7812                19.7467

                     49                     50                     51
                      A                      A                      A
 Frequencies --   3112.2154              3136.2785              3505.3748
 Red. masses --      1.1017                 1.1001                 1.1643
 Frc consts  --      6.2871                 6.3754                 8.4291
 IR Inten    --     22.0906                11.9138                62.9677

 - Thermochemistry -
 -------------------
 Temperature   298.150 Kelvin.  Pressure   1.00000 Atm.
 Atom     1 has atomic number  6 and mass  12.00000

 Molecular mass:   126.06808 amu.
 Principal axes and moments of inertia in atomic units:
                           1         2         3
     Eigenvalues --   479.771362689.498523032.00870
           X            0.99976  -0.02123  -0.00446
           Y            0.02113   0.99955  -0.02152
           Z            0.00492   0.02142   0.99976
 This molecule is an asymmetric top.
 Rotational symmetry number  1.
 Warning -- assumption of classical behavior for rotation
           may cause significant error
 Rotational temperatures (Kelvin)      0.18053     0.03220     0.02857
 Rotational constants (GHZ):           3.76167     0.67103     0.59523
 Zero-point vibrational energy     405336.3 (Joules/Mol)
                                   96.87771 (Kcal/Mol)
 Warning -- explicit consideration of  14 degrees of freedom as
           vibrations may cause significant error
 Vibrational temperatures:     55.89    98.53   117.95   148.40   193.42
          (Kelvin)            256.73   300.20   375.35   463.36   479.81
                              534.08   608.76   811.42   882.64   937.40
                              980.70  1170.93  1308.49  1335.02  1386.49
                             1424.12  1463.68  1485.80  1625.79  1635.44
                             1663.12  1689.25  1788.04  1810.33  1867.72
                             1935.37  1988.59  2021.63  2045.02  2075.35
                             2143.90  2152.12  2156.13  2196.58  2625.26
                             3236.96  4205.58  4243.83  4258.42  4281.36
                             4293.10  4325.78  4383.92  4477.78  4512.40
                             5043.45

 Zero-point correction=                           0.154384 (Hartree/Particle)
 Thermal correction to Energy=                    0.165144
 Thermal correction to Enthalpy=                  0.166089
 Thermal correction to Gibbs Free Energy=         0.117028
 Sum of electronic and zero-point Energies=           -422.987319
 Sum of electronic and thermal Energies=              -422.976559
 Sum of electronic and thermal Enthalpies=            -422.975615
 Sum of electronic and thermal Free Energies=         -423.024675

                     E (Thermal)             CV                S
                      KCal/Mol        Cal/Mol-Kelvin    Cal/Mol-Kelvin
 Total                  103.630             36.682            103.256
 Electronic               0.000              0.000              0.000
 Translational            0.889              2.981             40.409
 Rotational               0.889              2.981             29.749
 Vibrational            101.852             30.720             33.099
 Vibration     1          0.594              1.981              5.317
 Vibration     2          0.598              1.969              4.196
 Vibration     3          0.600              1.961              3.843
 Vibration     4          0.605              1.947              3.394
 Vibration     5          0.613              1.919              2.882
 Vibration     6          0.629              1.869              2.345
 Vibration     7          0.642              1.827              2.055
 Vibration     8          0.669              1.744              1.656
 Vibration     9          0.707              1.631              1.300
 Vibration    10          0.715              1.609              1.243
 Vibration    11          0.743              1.531              1.075
 Vibration    12          0.785              1.420              0.881
 Vibration    13          0.920              1.109              0.516
 Vibration    14          0.973              1.003              0.427

 Optimization completed.
    -- Stationary point found.
 Normal termination of Gaussian 09 at Mon Jan 27 16:25:35 2020.
