 Gaussian 09, Revision D.01,
 Gaussian 09:  ES64L-G09RevD.01 24-Apr-2013

 -----------------------------
 # b3lyp 6-31G(2df,p) opt Freq
 -----------------------------

 -----
 titel
 -----
 Symbolic Z-matrix:
 Charge =  0 Multiplicity = 1

 SCF Done:  E(RB3LYP) =  -423.117618653     A.U. after   14 cycles
 Optimization completed.
    -- Stationary point found.
 Normal termination of Gaussian 09 at Tue Jan 28 13:25:16 2020.

 ----------------------------------------------------------------------
 #N Geom=AllCheck Guess=TCheck SCRF=Check GenChk RB3LYP/6-31G(2df,p) Fr
 eq
 ----------------------------------------------------------------------

 Structure from the checkpoint file:  "/scratch/puck/g09_4a069539-f318-40fe-9e8e-94cae67439f2/Gau-144789.chk"
 -----
 titel
 -----
 Charge =  0 Multiplicity = 1

                         Standard orientation:
 ---------------------------------------------------------------------
 Center     Atomic      Atomic             Coordinates (Angstroms)
 Number     Number       Type             X           Y           Z
 ---------------------------------------------------------------------
      1          8           0        2.267834    1.486584   -0.400244
      2          6           0        2.449457    0.121389   -0.049793
      3          6           0        1.211425   -0.510017    0.543611
      4          6           0        0.756493   -1.892274    0.135096
      5          6           0       -0.010624   -0.681129   -0.320188
      6          6           0       -1.384966   -0.389273    0.257128
      7          8           0       -2.415935   -1.146259   -0.370071
      8          6           0       -1.672909    1.050999    0.217694
      9          6           0       -1.907196    2.227816    0.139067
     10          1           0        1.804093    1.918908    0.324009
     11          1           0        2.718750   -0.388687   -0.981534
     12          1           0        3.298432   -0.000309    0.642036
     13          1           0        1.021522   -0.239328    1.581400
     14          1           0        1.346646   -2.427719   -0.601057
     15          1           0        0.306405   -2.527563    0.890780
     16          1           0        0.102487   -0.379729   -1.358554
     17          1           0       -1.397809   -0.723400    1.302632
     18          1           0       -2.542491   -0.786074   -1.254939
     19          1           0       -2.123296    3.266243    0.082063
 ---------------------------------------------------------------------

 SCF Done:  E(RB3LYP) =  -423.117618653     A.U. after    1 cycles

 The electronic state is 1-A.
 Alpha  occ. eigenvalues --  -19.14334 -19.13015 -10.26213 -10.22899 -10.19761
 Alpha  occ. eigenvalues --  -10.19729 -10.19368 -10.18663 -10.18202  -1.02725
 Alpha  occ. eigenvalues --   -1.01156  -0.87171  -0.77012  -0.71102  -0.68466
 Alpha  occ. eigenvalues --   -0.59892  -0.58841  -0.55320  -0.51103  -0.50778
 Alpha  occ. eigenvalues --   -0.49441  -0.46042  -0.44189  -0.42269  -0.39809
 Alpha  occ. eigenvalues --   -0.38911  -0.36058  -0.33335  -0.30508  -0.30279
 Alpha  occ. eigenvalues --   -0.28673  -0.27354  -0.26729  -0.26167
 Alpha virt. eigenvalues --    0.02989   0.04531   0.07821   0.08901   0.10366
 Alpha virt. eigenvalues --    0.10936   0.12281   0.13515   0.14049   0.15981
 Alpha virt. eigenvalues --    0.16846   0.17641   0.18472   0.21599   0.24201

 Mulliken charges:
               1
     1  O   -0.417253
     2  C   -0.074253
     3  C   -0.044755
     4  C   -0.316277
     5  C    0.012331
     6  C   -0.083358
     7  O   -0.412964
     8  C    0.311986
     9  C   -0.461939
    10  H    0.282627
    11  H    0.102606
    12  H    0.088449
    13  H    0.084707
    14  H    0.115722
    15  H    0.118624
    16  H    0.095441
    17  H    0.112288
    18  H    0.284778
    19  H    0.201242
 Sum of Mulliken charges =   0.00000

 Dipole moment (field-independent basis, Debye):
    X=              0.2598    Y=              0.1423    Z=              0.4929  Tot=              0.5750
 Quadrupole moment (field-independent basis, Debye-Ang):
   XX=            -58.9641   YY=            -51.2660   ZZ=            -50.1466
   XY=             -6.6194   XZ=              4.5282   YZ=              2.5146

  Exact polarizability:  78.702  -7.107  92.726   1.884   0.112  60.839
 Approx polarizability: 100.090  -8.320 144.051   3.209  -1.671  95.357

                      1                      2                      3
                      A                      A                      A
 Frequencies --     20.0330                70.9663                89.4267
 Red. masses --      3.1010                 4.4311                 2.6209
 Frc consts  --      0.0007                 0.0131                 0.0123
 IR Inten    --      2.9189                 5.7701                 4.5541

                      4                      5                      6
                      A                      A                      A
 Frequencies --    159.3718               184.0086               200.6420
 Red. masses --      3.6557                 1.6229                 1.8146
 Frc consts  --      0.0547                 0.0324                 0.0430
 IR Inten    --      9.1489                91.7180                23.2886

                      7                      8                      9
                      A                      A                      A
 Frequencies --    214.3779               272.5728               337.0204
 Red. masses --      2.7816                 1.5803                 3.2574
 Frc consts  --      0.0753                 0.0692                 0.2180
 IR Inten    --     30.7182                77.0808                 6.5466

                     10                     11                     12
                      A                      A                      A
 Frequencies --    373.0897               436.2969               478.5614
 Red. masses --      2.4432                 4.5549                 3.4428
 Frc consts  --      0.2004                 0.5108                 0.4646
 IR Inten    --      2.4020                34.7076                 2.5054

                     13                     14                     15
                      A                      A                      A
 Frequencies --    551.3857               584.9885               634.0299
 Red. masses --      4.0645                 6.0308                 1.2280
 Frc consts  --      0.7281                 1.2160                 0.2908
 IR Inten    --      3.1378                 5.2654                42.2543

                     16                     17                     18
                      A                      A                      A
 Frequencies --    671.1439               808.8736               834.2905
 Red. masses --      1.2387                 1.6886                 1.6725
 Frc consts  --      0.3287                 0.6509                 0.6859
 IR Inten    --     34.9739                 1.8538                11.2981

                     19                     20                     21
                      A                      A                      A
 Frequencies --    902.8182               948.5251               966.5807
 Red. masses --      1.8977                 3.7528                 2.5904
 Frc consts  --      0.9113                 1.9893                 1.4259
 IR Inten    --      1.4832                 8.2794                17.2935

                     22                     23                     24
                      A                      A                      A
 Frequencies --    982.9910              1043.1578              1060.7231
 Red. masses --      2.2599                 2.2921                 4.4293
 Frc consts  --      1.2866                 1.4695                 2.9362
 IR Inten    --     32.3521                53.4230                40.5990

                     25                     26                     27
                      A                      A                      A
 Frequencies --   1075.6201              1079.5979              1111.0935
 Red. masses --      1.5756                 2.3916                 1.1819
 Frc consts  --      1.0740                 1.6423                 0.8596
 IR Inten    --     34.1066               108.2051                 3.4215

                     28                     29                     30
                      A                      A                      A
 Frequencies --   1137.1013              1161.1104              1230.1490
 Red. masses --      1.6695                 1.6566                 1.5982
 Frc consts  --      1.2719                 1.3159                 1.4249
 IR Inten    --      4.5192                10.6848                 3.9869

                     31                     32                     33
                      A                      A                      A
 Frequencies --   1238.3669              1270.0494              1293.7923
 Red. masses --      1.3509                 1.3658                 1.2977
 Frc consts  --      1.2206                 1.2980                 1.2799
 IR Inten    --     23.1128                 8.4950                11.5820

                     34                     35                     36
                      A                      A                      A
 Frequencies --   1354.1507              1368.7511              1415.5296
 Red. masses --      1.1972                 1.3500                 1.2037
 Frc consts  --      1.2934                 1.4902                 1.4210
 IR Inten    --      1.7784                11.5575                71.2346

                     37                     38                     39
                      A                      A                      A
 Frequencies --   1420.8275              1450.2204              1494.3416
 Red. masses --      1.2665                 1.5190                 1.4460
 Frc consts  --      1.5064                 1.8823                 1.9025
 IR Inten    --     10.3241                27.1134                 0.6451

                     40                     41                     42
                      A                      A                      A
 Frequencies --   1513.0171              2229.9925              2974.8998
 Red. masses --      1.1294                 5.9041                 1.0707
 Frc consts  --      1.5233                17.2986                 5.5831
 IR Inten    --      0.7563                 1.2784                80.2808

                     43                     44                     45
                      A                      A                      A
 Frequencies --   3028.7297              3060.1525              3115.1590
 Red. masses --      1.0828                 1.0911                 1.0873
 Frc consts  --      5.8522                 6.0203                 6.2167
 IR Inten    --     14.0333                19.8039                19.0331

                     46                     47                     48
                      A                      A                      A
 Frequencies --   3130.7130              3144.1574              3214.8011
 Red. masses --      1.0553                 1.0881                 1.1163
 Frc consts  --      6.0941                 6.3374                 6.7975
 IR Inten    --     13.5718                 9.1064                 8.7878

                     49                     50                     51
                      A                      A                      A
 Frequencies --   3501.9226              3805.9137              3816.7139
 Red. masses --      1.1623                 1.0662                 1.0663
 Frc consts  --      8.3981                 9.0992                 9.1517
 IR Inten    --     62.4827                25.8186                15.0658

 - Thermochemistry -
 -------------------
 Temperature   298.150 Kelvin.  Pressure   1.00000 Atm.
 Atom     1 has atomic number  8 and mass  15.99491

 Molecular mass:   126.06808 amu.
 Principal axes and moments of inertia in atomic units:
                           1         2         3
     Eigenvalues --   830.844791541.895442217.78763
           X            0.99955  -0.02944   0.00555
           Y            0.02942   0.99956   0.00322
           Z           -0.00564  -0.00306   0.99998
 This molecule is an asymmetric top.
 Rotational symmetry number  1.
 Warning -- assumption of classical behavior for rotation
           may cause significant error
 Rotational temperatures (Kelvin)      0.10425     0.05617     0.03905
 Rotational constants (GHZ):           2.17218     1.17047     0.81376
 Zero-point vibrational energy     409498.2 (Joules/Mol)
                                   97.87241 (Kcal/Mol)
 Warning -- explicit consideration of  14 degrees of freedom as
           vibrations may cause significant error
 Vibrational temperatures:     28.82   102.10   128.66   229.30   264.75
          (Kelvin)            288.68   308.44   392.17   484.90   536.79
                              627.73   688.54   793.32   841.67   912.23
                              965.63  1163.79  1200.36  1298.95  1364.71
                             1390.69  1414.30  1500.87  1526.14  1547.58
                             1553.30  1598.61  1636.03  1670.58  1769.91
                             1781.73  1827.32  1861.48  1948.32  1969.33
                             2036.63  2044.25  2086.54  2150.02  2176.89
                             3208.46  4280.21  4357.66  4402.87  4482.01
                             4504.39  4523.74  4625.38  5038.48  5475.85
                             5491.39

 Zero-point correction=                           0.155970 (Hartree/Particle)
 Thermal correction to Energy=                    0.166473
 Thermal correction to Enthalpy=                  0.167417
 Thermal correction to Gibbs Free Energy=         0.118971
 Sum of electronic and zero-point Energies=           -422.961649
 Sum of electronic and thermal Energies=              -422.951146
 Sum of electronic and thermal Enthalpies=            -422.950202
 Sum of electronic and thermal Free Energies=         -422.998648

                     E (Thermal)             CV                S
                      KCal/Mol        Cal/Mol-Kelvin    Cal/Mol-Kelvin
 Total                  104.463             37.212            101.964
 Electronic               0.000              0.000              0.000
 Translational            0.889              2.981             40.409
 Rotational               0.889              2.981             29.431
 Vibrational            102.686             31.251             32.124
 Vibration     1          0.593              1.986              6.631
 Vibration     2          0.598              1.968              4.126
 Vibration     3          0.602              1.957              3.673
 Vibration     4          0.621              1.892              2.557
 Vibration     5          0.631              1.862              2.287
 Vibration     6          0.638              1.839              2.127
 Vibration     7          0.644              1.819              2.006
 Vibration     8          0.676              1.724              1.580
 Vibration     9          0.718              1.602              1.226
 Vibration    10          0.745              1.527              1.067
 Vibration    11          0.797              1.391              0.838
 Vibration    12          0.835              1.298              0.714
 Vibration    13          0.907              1.137              0.541
 Vibration    14          0.942              1.064              0.476

 Optimization completed.
    -- Stationary point found.
 Normal termination of Gaussian 09 at Tue Jan 28 14:03:02 2020.
