 Gaussian 09, Revision D.01,
 Gaussian 09:  ES64L-G09RevD.01 24-Apr-2013

 -----------------------------
 # b3lyp 6-31G(2df,p) opt Freq
 -----------------------------

 -----
 titel
 -----
 Symbolic Z-matrix:
 Charge =  0 Multiplicity = 1

 SCF Done:  E(RB3LYP) =  -423.182378655     A.U. after   14 cycles
 Optimization completed.
    -- Stationary point found.
 Normal termination of Gaussian 09 at Tue Jan 28 12:40:29 2020.

 ----------------------------------------------------------------------
 #N Geom=AllCheck Guess=TCheck SCRF=Check GenChk RB3LYP/6-31G(2df,p) Fr
 eq
 ----------------------------------------------------------------------

 Structure from the checkpoint file:  "/scratch/puck/g09_d04ecf75-776e-4efa-b56a-f38172358b89/Gau-29035.chk"
 -----
 titel
 -----
 Charge =  0 Multiplicity = 1

                         Standard orientation:
 ---------------------------------------------------------------------
 Center     Atomic      Atomic             Coordinates (Angstroms)
 Number     Number       Type             X           Y           Z
 ---------------------------------------------------------------------
      1          6           0       -3.060032   -0.225381    0.354939
      2          6           0       -2.019187    0.174119   -0.706182
      3          6           0       -0.640886    0.329657   -0.153581
      4          6           0        0.193008    1.374624   -0.134524
      5          6           0        1.506519    0.833188    0.407081
      6          6           0        2.074562   -0.108514   -0.704062
      7          8           0        1.126077   -1.181510   -0.686831
      8          6           0        0.222008   -0.817567    0.388534
      9          8           0        1.056338   -0.184156    1.325922
     10          1           0       -4.048463   -0.343475   -0.099042
     11          1           0       -2.799421   -1.173891    0.835381
     12          1           0       -3.131599    0.535304    1.137994
     13          1           0       -1.997780   -0.593147   -1.492662
     14          1           0       -2.325343    1.107386   -1.191558
     15          1           0        0.046518    2.361031   -0.553913
     16          1           0        2.210349    1.515420    0.878815
     17          1           0        2.110301    0.362001   -1.691623
     18          1           0        3.065368   -0.489019   -0.434042
     19          1           0       -0.245195   -1.717038    0.784682
 ---------------------------------------------------------------------

 SCF Done:  E(RB3LYP) =  -423.182378655     A.U. after    1 cycles

 The electronic state is 1-A.
 Alpha  occ. eigenvalues --  -19.14518 -19.13764 -10.27558 -10.24215 -10.22840
 Alpha  occ. eigenvalues --  -10.19348 -10.18874 -10.18135 -10.18088  -1.09299
 Alpha  occ. eigenvalues --   -0.98451  -0.81288  -0.76969  -0.73807  -0.63952
 Alpha  occ. eigenvalues --   -0.61902  -0.59819  -0.55036  -0.51906  -0.48891
 Alpha  occ. eigenvalues --   -0.45059  -0.44660  -0.44173  -0.41101  -0.39813
 Alpha  occ. eigenvalues --   -0.39413  -0.37492  -0.36086  -0.35307  -0.33691
 Alpha  occ. eigenvalues --   -0.32675  -0.27851  -0.25694  -0.23754
 Alpha virt. eigenvalues --    0.00674   0.09489   0.10789   0.11919   0.12940
 Alpha virt. eigenvalues --    0.13934   0.14450   0.14956   0.15866   0.17236
 Alpha virt. eigenvalues --    0.17470   0.17587   0.19588   0.20288   0.21120

 Mulliken charges:
               1
     1  C   -0.375172
     2  C   -0.312310
     3  C    0.382230
     4  C   -0.235624
     5  C   -0.024148
     6  C   -0.076784
     7  O   -0.276749
     8  C    0.063283
     9  O   -0.229709
    10  H    0.116457
    11  H    0.121254
    12  H    0.125923
    13  H    0.118985
    14  H    0.106060
    15  H    0.103569
    16  H    0.091713
    17  H    0.102476
    18  H    0.109062
    19  H    0.089485
 Sum of Mulliken charges =   0.00000

 Dipole moment (field-independent basis, Debye):
    X=             -0.6542    Y=              1.4457    Z=             -0.7739  Tot=              1.7655
 Quadrupole moment (field-independent basis, Debye-Ang):
   XX=            -48.9415   YY=            -52.1129   ZZ=            -56.4021
   XY=              3.7781   XZ=             -0.4987   YZ=             -1.9528

  Exact polarizability:  93.776   6.549  72.983  -0.140  -2.126  61.365
 Approx polarizability: 121.994  14.907 119.827   1.014  -1.288  95.337

                      1                      2                      3
                      A                      A                      A
 Frequencies --     61.6833               121.0874               190.5171
 Red. masses --      2.4531                 2.9157                 1.4894
 Frc consts  --      0.0055                 0.0252                 0.0319
 IR Inten    --      0.3015                 0.4502                 0.3054

                      4                      5                      6
                      A                      A                      A
 Frequencies --    251.8205               287.5109               395.3672
 Red. masses --      2.0212                 2.2751                 2.7614
 Frc consts  --      0.0755                 0.1108                 0.2543
 IR Inten    --      0.3574                 3.2914                 2.1645

                      7                      8                      9
                      A                      A                      A
 Frequencies --    442.2156               566.8459               619.0553
 Red. masses --      2.8207                 4.3580                 3.6793
 Frc consts  --      0.3250                 0.8250                 0.8308
 IR Inten    --      1.5372                 1.4877                 3.5614

                     10                     11                     12
                      A                      A                      A
 Frequencies --    649.6225               768.9294               781.5910
 Red. masses --      5.4385                 3.2777                 1.3697
 Frc consts  --      1.3522                 1.1418                 0.4930
 IR Inten    --      8.5484                 2.7271                 0.2723

                     13                     14                     15
                      A                      A                      A
 Frequencies --    817.0656               828.9835               862.1244
 Red. masses --      3.3227                 2.8988                 2.9155
 Frc consts  --      1.3069                 1.1737                 1.2767
 IR Inten    --     23.6107                20.2585                20.8949

                     16                     17                     18
                      A                      A                      A
 Frequencies --    866.9455               914.0181               925.5106
 Red. masses --      2.6200                 3.2540                 2.4551
 Frc consts  --      1.1602                 1.6017                 1.2390
 IR Inten    --     80.8944                24.8307                15.4771

                     19                     20                     21
                      A                      A                      A
 Frequencies --    942.9673               981.1793              1002.0893
 Red. masses --      2.0995                 5.1974                 3.5480
 Frc consts  --      1.0999                 2.9480                 2.0991
 IR Inten    --     10.0051                39.6291                 3.7761

                     22                     23                     24
                      A                      A                      A
 Frequencies --   1040.0652              1062.1951              1089.6031
 Red. masses --      1.6652                 1.7487                 1.6854
 Frc consts  --      1.0613                 1.1624                 1.1789
 IR Inten    --      6.0339                 9.0425                 4.0248

                     25                     26                     27
                      A                      A                      A
 Frequencies --   1113.9198              1188.1362              1203.3282
 Red. masses --      4.4985                 1.1753                 1.9399
 Frc consts  --      3.2887                 0.9775                 1.6550
 IR Inten    --     36.4740                 2.5430                 0.9229

                     28                     29                     30
                      A                      A                      A
 Frequencies --   1239.7753              1241.1836              1278.3892
 Red. masses --      1.4060                 1.3814                 1.2985
 Frc consts  --      1.2733                 1.2539                 1.2503
 IR Inten    --      0.2243                 1.0931                 1.5925

                     31                     32                     33
                      A                      A                      A
 Frequencies --   1282.5103              1331.0353              1340.3468
 Red. masses --      1.2102                 1.5409                 1.9772
 Frc consts  --      1.1728                 1.6084                 2.0928
 IR Inten    --      2.3368                21.6180                 5.0750

                     34                     35                     36
                      A                      A                      A
 Frequencies --   1350.8410              1356.3306              1408.3932
 Red. masses --      1.3875                 1.4426                 1.2176
 Frc consts  --      1.4917                 1.5636                 1.4230
 IR Inten    --      4.7216                 5.3344                 0.8181

                     37                     38                     39
                      A                      A                      A
 Frequencies --   1477.4332              1497.7288              1504.7435
 Red. masses --      1.0713                 1.0401                 1.0651
 Frc consts  --      1.3778                 1.3747                 1.4209
 IR Inten    --      2.8256                 4.9359                 2.6181

                     40                     41                     42
                      A                      A                      A
 Frequencies --   1511.8486              1689.7739              3013.3980
 Red. masses --      1.0896                 7.6424                 1.0641
 Frc consts  --      1.4674                12.8570                 5.6933
 IR Inten    --      0.6360                 3.8794                18.9451

                     43                     44                     45
                      A                      A                      A
 Frequencies --   3037.2289              3038.8746              3063.0006
 Red. masses --      1.0552                 1.0347                 1.0964
 Frc consts  --      5.7352                 5.6296                 6.0608
 IR Inten    --     59.2277                21.0062                12.1979

                     46                     47                     48
                      A                      A                      A
 Frequencies --   3087.8245              3108.7152              3114.2371
 Red. masses --      1.1111                 1.1013                 1.1027
 Frc consts  --      6.2419                 6.2709                 6.3009
 IR Inten    --     31.1170                37.6611                25.9863

                     49                     50                     51
                      A                      A                      A
 Frequencies --   3147.7563              3151.9456              3221.5743
 Red. masses --      1.0892                 1.0944                 1.0968
 Frc consts  --      6.3585                 6.4058                 6.7066
 IR Inten    --     48.5881                 8.7861                 5.1580

 - Thermochemistry -
 -------------------
 Temperature   298.150 Kelvin.  Pressure   1.00000 Atm.
 Atom     1 has atomic number  6 and mass  12.00000

 Molecular mass:   126.06808 amu.
 Principal axes and moments of inertia in atomic units:
                           1         2         3
     Eigenvalues --   509.646471464.547621521.26647
           X            0.99981   0.01537  -0.01239
           Y           -0.01718   0.98663  -0.16205
           Z            0.00974   0.16223   0.98671
 This molecule is an asymmetric top.
 Rotational symmetry number  1.
 Warning -- assumption of classical behavior for rotation
           may cause significant error
 Rotational temperatures (Kelvin)      0.16995     0.05914     0.05694
 Rotational constants (GHZ):           3.54116     1.23229     1.18634
 Zero-point vibrational energy     421499.8 (Joules/Mol)
                                  100.74087 (Kcal/Mol)
 Warning -- explicit consideration of   9 degrees of freedom as
           vibrations may cause significant error
 Vibrational temperatures:     88.75   174.22   274.11   362.31   413.66
          (Kelvin)            568.84   636.25   815.56   890.68   934.66
                             1106.32  1124.53  1175.57  1192.72  1240.40
                             1247.34  1315.07  1331.60  1356.72  1411.70
                             1441.78  1496.42  1528.26  1567.69  1602.68
                             1709.46  1731.32  1783.76  1785.78  1839.31
                             1845.24  1915.06  1928.46  1943.56  1951.45
                             2026.36  2125.69  2154.90  2164.99  2175.21
                             2431.20  4335.60  4369.89  4372.26  4406.97
                             4442.69  4472.74  4480.69  4528.91  4534.94
                             4635.12

 Zero-point correction=                           0.160541 (Hartree/Particle)
 Thermal correction to Energy=                    0.168348
 Thermal correction to Enthalpy=                  0.169292
 Thermal correction to Gibbs Free Energy=         0.127803
 Sum of electronic and zero-point Energies=           -423.021838
 Sum of electronic and thermal Energies=              -423.014031
 Sum of electronic and thermal Enthalpies=            -423.013087
 Sum of electronic and thermal Free Energies=         -423.054575

                     E (Thermal)             CV                S
                      KCal/Mol        Cal/Mol-Kelvin    Cal/Mol-Kelvin
 Total                  105.640             30.187             87.320
 Electronic               0.000              0.000              0.000
 Translational            0.889              2.981             40.409
 Rotational               0.889              2.981             28.520
 Vibrational            103.862             24.225             18.392
 Vibration     1          0.597              1.973              4.403
 Vibration     2          0.609              1.932              3.083
 Vibration     3          0.634              1.853              2.223
 Vibration     4          0.664              1.760              1.718
 Vibration     5          0.685              1.697              1.489
 Vibration     6          0.762              1.480              0.980
 Vibration     7          0.802              1.378              0.820
 Vibration     8          0.923              1.103              0.510
 Vibration     9          0.979              0.992              0.418

 Optimization completed.
    -- Stationary point found.
 Normal termination of Gaussian 09 at Tue Jan 28 13:23:27 2020.
