 Gaussian 09, Revision D.01,
 Gaussian 09:  ES64L-G09RevD.01 24-Apr-2013

 -----------------------------
 # b3lyp 6-31G(2df,p) opt Freq
 -----------------------------

 -----
 titel
 -----
 Symbolic Z-matrix:
 Charge =  0 Multiplicity = 1

 SCF Done:  E(RB3LYP) =  -423.197882596     A.U. after   14 cycles
 Optimization completed.
    -- Stationary point found.
 Normal termination of Gaussian 09 at Mon Jan 27 17:06:21 2020.

 ----------------------------------------------------------------------
 #N Geom=AllCheck Guess=TCheck SCRF=Check GenChk RB3LYP/6-31G(2df,p) Fr
 eq
 ----------------------------------------------------------------------

 Structure from the checkpoint file:  "/scratch/puck/g09_1c8984b0-dfea-43ff-ad37-1eaa44ae5b42/Gau-59740.chk"
 -----
 titel
 -----
 Charge =  0 Multiplicity = 1

                         Standard orientation:
 ---------------------------------------------------------------------
 Center     Atomic      Atomic             Coordinates (Angstroms)
 Number     Number       Type             X           Y           Z
 ---------------------------------------------------------------------
      1          6           0        2.395312    0.286471    0.589704
      2          6           0        1.021689   -0.100033    0.131785
      3          6           0        0.781520   -1.391560   -0.677516
      4          6           0       -0.781519   -1.391560   -0.677519
      5          6           0       -1.021688   -0.100035    0.131786
      6          6           0       -2.395311    0.286468    0.589706
      7          8           0        0.000001   -0.217101    1.192122
      8          6           0       -0.000001    0.879130   -0.490305
      9          8           0       -0.000003    1.977263   -0.956145
     10          1           0        3.047701    0.430276   -0.277037
     11          1           0        2.367825    1.219306    1.158295
     12          1           0        2.831155   -0.496549    1.218415
     13          1           0        1.217771   -1.343658   -1.679350
     14          1           0        1.200173   -2.256664   -0.157153
     15          1           0       -1.217768   -1.343656   -1.679354
     16          1           0       -1.200174   -2.256663   -0.157157
     17          1           0       -3.047696    0.430290   -0.277035
     18          1           0       -2.831161   -0.496558    1.218404
     19          1           0       -2.367822    1.219295    1.158310
 ---------------------------------------------------------------------

 SCF Done:  E(RB3LYP) =  -423.197882596     A.U. after    1 cycles

 The electronic state is 1-A.
 Alpha  occ. eigenvalues --  -19.15242 -19.14274 -10.26912 -10.24678 -10.24677
 Alpha  occ. eigenvalues --  -10.19535 -10.19517 -10.18768 -10.18768  -1.07083
 Alpha  occ. eigenvalues --   -1.03944  -0.80221  -0.78246  -0.73088  -0.67375
 Alpha  occ. eigenvalues --   -0.65044  -0.56690  -0.51274  -0.48183  -0.47619
 Alpha  occ. eigenvalues --   -0.46359  -0.45723  -0.43007  -0.41204  -0.40467
 Alpha  occ. eigenvalues --   -0.38914  -0.38064  -0.37007  -0.36078  -0.35260
 Alpha  occ. eigenvalues --   -0.34665  -0.33573  -0.26885  -0.23790
 Alpha virt. eigenvalues --   -0.00633   0.07816   0.09693   0.09707   0.12858
 Alpha virt. eigenvalues --    0.13465   0.14294   0.14829   0.15715   0.17118
 Alpha virt. eigenvalues --    0.17164   0.18299   0.19237   0.20752   0.21049

 Mulliken charges:
               1
     1  C   -0.498856
     2  C    0.298591
     3  C   -0.265755
     4  C   -0.265756
     5  C    0.298591
     6  C   -0.498856
     7  O   -0.366015
     8  C    0.363052
     9  O   -0.324926
    10  H    0.134772
    11  H    0.140456
    12  H    0.131296
    13  H    0.111281
    14  H    0.112161
    15  H    0.111282
    16  H    0.112161
    17  H    0.134772
    18  H    0.131295
    19  H    0.140456
 Sum of Mulliken charges =   0.00000

 Dipole moment (field-independent basis, Debye):
    X=              0.0000    Y=             -2.3111    Z=             -0.2816  Tot=              2.3282
 Quadrupole moment (field-independent basis, Debye-Ang):
   XX=            -47.5987   YY=            -57.5148   ZZ=            -55.3226
   XY=              0.0000   XZ=              0.0000   YZ=              3.5591

  Exact polarizability:  86.312   0.000  75.170   0.000  -0.680  65.391
 Approx polarizability: 110.913   0.000 114.563   0.000  -9.158 108.943

                      1                      2                      3
                      A                      A                      A
 Frequencies --    134.6367               164.2714               164.5184
 Red. masses --      3.0156                 1.0239                 1.2270
 Frc consts  --      0.0322                 0.0163                 0.0196
 IR Inten    --      4.2865                 0.0227                 0.5866

                      4                      5                      6
                      A                      A                      A
 Frequencies --    205.3835               223.7682               238.8256
 Red. masses --      2.6823                 2.6743                 2.1340
 Frc consts  --      0.0667                 0.0789                 0.0717
 IR Inten    --      1.3864                 1.4868                 1.5872

                      7                      8                      9
                      A                      A                      A
 Frequencies --    259.8961               365.6449               475.8290
 Red. masses --      2.7218                 2.6433                 4.0363
 Frc consts  --      0.1083                 0.2082                 0.5384
 IR Inten    --      2.3913                 1.2538                 6.6086

                     10                     11                     12
                      A                      A                      A
 Frequencies --    517.5308               603.0222               610.5750
 Red. masses --      2.9491                 4.0309                 4.1077
 Frc consts  --      0.4654                 0.8636                 0.9023
 IR Inten    --      5.5425                 1.2962                 2.6977

                     13                     14                     15
                      A                      A                      A
 Frequencies --    668.2359               752.5515               758.3178
 Red. masses --      3.5707                 5.1573                 6.4176
 Frc consts  --      0.9394                 1.7209                 2.1743
 IR Inten    --      0.3506                 5.2023                33.9719

                     16                     17                     18
                      A                      A                      A
 Frequencies --    838.8931               879.5057               891.7632
 Red. masses --      1.2732                 3.4577                 3.6712
 Frc consts  --      0.5279                 1.5758                 1.7201
 IR Inten    --      0.7497                62.5239                17.9629

                     19                     20                     21
                      A                      A                      A
 Frequencies --    899.3953               911.0105               956.9344
 Red. masses --      2.2954                 2.2235                 2.9906
 Frc consts  --      1.0940                 1.0873                 1.6135
 IR Inten    --      0.6292                 5.7918                 0.2664

                     22                     23                     24
                      A                      A                      A
 Frequencies --   1000.1592              1079.2377              1100.9926
 Red. masses --      1.5371                 1.3805                 2.1625
 Frc consts  --      0.9059                 0.9474                 1.5445
 IR Inten    --      9.3668                 8.5349                17.4424

                     25                     26                     27
                      A                      A                      A
 Frequencies --   1149.7804              1171.6959              1227.4334
 Red. masses --      2.0676                 2.1984                 1.9070
 Frc consts  --      1.6105                 1.7782                 1.6928
 IR Inten    --     23.2377                 0.0260                 4.5365

                     28                     29                     30
                      A                      A                      A
 Frequencies --   1229.0908              1251.9204              1253.3066
 Red. masses --      1.6866                 1.4006                 1.8462
 Frc consts  --      1.5012                 1.2934                 1.7086
 IR Inten    --      1.4806                 0.7119                 8.6679

                     31                     32                     33
                      A                      A                      A
 Frequencies --   1337.0717              1376.4170              1410.9338
 Red. masses --      2.0650                 1.8052                 1.3486
 Frc consts  --      2.1751                 2.0150                 1.5818
 IR Inten    --      2.2429                 3.5991                 9.7633

                     34                     35                     36
                      A                      A                      A
 Frequencies --   1427.0400              1473.3687              1479.7193
 Red. masses --      2.0884                 1.0751                 1.0593
 Frc consts  --      2.5057                 1.3750                 1.3666
 IR Inten    --      7.3977                 0.0040                 6.3112

                     37                     38                     39
                      A                      A                      A
 Frequencies --   1481.4388              1489.8404              1491.1209
 Red. masses --      1.0606                 1.0469                 1.0495
 Frc consts  --      1.3714                 1.3691                 1.3748
 IR Inten    --      0.2391                 0.7757                 7.5899

                     40                     41                     42
                      A                      A                      A
 Frequencies --   1497.8989              1908.0316              3042.6843
 Red. masses --      1.1341                12.8234                 1.0359
 Frc consts  --      1.4992                27.5057                 5.6502
 IR Inten    --      5.2537               284.2451                21.7180

                     43                     44                     45
                      A                      A                      A
 Frequencies --   3043.0455              3056.0180              3065.2458
 Red. masses --      1.0357                 1.0575                 1.0598
 Frc consts  --      5.6509                 5.8191                 5.8666
 IR Inten    --      3.7088                34.5956                23.1882

                     46                     47                     48
                      A                      A                      A
 Frequencies --   3099.8303              3111.7257              3112.3468
 Red. masses --      1.1074                 1.1011                 1.1007
 Frc consts  --      6.2696                 6.2816                 6.2817
 IR Inten    --      0.0373                10.4038                 0.0004

                     49                     50                     51
                      A                      A                      A
 Frequencies --   3117.6036              3125.9236              3126.1380
 Red. masses --      1.1061                 1.1017                 1.1016
 Frc consts  --      6.3342                 6.3426                 6.3429
 IR Inten    --     38.7444                 0.7602                20.4445

 - Thermochemistry -
 -------------------
 Temperature   298.150 Kelvin.  Pressure   1.00000 Atm.
 Atom     1 has atomic number  6 and mass  12.00000

 Molecular mass:   126.06808 amu.
 Principal axes and moments of inertia in atomic units:
                           1         2         3
     Eigenvalues --   751.466041072.960511317.50564
           X            1.00000   0.00000   0.00000
           Y            0.00000   0.99542   0.09559
           Z            0.00000  -0.09559   0.99542
 This molecule is an asymmetric top.
 Rotational symmetry number  1.
 Warning -- assumption of classical behavior for rotation
           may cause significant error
 Rotational temperatures (Kelvin)      0.11526     0.08072     0.06574
 Rotational constants (GHZ):           2.40163     1.68202     1.36982
 Zero-point vibrational energy     414252.3 (Joules/Mol)
                                   99.00866 (Kcal/Mol)
 Warning -- explicit consideration of  12 degrees of freedom as
           vibrations may cause significant error
 Vibrational temperatures:    193.71   236.35   236.71   295.50   321.95
          (Kelvin)            343.62   373.93   526.08   684.61   744.61
                              867.61   878.48   961.44  1082.75  1091.05
                             1206.98  1265.41  1283.05  1294.03  1310.74
                             1376.81  1439.00  1552.78  1584.08  1654.28
                             1685.81  1766.00  1768.39  1801.23  1803.23
                             1923.75  1980.35  2030.02  2053.19  2119.85
                             2128.98  2131.46  2143.55  2145.39  2155.14
                             2745.23  4377.74  4378.26  4396.92  4410.20
                             4459.96  4477.07  4477.97  4485.53  4497.50
                             4497.81

 Zero-point correction=                           0.157780 (Hartree/Particle)
 Thermal correction to Energy=                    0.166574
 Thermal correction to Enthalpy=                  0.167518
 Thermal correction to Gibbs Free Energy=         0.124828
 Sum of electronic and zero-point Energies=           -423.040102
 Sum of electronic and thermal Energies=              -423.031308
 Sum of electronic and thermal Enthalpies=            -423.030364
 Sum of electronic and thermal Free Energies=         -423.073054

                     E (Thermal)             CV                S
                      KCal/Mol        Cal/Mol-Kelvin    Cal/Mol-Kelvin
 Total                  104.527             33.370             89.849
 Electronic               0.000              0.000              0.000
 Translational            0.889              2.981             40.409
 Rotational               0.889              2.981             28.454
 Vibrational            102.749             27.409             20.987
 Vibration     1          0.613              1.919              2.879
 Vibration     2          0.623              1.886              2.500
 Vibration     3          0.623              1.886              2.497
 Vibration     4          0.640              1.832              2.084
 Vibration     5          0.649              1.805              1.928
 Vibration     6          0.657              1.781              1.812
 Vibration     7          0.668              1.746              1.662
 Vibration     8          0.739              1.543              1.098
 Vibration     9          0.832              1.304              0.721
 Vibration    10          0.873              1.211              0.616
 Vibration    11          0.961              1.025              0.444
 Vibration    12          0.970              1.009              0.432

 Optimization completed.
    -- Stationary point found.
 Normal termination of Gaussian 09 at Mon Jan 27 17:51:00 2020.
