 Gaussian 09, Revision D.01,
 Gaussian 09:  ES64L-G09RevD.01 24-Apr-2013

 -----------------------------
 # b3lyp 6-31G(2df,p) opt Freq
 -----------------------------

 -----
 titel
 -----
 Symbolic Z-matrix:
 Charge =  0 Multiplicity = 1

 SCF Done:  E(RB3LYP) =  -423.126718324     A.U. after   14 cycles
 Optimization completed.
    -- Stationary point found.
 Normal termination of Gaussian 09 at Tue Jan 28 02:08:03 2020.

 ----------------------------------------------------------------------
 #N Geom=AllCheck Guess=TCheck SCRF=Check GenChk RB3LYP/6-31G(2df,p) Fr
 eq
 ----------------------------------------------------------------------

 Structure from the checkpoint file:  "/scratch/puck/g09_2bebad7f-5254-4c9c-8acc-96433843af60/Gau-4789.chk"
 -----
 titel
 -----
 Charge =  0 Multiplicity = 1

                         Standard orientation:
 ---------------------------------------------------------------------
 Center     Atomic      Atomic             Coordinates (Angstroms)
 Number     Number       Type             X           Y           Z
 ---------------------------------------------------------------------
      1          6           0        2.888229    0.961608   -0.095814
      2          6           0        1.696402    0.160349    0.356647
      3          8           0        1.471017   -1.094571   -0.315973
      4          6           0        0.523097   -0.050178   -0.495677
      5          6           0       -0.882688   -0.301406    0.056832
      6          6           0       -1.538720   -1.452738   -0.728092
      7          8           0       -0.742054   -0.655745    1.430272
      8          6           0       -1.668640    0.936100   -0.079961
      9          6           0       -2.325403    1.937803   -0.182576
     10          1           0        2.960070    0.976640   -1.186789
     11          1           0        2.814254    1.993056    0.265228
     12          1           0        3.813280    0.532129    0.302711
     13          1           0        1.533649    0.100758    1.430380
     14          1           0        0.512278    0.391641   -1.493113
     15          1           0       -2.543234   -1.652273   -0.342574
     16          1           0       -1.626783   -1.205304   -1.789757
     17          1           0       -0.921140   -2.346407   -0.614555
     18          1           0       -1.626574   -0.763276    1.794884
     19          1           0       -2.901165    2.826347   -0.268954
 ---------------------------------------------------------------------

 SCF Done:  E(RB3LYP) =  -423.126718324     A.U. after    1 cycles

 The electronic state is 1-A.
 Alpha  occ. eigenvalues --  -19.14656 -19.14366 -10.26834 -10.23459 -10.23099
 Alpha  occ. eigenvalues --  -10.18706 -10.18332 -10.18261 -10.17981  -1.06788
 Alpha  occ. eigenvalues --   -1.02940  -0.79709  -0.74185  -0.73300  -0.67923
 Alpha  occ. eigenvalues --   -0.60986  -0.58936  -0.56076  -0.51134  -0.49395
 Alpha  occ. eigenvalues --   -0.45720  -0.44970  -0.42818  -0.40703  -0.40091
 Alpha  occ. eigenvalues --   -0.39231  -0.36504  -0.36360  -0.35398  -0.29914
 Alpha  occ. eigenvalues --   -0.28870  -0.27895  -0.27554  -0.25572
 Alpha virt. eigenvalues --    0.03093   0.04529   0.08145   0.10968   0.11628
 Alpha virt. eigenvalues --    0.12095   0.12963   0.13755   0.15814   0.16479
 Alpha virt. eigenvalues --    0.17332   0.18243   0.18594   0.18715   0.21906

 Mulliken charges:
               1
     1  C   -0.425186
     2  C    0.082914
     3  O   -0.273160
     4  C    0.056153
     5  C    0.136850
     6  C   -0.419126
     7  O   -0.445029
     8  C    0.322269
     9  C   -0.496424
    10  H    0.124245
    11  H    0.124840
    12  H    0.129446
    13  H    0.114387
    14  H    0.095151
    15  H    0.113006
    16  H    0.125719
    17  H    0.147146
    18  H    0.285194
    19  H    0.201605
 Sum of Mulliken charges =   0.00000

 Dipole moment (field-independent basis, Debye):
    X=             -1.4856    Y=              1.4152    Z=             -0.1043  Tot=              2.0545
 Quadrupole moment (field-independent basis, Debye-Ang):
   XX=            -48.0324   YY=            -52.3315   ZZ=            -52.3055
   XY=              2.4701   XZ=             -0.7729   YZ=             -0.9025

  Exact polarizability:  89.746  -5.915  79.895   3.360  -1.218  63.861
 Approx polarizability: 116.024 -19.600 125.062   6.379  -3.612  97.006

                      1                      2                      3
                      A                      A                      A
 Frequencies --     55.2816               112.1955               170.5298
 Red. masses --      3.8208                 3.3966                 2.2044
 Frc consts  --      0.0069                 0.0252                 0.0378
 IR Inten    --      4.5170                 1.8555                 4.8114

                      4                      5                      6
                      A                      A                      A
 Frequencies --    186.3788               196.9298               212.6071
 Red. masses --      2.0570                 1.3917                 1.7646
 Frc consts  --      0.0421                 0.0318                 0.0470
 IR Inten    --      3.2203                16.9954                30.0198

                      7                      8                      9
                      A                      A                      A
 Frequencies --    226.9088               261.2005               298.5924
 Red. masses --      1.5080                 1.2811                 3.5090
 Frc consts  --      0.0457                 0.0515                 0.1843
 IR Inten    --     48.7022                 0.5802                 2.6611

                     10                     11                     12
                      A                      A                      A
 Frequencies --    387.0261               404.2775               434.0855
 Red. masses --      2.8505                 3.4951                 4.3687
 Frc consts  --      0.2516                 0.3366                 0.4850
 IR Inten    --      4.6941                 5.1827                 4.7817

                     13                     14                     15
                      A                      A                      A
 Frequencies --    503.4437               568.8038               591.9131
 Red. masses --      5.6148                 5.4805                 4.4756
 Frc consts  --      0.8385                 1.0447                 0.9239
 IR Inten    --      7.2023                15.3429                11.2661

                     16                     17                     18
                      A                      A                      A
 Frequencies --    635.2860               671.1804               775.0174
 Red. masses --      1.2331                 1.2586                 4.4096
 Frc consts  --      0.2932                 0.3340                 1.5605
 IR Inten    --     44.3121                35.7682                17.7167

                     19                     20                     21
                      A                      A                      A
 Frequencies --    796.6823               867.3799               926.0030
 Red. masses --      4.0169                 2.1366                 2.2880
 Frc consts  --      1.5022                 0.9471                 1.1559
 IR Inten    --     13.7423                 9.1409                18.7933

                     22                     23                     24
                      A                      A                      A
 Frequencies --    969.3278              1004.1414              1033.8526
 Red. masses --      2.0593                 2.0389                 1.6604
 Frc consts  --      1.1400                 1.2112                 1.0457
 IR Inten    --     10.7127                27.3624                30.0275

                     25                     26                     27
                      A                      A                      A
 Frequencies --   1068.1632              1112.4592              1157.0609
 Red. masses --      1.7949                 2.2158                 2.4168
 Frc consts  --      1.2066                 1.6157                 1.9064
 IR Inten    --     12.2068                 3.3498                59.4288

                     28                     29                     30
                      A                      A                      A
 Frequencies --   1170.4822              1176.3741              1194.9750
 Red. masses --      1.5689                 1.8281                 2.7042
 Frc consts  --      1.2664                 1.4905                 2.2752
 IR Inten    --      3.1923                23.5739                45.4326

                     31                     32                     33
                      A                      A                      A
 Frequencies --   1288.5219              1334.5539              1378.3351
 Red. masses --      1.4589                 1.2882                 1.4003
 Frc consts  --      1.4271                 1.3517                 1.5674
 IR Inten    --     10.9895                20.9819                23.6231

                     34                     35                     36
                      A                      A                      A
 Frequencies --   1396.4769              1410.8936              1472.4616
 Red. masses --      1.2276                 1.2777                 1.2737
 Frc consts  --      1.4105                 1.4985                 1.6271
 IR Inten    --      6.1584                 7.9476                 6.6243

                     37                     38                     39
                      A                      A                      A
 Frequencies --   1485.7414              1488.0037              1492.7357
 Red. masses --      1.0518                 1.0858                 1.0667
 Frc consts  --      1.3680                 1.4165                 1.4005
 IR Inten    --      1.2091                 5.2790                 9.4253

                     40                     41                     42
                      A                      A                      A
 Frequencies --   1512.9404              2229.4598              3036.2421
 Red. masses --      1.9555                 5.8985                 1.0354
 Frc consts  --      2.6372                17.2739                 5.6236
 IR Inten    --      4.9844                 0.8215                20.5042

                     43                     44                     45
                      A                      A                      A
 Frequencies --   3042.4259              3101.3231              3101.7417
 Red. masses --      1.0343                 1.0890                 1.0995
 Frc consts  --      5.6407                 6.1712                 6.2325
 IR Inten    --     13.9272                 7.9086                21.4483

                     46                     47                     48
                      A                      A                      A
 Frequencies --   3115.4373              3115.8338              3139.6559
 Red. masses --      1.1014                 1.1000                 1.1030
 Frc consts  --      6.2985                 6.2921                 6.4061
 IR Inten    --     21.9056                10.8157                10.0817

                     49                     50                     51
                      A                      A                      A
 Frequencies --   3150.8891              3499.6647              3821.5964
 Red. masses --      1.0888                 1.1624                 1.0664
 Frc consts  --      6.3689                 8.3882                 9.1763
 IR Inten    --     18.7835                64.5037                25.5795

 - Thermochemistry -
 -------------------
 Temperature   298.150 Kelvin.  Pressure   1.00000 Atm.
 Atom     1 has atomic number  6 and mass  12.00000

 Molecular mass:   126.06808 amu.
 Principal axes and moments of inertia in atomic units:
                           1         2         3
     Eigenvalues --   718.906351542.620911842.56523
           X            0.99859   0.05267   0.00682
           Y           -0.05277   0.99851   0.01399
           Z           -0.00608  -0.01433   0.99988
 This molecule is an asymmetric top.
 Rotational symmetry number  1.
 Warning -- assumption of classical behavior for rotation
           may cause significant error
 Rotational temperatures (Kelvin)      0.12048     0.05615     0.04701
 Rotational constants (GHZ):           2.51040     1.16992     0.97947
 Zero-point vibrational energy     405435.3 (Joules/Mol)
                                   96.90137 (Kcal/Mol)
 Warning -- explicit consideration of  15 degrees of freedom as
           vibrations may cause significant error
 Vibrational temperatures:     79.54   161.42   245.35   268.16   283.34
          (Kelvin)            305.89   326.47   375.81   429.61   556.84
                              581.66   624.55   724.34   818.38   851.63
                              914.03   965.68  1115.08  1146.25  1247.96
                             1332.31  1394.64  1444.73  1487.48  1536.85
                             1600.58  1664.75  1684.06  1692.54  1719.30
                             1853.89  1920.12  1983.11  2009.22  2029.96
                             2118.54  2137.65  2140.90  2147.71  2176.78
                             3207.69  4368.47  4377.37  4462.11  4462.71
                             4482.41  4482.98  4517.26  4533.42  5035.23
                             5498.42

 Zero-point correction=                           0.154422 (Hartree/Particle)
 Thermal correction to Energy=                    0.164817
 Thermal correction to Enthalpy=                  0.165762
 Thermal correction to Gibbs Free Energy=         0.119263
 Sum of electronic and zero-point Energies=           -422.972296
 Sum of electronic and thermal Energies=              -422.961901
 Sum of electronic and thermal Enthalpies=            -422.960957
 Sum of electronic and thermal Free Energies=         -423.007455

                     E (Thermal)             CV                S
                      KCal/Mol        Cal/Mol-Kelvin    Cal/Mol-Kelvin
 Total                  103.424             38.044             97.865
 Electronic               0.000              0.000              0.000
 Translational            0.889              2.981             40.409
 Rotational               0.889              2.981             29.104
 Vibrational            101.647             32.082             28.352
 Vibration     1          0.596              1.975              4.619
 Vibration     2          0.607              1.939              3.231
 Vibration     3          0.626              1.879              2.430
 Vibration     4          0.632              1.858              2.264
 Vibration     5          0.636              1.844              2.162
 Vibration     6          0.644              1.822              2.021
 Vibration     7          0.651              1.800              1.903
 Vibration     8          0.669              1.744              1.654
 Vibration     9          0.692              1.676              1.425
 Vibration    10          0.755              1.498              1.012
 Vibration    11          0.769              1.461              0.947
 Vibration    12          0.795              1.396              0.845
 Vibration    13          0.859              1.242              0.650
 Vibration    14          0.925              1.099              0.507
 Vibration    15          0.949              1.049              0.464

 Normal termination of Gaussian 09 at Tue Jan 28 02:46:17 2020.
