 Gaussian 09, Revision D.01,
 Gaussian 09:  ES64L-G09RevD.01 24-Apr-2013

 -----------------------------
 # b3lyp 6-31G(2df,p) opt Freq
 -----------------------------

 -----
 titel
 -----
 Symbolic Z-matrix:
 Charge =  0 Multiplicity = 1

 SCF Done:  E(RB3LYP) =  -423.146520505     A.U. after   13 cycles
 Optimization completed.
    -- Stationary point found.
 Normal termination of Gaussian 09 at Tue Jan 28 02:01:24 2020.

 ----------------------------------------------------------------------
 #N Geom=AllCheck Guess=TCheck SCRF=Check GenChk RB3LYP/6-31G(2df,p) Fr
 eq
 ----------------------------------------------------------------------

 Structure from the checkpoint file:  "/scratch/puck/g09_353fc37c-30fc-45c8-b566-f69066efaab8/Gau-170391.chk"
 -----
 titel
 -----
 Charge =  0 Multiplicity = 1

                         Standard orientation:
 ---------------------------------------------------------------------
 Center     Atomic      Atomic             Coordinates (Angstroms)
 Number     Number       Type             X           Y           Z
 ---------------------------------------------------------------------
      1          8           0        2.290856   -0.836192   -0.830145
      2          6           0        1.765411    0.333700   -0.275604
      3          6           0        1.503795    0.403217    1.212408
      4          6           0        0.355763    0.272726    0.235726
      5          6           0       -0.625243    1.426433    0.012973
      6          8           0       -1.709839    0.899052   -0.748548
      7          6           0       -1.739335   -0.494864   -0.569021
      8          6           0       -1.769339   -1.051537    0.831038
      9          6           0       -0.460847   -0.974467    0.055327
     10          1           0        3.207985   -0.915225   -0.547993
     11          1           0        2.071093    1.254140   -0.776133
     12          1           0        1.756665   -0.475979    1.796125
     13          1           0        1.652490    1.350243    1.723688
     14          1           0       -0.989409    1.811545    0.977484
     15          1           0       -0.192932    2.266285   -0.541788
     16          1           0       -2.245610   -0.997009   -1.384517
     17          1           0       -1.928968   -0.375459    1.664586
     18          1           0       -2.205088   -2.036214    0.963566
     19          1           0        0.044398   -1.876452   -0.262565
 ---------------------------------------------------------------------

 SCF Done:  E(RB3LYP) =  -423.146520505     A.U. after    1 cycles

 The electronic state is 1-A.
 Alpha  occ. eigenvalues --  -19.14677 -19.13617 -10.23642 -10.22749 -10.22714
 Alpha  occ. eigenvalues --  -10.19928 -10.18580 -10.18496 -10.17953  -1.03865
 Alpha  occ. eigenvalues --   -1.03080  -0.86171  -0.82964  -0.70569  -0.63034
 Alpha  occ. eigenvalues --   -0.60844  -0.57806  -0.54828  -0.51834  -0.51143
 Alpha  occ. eigenvalues --   -0.47630  -0.45632  -0.43503  -0.41707  -0.39725
 Alpha  occ. eigenvalues --   -0.38794  -0.38063  -0.34384  -0.33414  -0.31739
 Alpha  occ. eigenvalues --   -0.29992  -0.26388  -0.25644  -0.22438
 Alpha virt. eigenvalues --    0.07601   0.09427   0.10134   0.10341   0.12087
 Alpha virt. eigenvalues --    0.13200   0.14507   0.16044   0.16775   0.17656
 Alpha virt. eigenvalues --    0.19013   0.19932   0.20261   0.22419   0.23498

 Mulliken charges:
               1
     1  O   -0.417079
     2  C    0.044335
     3  C   -0.388550
     4  C    0.320486
     5  C   -0.169089
     6  O   -0.257867
     7  C    0.123282
     8  C   -0.347195
     9  C   -0.150256
    10  H    0.289674
    11  H    0.085725
    12  H    0.116815
    13  H    0.108936
    14  H    0.096893
    15  H    0.108370
    16  H    0.101400
    17  H    0.115834
    18  H    0.111893
    19  H    0.106393
 Sum of Mulliken charges =   0.00000

 Dipole moment (field-independent basis, Debye):
    X=              1.9620    Y=             -0.1498    Z=              1.3722  Tot=              2.3989
 Quadrupole moment (field-independent basis, Debye-Ang):
   XX=            -49.3730   YY=            -51.0622   ZZ=            -54.8087
   XY=              3.1594   XZ=              0.0295   YZ=              0.7210

  Exact polarizability:  84.431   4.057  73.804  -0.030   0.584  67.275
 Approx polarizability: 113.689   1.906 106.893   1.014   0.492 103.933

                      1                      2                      3
                      A                      A                      A
 Frequencies --    107.4022               161.8647               207.7150
 Red. masses --      3.7769                 3.8166                 3.6202
 Frc consts  --      0.0257                 0.0589                 0.0920
 IR Inten    --      0.0764                 3.1418                 4.4100

                      4                      5                      6
                      A                      A                      A
 Frequencies --    265.3040               282.6880               358.5228
 Red. masses --      2.2830                 1.2262                 2.5542
 Frc consts  --      0.0947                 0.0577                 0.1934
 IR Inten    --      9.3817                86.9248                10.4818

                      7                      8                      9
                      A                      A                      A
 Frequencies --    440.0565               443.4843               517.6051
 Red. masses --      2.6215                 2.3077                 4.1050
 Frc consts  --      0.2991                 0.2674                 0.6480
 IR Inten    --      5.3166                 4.1947                 2.3353

                     10                     11                     12
                      A                      A                      A
 Frequencies --    547.1007               722.1866               740.9042
 Red. masses --      3.4150                 4.1027                 2.2271
 Frc consts  --      0.6022                 1.2607                 0.7203
 IR Inten    --      2.3636                 3.4294                 7.9291

                     13                     14                     15
                      A                      A                      A
 Frequencies --    802.8767               813.5494               836.7220
 Red. masses --      1.8632                 2.0181                 2.0479
 Frc consts  --      0.7076                 0.7870                 0.8447
 IR Inten    --     19.1997                10.4697                 8.8678

                     16                     17                     18
                      A                      A                      A
 Frequencies --    882.4564               916.1625               954.2287
 Red. masses --      1.8051                 2.0287                 2.6312
 Frc consts  --      0.8282                 1.0033                 1.4116
 IR Inten    --      7.7496                11.0426                 6.6274

                     19                     20                     21
                      A                      A                      A
 Frequencies --    976.7753              1010.8329              1025.7320
 Red. masses --      2.7610                 1.8698                 1.5550
 Frc consts  --      1.5520                 1.1257                 0.9639
 IR Inten    --     24.1036                10.3886                13.0777

                     22                     23                     24
                      A                      A                      A
 Frequencies --   1030.2537              1039.0124              1062.0792
 Red. masses --      1.9033                 1.3889                 1.6935
 Frc consts  --      1.1903                 0.8834                 1.1255
 IR Inten    --      8.0229                 2.1717                 9.7003

                     25                     26                     27
                      A                      A                      A
 Frequencies --   1080.5988              1105.3641              1110.7854
 Red. masses --      1.9273                 1.2836                 1.7439
 Frc consts  --      1.3260                 0.9241                 1.2677
 IR Inten    --      8.9886                 4.6063                 7.5991

                     28                     29                     30
                      A                      A                      A
 Frequencies --   1159.5824              1174.9060              1198.9152
 Red. masses --      2.6065                 3.0248                 1.6673
 Frc consts  --      2.0650                 2.4601                 1.4120
 IR Inten    --     49.1595                79.4525                 7.2913

                     31                     32                     33
                      A                      A                      A
 Frequencies --   1224.9011              1256.3742              1274.1250
 Red. masses --      1.2058                 1.8208                 1.9958
 Frc consts  --      1.0659                 1.6934                 1.9090
 IR Inten    --      7.2254                18.4754                 4.6181

                     34                     35                     36
                      A                      A                      A
 Frequencies --   1301.0196              1336.5366              1382.1798
 Red. masses --      1.3024                 1.3898                 1.8091
 Frc consts  --      1.2989                 1.4627                 2.0363
 IR Inten    --     50.2986                 8.0196                14.3960

                     37                     38                     39
                      A                      A                      A
 Frequencies --   1401.6795              1428.4739              1480.4158
 Red. masses --      1.4386                 1.4175                 1.2625
 Frc consts  --      1.6653                 1.7042                 1.6302
 IR Inten    --      4.3730                 6.8355                 7.2413

                     40                     41                     42
                      A                      A                      A
 Frequencies --   1489.6866              1524.3217              2984.5053
 Red. masses --      1.9229                 1.0999                 1.0694
 Frc consts  --      2.5142                 1.5058                 5.6121
 IR Inten    --     12.4609                 1.7644                54.2751

                     43                     44                     45
                      A                      A                      A
 Frequencies --   3059.5634              3083.5963              3117.0717
 Red. masses --      1.0945                 1.0868                 1.0550
 Frc consts  --      6.0364                 6.0887                 6.0394
 IR Inten    --     27.0979                42.1424                12.7773

                     46                     47                     48
                      A                      A                      A
 Frequencies --   3129.5855              3185.5033              3205.5169
 Red. masses --      1.0540                 1.0920                 1.0970
 Frc consts  --      6.0824                 6.5287                 6.6411
 IR Inten    --     12.4494                16.4399                 0.1068

                     49                     50                     51
                      A                      A                      A
 Frequencies --   3208.8278              3218.1403              3807.1756
 Red. masses --      1.1158                 1.1115                 1.0663
 Frc consts  --      6.7690                 6.7819                 9.1064
 IR Inten    --      7.8959                13.3411                23.5396

 - Thermochemistry -
 -------------------
 Temperature   298.150 Kelvin.  Pressure   1.00000 Atm.
 Atom     1 has atomic number  8 and mass  15.99491

 Molecular mass:   126.06808 amu.
 Principal axes and moments of inertia in atomic units:
                           1         2         3
     Eigenvalues --   597.935501352.685871483.25623
           X            0.99958   0.02906  -0.00118
           Y           -0.02902   0.99933   0.02222
           Z            0.00183  -0.02217   0.99975
 This molecule is an asymmetric top.
 Rotational symmetry number  1.
 Warning -- assumption of classical behavior for rotation
           may cause significant error
 Rotational temperatures (Kelvin)      0.14485     0.06403     0.05839
 Rotational constants (GHZ):           3.01829     1.33419     1.21674
 Zero-point vibrational energy     419140.8 (Joules/Mol)
                                  100.17705 (Kcal/Mol)
 Warning -- explicit consideration of  10 degrees of freedom as
           vibrations may cause significant error
 Vibrational temperatures:    154.53   232.89   298.86   381.71   406.72
          (Kelvin)            515.83   633.14   638.07   744.72   787.15
                             1039.06  1065.99  1155.16  1170.51  1203.85
                             1269.66  1318.15  1372.92  1405.36  1454.36
                             1475.80  1482.30  1494.91  1528.09  1554.74
                             1590.37  1598.17  1668.38  1690.43  1724.97
                             1762.36  1807.64  1833.18  1871.87  1922.98
                             1988.65  2016.70  2055.25  2129.99  2143.32
                             2193.16  4294.03  4402.02  4436.60  4484.77
                             4502.77  4583.22  4612.02  4616.78  4630.18
                             5477.67

 Zero-point correction=                           0.159642 (Hartree/Particle)
 Thermal correction to Energy=                    0.167577
 Thermal correction to Enthalpy=                  0.168521
 Thermal correction to Gibbs Free Energy=         0.127392
 Sum of electronic and zero-point Energies=           -422.986878
 Sum of electronic and thermal Energies=              -422.978943
 Sum of electronic and thermal Enthalpies=            -422.977999
 Sum of electronic and thermal Free Energies=         -423.019128

                     E (Thermal)             CV                S
                      KCal/Mol        Cal/Mol-Kelvin    Cal/Mol-Kelvin
 Total                  105.156             31.537             86.563
 Electronic               0.000              0.000              0.000
 Translational            0.889              2.981             40.409
 Rotational               0.889              2.981             28.575
 Vibrational            103.379             25.576             17.580
 Vibration     1          0.606              1.943              3.315
 Vibration     2          0.622              1.889              2.528
 Vibration     3          0.641              1.829              2.064
 Vibration     4          0.671              1.737              1.627
 Vibration     5          0.682              1.706              1.517
 Vibration     6          0.733              1.558              1.129
 Vibration     7          0.800              1.383              0.826
 Vibration     8          0.803              1.375              0.816
 Vibration     9          0.873              1.211              0.616
 Vibration    10          0.902              1.146              0.550

 Normal termination of Gaussian 09 at Tue Jan 28 02:36:45 2020.
