 Gaussian 09, Revision D.01,
 Gaussian 09:  ES64L-G09RevD.01 24-Apr-2013

 -----------------------------
 # b3lyp 6-31G(2df,p) opt Freq
 -----------------------------

 -----
 titel
 -----
 Symbolic Z-matrix:
 Charge =  0 Multiplicity = 1

 SCF Done:  E(RB3LYP) =  -423.174972636     A.U. after   14 cycles
 Optimization completed.
    -- Stationary point found.
 Normal termination of Gaussian 09 at Tue Jan 28 03:56:07 2020.

 ----------------------------------------------------------------------
 #N Geom=AllCheck Guess=TCheck SCRF=Check GenChk RB3LYP/6-31G(2df,p) Fr
 eq
 ----------------------------------------------------------------------

 Structure from the checkpoint file:  "/scratch/puck/g09_ba1b6033-55cf-4c3d-b27d-e694b24cc3d3/Gau-192770.chk"
 -----
 titel
 -----
 Charge =  0 Multiplicity = 1

                         Standard orientation:
 ---------------------------------------------------------------------
 Center     Atomic      Atomic             Coordinates (Angstroms)
 Number     Number       Type             X           Y           Z
 ---------------------------------------------------------------------
      1          8           0        0.618365   -1.520202    1.233208
      2          6           0        0.217276   -1.156724   -0.079811
      3          6           0        1.418567   -0.602911   -0.869288
      4          6           0        1.802927    0.760211   -0.329978
      5          6           0        0.874698    1.632942    0.075158
      6          6           0       -0.573366    1.314936   -0.017904
      7          6           0       -1.323683    0.604105    1.108967
      8          6           0       -0.948030   -0.143100   -0.126921
      9          8           0       -2.013465   -0.506809   -0.964266
     10          1           0        1.164035   -0.801337    1.574228
     11          1           0       -0.155584   -2.079435   -0.534610
     12          1           0        2.254619   -1.305097   -0.797672
     13          1           0        1.158953   -0.532105   -1.936143
     14          1           0        2.857628    1.013850   -0.271747
     15          1           0        1.162618    2.605811    0.467390
     16          1           0       -1.182099    2.016283   -0.583990
     17          1           0       -0.801607    0.363595    2.027228
     18          1           0       -2.372635    0.853812    1.219916
     19          1           0       -1.735466   -0.376058   -1.877472
 ---------------------------------------------------------------------

 SCF Done:  E(RB3LYP) =  -423.174972636     A.U. after    1 cycles

 The electronic state is 1-A.
 Alpha  occ. eigenvalues --  -19.14313 -19.13252 -10.23375 -10.23168 -10.19226
 Alpha  occ. eigenvalues --  -10.19043 -10.18948 -10.18913 -10.18400  -1.03133
 Alpha  occ. eigenvalues --   -1.01416  -0.86143  -0.79112  -0.73266  -0.64895
 Alpha  occ. eigenvalues --   -0.61515  -0.57739  -0.53724  -0.52836  -0.47315
 Alpha  occ. eigenvalues --   -0.46853  -0.45990  -0.45117  -0.41656  -0.39771
 Alpha  occ. eigenvalues --   -0.37749  -0.37021  -0.34780  -0.33532  -0.32556
 Alpha  occ. eigenvalues --   -0.30475  -0.26860  -0.25269  -0.23897
 Alpha virt. eigenvalues --    0.00503   0.07297   0.08617   0.10435   0.11606
 Alpha virt. eigenvalues --    0.12650   0.14786   0.16226   0.16568   0.17734
 Alpha virt. eigenvalues --    0.18036   0.19110   0.21846   0.22458   0.23088

 Mulliken charges:
               1
     1  O   -0.427490
     2  C    0.039105
     3  C   -0.280695
     4  C   -0.105337
     5  C   -0.054714
     6  C   -0.150726
     7  C   -0.318817
     8  C    0.389725
     9  O   -0.469267
    10  H    0.278916
    11  H    0.092285
    12  H    0.109291
    13  H    0.102091
    14  H    0.092980
    15  H    0.091510
    16  H    0.093825
    17  H    0.116658
    18  H    0.121819
    19  H    0.278840
 Sum of Mulliken charges =   0.00000

 Dipole moment (field-independent basis, Debye):
    X=              1.3818    Y=              1.6911    Z=             -1.3625  Tot=              2.5740
 Quadrupole moment (field-independent basis, Debye-Ang):
   XX=            -54.0589   YY=            -55.8042   ZZ=            -49.9253
   XY=             -1.3766   XZ=              1.1475   YZ=              3.2547

  Exact polarizability:  83.667  -2.905  75.778  -4.069   5.744  68.126
 Approx polarizability: 121.530  -7.391 115.418  -6.477   8.685 106.355

                      1                      2                      3
                      A                      A                      A
 Frequencies --     93.9412               191.0714               257.0925
 Red. masses --      4.2323                 2.5140                 3.9870
 Frc consts  --      0.0220                 0.0541                 0.1553
 IR Inten    --      0.3129                 2.0437                 4.1950

                      4                      5                      6
                      A                      A                      A
 Frequencies --    284.4312               341.9854               345.9865
 Red. masses --      1.1769                 4.5458                 2.0337
 Frc consts  --      0.0561                 0.3132                 0.1434
 IR Inten    --     70.3202                 2.6696                28.0380

                      7                      8                      9
                      A                      A                      A
 Frequencies --    391.7782               415.2754               463.2274
 Red. masses --      1.4491                 2.1328                 3.1119
 Frc consts  --      0.1311                 0.2167                 0.3934
 IR Inten    --     22.8996                30.6257                10.4695

                     10                     11                     12
                      A                      A                      A
 Frequencies --    509.8508               522.2675               593.2872
 Red. masses --      2.9941                 3.7609                 3.7277
 Frc consts  --      0.4586                 0.6044                 0.7731
 IR Inten    --      4.9027                 6.4644                 3.9962

                     13                     14                     15
                      A                      A                      A
 Frequencies --    683.4888               729.1748               809.3577
 Red. masses --      3.5631                 1.4306                 1.8823
 Frc consts  --      0.9807                 0.4482                 0.7265
 IR Inten    --      5.5803                25.0151                 4.8502

                     16                     17                     18
                      A                      A                      A
 Frequencies --    867.2087               877.5769               918.7068
 Red. masses --      2.5022                 2.4087                 1.9731
 Frc consts  --      1.1087                 1.0930                 0.9812
 IR Inten    --     29.4720                 7.1394                 4.1761

                     19                     20                     21
                      A                      A                      A
 Frequencies --    931.0001               955.1342               975.1011
 Red. masses --      2.1543                 2.7818                 3.1483
 Frc consts  --      1.1002                 1.4952                 1.7637
 IR Inten    --      8.3462                25.9363                11.4966

                     22                     23                     24
                      A                      A                      A
 Frequencies --    996.3707              1014.7350              1054.2335
 Red. masses --      1.2341                 1.9141                 1.3697
 Frc consts  --      0.7218                 1.1612                 0.8969
 IR Inten    --      0.9684                 3.2305                 8.0277

                     25                     26                     27
                      A                      A                      A
 Frequencies --   1076.1552              1100.4042              1106.9117
 Red. masses --      2.0614                 1.8005                 1.7686
 Frc consts  --      1.4066                 1.2845                 1.2768
 IR Inten    --     51.3075                 6.8192                 8.9971

                     28                     29                     30
                      A                      A                      A
 Frequencies --   1187.3722              1197.8986              1213.4241
 Red. masses --      1.1595                 1.1337                 2.2889
 Frc consts  --      0.9631                 0.9585                 1.9856
 IR Inten    --     11.0060                41.9730                56.2535

                     31                     32                     33
                      A                      A                      A
 Frequencies --   1262.7121              1273.6059              1318.1562
 Red. masses --      1.4640                 1.5592                 1.5067
 Frc consts  --      1.3753                 1.4901                 1.5425
 IR Inten    --      1.7166                28.6798                32.0597

                     34                     35                     36
                      A                      A                      A
 Frequencies --   1329.6473              1357.4779              1405.6037
 Red. masses --      1.7912                 1.6147                 1.4724
 Frc consts  --      1.8658                 1.7531                 1.7140
 IR Inten    --     27.8425                 8.3437                 0.2247

                     37                     38                     39
                      A                      A                      A
 Frequencies --   1416.7883              1431.3671              1474.8689
 Red. masses --      1.4717                 1.3645                 1.0992
 Frc consts  --      1.7405                 1.6471                 1.4088
 IR Inten    --     27.1595                22.4615                 5.9102

                     40                     41                     42
                      A                      A                      A
 Frequencies --   1487.5885              1692.4465              2998.0141
 Red. masses --      1.6366                 6.5182                 1.0702
 Frc consts  --      2.1338                11.0004                 5.6676
 IR Inten    --     11.2073                 3.7124                29.4830

                     43                     44                     45
                      A                      A                      A
 Frequencies --   3069.3141              3079.5022              3131.7457
 Red. masses --      1.0869                 1.0904                 1.0856
 Frc consts  --      6.0331                 6.0927                 6.2735
 IR Inten    --     26.8774                25.7358                 9.0477

                     46                     47                     48
                      A                      A                      A
 Frequencies --   3142.9909              3145.9888              3173.0174
 Red. masses --      1.0559                 1.0835                 1.0965
 Frc consts  --      6.1456                 6.3181                 6.5045
 IR Inten    --      7.7054                12.2036                30.9776

                     49                     50                     51
                      A                      A                      A
 Frequencies --   3236.7283              3779.9510              3795.6744
 Red. masses --      1.1175                 1.0655                 1.0662
 Frc consts  --      6.8976                 8.9698                 9.0505
 IR Inten    --      3.2402                14.8193                13.1410

 - Thermochemistry -
 -------------------
 Temperature   298.150 Kelvin.  Pressure   1.00000 Atm.
 Atom     1 has atomic number  8 and mass  15.99491

 Molecular mass:   126.06808 amu.
 Principal axes and moments of inertia in atomic units:
                           1         2         3
     Eigenvalues --   811.814121033.133281263.81475
           X            0.99916  -0.03304  -0.02408
           Y            0.03454   0.99731   0.06469
           Z            0.02188  -0.06546   0.99762
 This molecule is an asymmetric top.
 Rotational symmetry number  1.
 Warning -- assumption of classical behavior for rotation
           may cause significant error
 Rotational temperatures (Kelvin)      0.10669     0.08384     0.06853
 Rotational constants (GHZ):           2.22310     1.74686     1.42801
 Zero-point vibrational energy     419336.8 (Joules/Mol)
                                  100.22390 (Kcal/Mol)
 Warning -- explicit consideration of  12 degrees of freedom as
           vibrations may cause significant error
 Vibrational temperatures:    135.16   274.91   369.90   409.23   492.04
          (Kelvin)            497.80   563.68   597.49   666.48   733.56
                              751.43   853.61   983.39  1049.12  1164.48
                             1247.72  1262.64  1321.81  1339.50  1374.22
                             1402.95  1433.55  1459.98  1516.81  1548.35
                             1583.23  1592.60  1708.36  1723.51  1745.84
                             1816.76  1832.43  1896.53  1913.06  1953.11
                             2022.35  2038.44  2059.42  2122.00  2140.31
                             2435.05  4313.47  4416.05  4430.71  4505.88
                             4522.06  4526.37  4565.26  4656.92  5438.50
                             5461.12

 Zero-point correction=                           0.159717 (Hartree/Particle)
 Thermal correction to Energy=                    0.167893
 Thermal correction to Enthalpy=                  0.168838
 Thermal correction to Gibbs Free Energy=         0.127522
 Sum of electronic and zero-point Energies=           -423.015256
 Sum of electronic and thermal Energies=              -423.007079
 Sum of electronic and thermal Enthalpies=            -423.006135
 Sum of electronic and thermal Free Energies=         -423.047450

                     E (Thermal)             CV                S
                      KCal/Mol        Cal/Mol-Kelvin    Cal/Mol-Kelvin
 Total                  105.355             33.001             86.955
 Electronic               0.000              0.000              0.000
 Translational            0.889              2.981             40.409
 Rotational               0.889              2.981             28.451
 Vibrational            103.577             27.039             18.095
 Vibration     1          0.603              1.954              3.576
 Vibration     2          0.634              1.852              2.217
 Vibration     3          0.667              1.751              1.681
 Vibration     4          0.683              1.703              1.507
 Vibration     5          0.721              1.592              1.203
 Vibration     6          0.724              1.583              1.184
 Vibration     7          0.759              1.488              0.993
 Vibration     8          0.779              1.437              0.908
 Vibration     9          0.821              1.332              0.757
 Vibration    10          0.865              1.228              0.634
 Vibration    11          0.877              1.201              0.605
 Vibration    12          0.951              1.046              0.461

 Normal termination of Gaussian 09 at Tue Jan 28 04:45:16 2020.
