 Gaussian 09, Revision D.01,
 Gaussian 09:  ES64L-G09RevD.01 24-Apr-2013

 -----------------------------
 # b3lyp 6-31G(2df,p) opt Freq
 -----------------------------

 -----
 titel
 -----
 Symbolic Z-matrix:
 Charge =  0 Multiplicity = 1

 SCF Done:  E(RB3LYP) =  -423.206961347     A.U. after   14 cycles
 Optimization completed.
    -- Stationary point found.
 Normal termination of Gaussian 09 at Mon Jan 27 22:03:37 2020.

 ----------------------------------------------------------------------
 #N Geom=AllCheck Guess=TCheck SCRF=Check GenChk RB3LYP/6-31G(2df,p) Fr
 eq
 ----------------------------------------------------------------------

 Structure from the checkpoint file:  "/scratch/puck/g09_0fc2490a-3784-45ae-a042-bd41055a58b6/Gau-180989.chk"
 -----
 titel
 -----
 Charge =  0 Multiplicity = 1

                         Standard orientation:
 ---------------------------------------------------------------------
 Center     Atomic      Atomic             Coordinates (Angstroms)
 Number     Number       Type             X           Y           Z
 ---------------------------------------------------------------------
      1          6           0       -0.396608    2.196069    0.154210
      2          6           0        0.411642    0.947245    0.013309
      3          6           0        1.695462    0.805441   -0.308225
      4          6           0        2.090018   -0.640978   -0.309614
      5          8           0        0.899520   -1.344634    0.049308
      6          6           0       -0.187214   -0.438069    0.238334
      7          6           0       -0.823682   -0.637170    1.616118
      8          6           0       -1.211313   -0.693452   -0.877459
      9          8           0       -2.351584   -0.308189   -0.858715
     10          1           0       -1.307335    2.147808   -0.452503
     11          1           0       -0.721490    2.339685    1.191679
     12          1           0        0.179123    3.075100   -0.145358
     13          1           0        2.390950    1.608820   -0.519343
     14          1           0        2.445940   -0.985110   -1.292734
     15          1           0        2.886093   -0.864629    0.417371
     16          1           0       -1.059202   -1.694699    1.763065
     17          1           0       -0.134196   -0.320567    2.402906
     18          1           0       -1.751120   -0.064418    1.687908
     19          1           0       -0.782080   -1.253925   -1.737775
 ---------------------------------------------------------------------

 SCF Done:  E(RB3LYP) =  -423.206961347     A.U. after    1 cycles

 The electronic state is 1-A.
 Alpha  occ. eigenvalues --  -19.14463 -19.14423 -10.26825 -10.24823 -10.23735
 Alpha  occ. eigenvalues --  -10.20287 -10.19120 -10.19089 -10.18000  -1.05461
 Alpha  occ. eigenvalues --   -1.04042  -0.81745  -0.77965  -0.71585  -0.67952
 Alpha  occ. eigenvalues --   -0.63205  -0.57619  -0.53556  -0.49866  -0.47722
 Alpha  occ. eigenvalues --   -0.46270  -0.44572  -0.43333  -0.42626  -0.40713
 Alpha  occ. eigenvalues --   -0.39771  -0.38652  -0.38138  -0.37464  -0.35088
 Alpha  occ. eigenvalues --   -0.32325  -0.28270  -0.27082  -0.22870
 Alpha virt. eigenvalues --   -0.03246   0.02457   0.09596   0.10987   0.11451
 Alpha virt. eigenvalues --    0.13108   0.14069   0.15649   0.15970   0.16558
 Alpha virt. eigenvalues --    0.17422   0.17969   0.18277   0.21574   0.22836

 Mulliken charges:
               1
     1  C   -0.499957
     2  C    0.286031
     3  C   -0.212266
     4  C   -0.135515
     5  O   -0.310561
     6  C    0.208389
     7  C   -0.426544
     8  C    0.125320
     9  O   -0.255635
    10  H    0.152526
    11  H    0.136474
    12  H    0.126760
    13  H    0.106250
    14  H    0.109190
    15  H    0.109686
    16  H    0.131565
    17  H    0.118603
    18  H    0.139261
    19  H    0.090421
 Sum of Mulliken charges =   0.00000

 Dipole moment (field-independent basis, Debye):
    X=              2.2658    Y=              1.2916    Z=              0.3763  Tot=              2.6351
 Quadrupole moment (field-independent basis, Debye-Ang):
   XX=            -56.6373   YY=            -52.6239   ZZ=            -52.5319
   XY=              1.1204   XZ=             -3.3798   YZ=              0.4748

  Exact polarizability:  95.537  -3.423  73.504  -5.757   2.123  65.571
 Approx polarizability: 150.591  -7.656 103.786  -9.207   3.464  94.575

                      1                      2                      3
                      A                      A                      A
 Frequencies --     82.2132                90.3588               164.4877
 Red. masses --      3.9889                 3.5287                 1.0554
 Frc consts  --      0.0159                 0.0170                 0.0168
 IR Inten    --      3.7026                 6.3411                 0.6246

                      4                      5                      6
                      A                      A                      A
 Frequencies --    194.1180               211.6019               240.1468
 Red. masses --      2.5481                 1.0769                 2.1061
 Frc consts  --      0.0566                 0.0284                 0.0716
 IR Inten    --      4.3878                 0.1284                 1.4866

                      7                      8                      9
                      A                      A                      A
 Frequencies --    254.4721               258.7956               382.2306
 Red. masses --      2.3109                 3.1367                 3.9365
 Frc consts  --      0.0882                 0.1238                 0.3389
 IR Inten    --      0.2664                 8.4001                 4.2369

                     10                     11                     12
                      A                      A                      A
 Frequencies --    394.7216               461.4049               566.2577
 Red. masses --      2.7136                 5.8439                 3.2664
 Frc consts  --      0.2491                 0.7330                 0.6171
 IR Inten    --      1.7842                 0.1027                10.9622

                     13                     14                     15
                      A                      A                      A
 Frequencies --    632.2481               719.7618               773.1977
 Red. masses --      4.4257                 3.4298                 6.6780
 Frc consts  --      1.0423                 1.0469                 2.3522
 IR Inten    --      5.4242                11.2630                 5.9830

                     16                     17                     18
                      A                      A                      A
 Frequencies --    815.1481               877.9636               943.3137
 Red. masses --      1.1477                 2.5126                 2.1400
 Frc consts  --      0.4493                 1.1411                 1.1219
 IR Inten    --     18.3728                 7.5668                17.4936

                     19                     20                     21
                      A                      A                      A
 Frequencies --    948.7480               981.1209              1021.1763
 Red. masses --      2.2306                 1.7133                 1.4730
 Frc consts  --      1.1830                 0.9717                 0.9050
 IR Inten    --      7.4538                 3.8028                 1.4461

                     22                     23                     24
                      A                      A                      A
 Frequencies --   1047.6395              1073.0352              1078.8347
 Red. masses --      1.6590                 1.5650                 4.1645
 Frc consts  --      1.0728                 1.0617                 2.8558
 IR Inten    --      7.8608                 0.6328                56.0312

                     25                     26                     27
                      A                      A                      A
 Frequencies --   1133.6567              1170.7993              1176.3707
 Red. masses --      2.3198                 4.0486                 1.9381
 Frc consts  --      1.7566                 3.2698                 1.5802
 IR Inten    --     12.0441                54.1474                 9.9488

                     28                     29                     30
                      A                      A                      A
 Frequencies --   1208.3130              1229.7071              1309.7752
 Red. masses --      1.4568                 2.5688                 2.1719
 Frc consts  --      1.2532                 2.2886                 2.1953
 IR Inten    --      1.1636                 4.3482                 3.1262

                     31                     32                     33
                      A                      A                      A
 Frequencies --   1373.9856              1381.8503              1398.2483
 Red. masses --      1.2894                 1.3571                 1.2517
 Frc consts  --      1.4342                 1.5269                 1.4419
 IR Inten    --      1.4268                 7.0929                10.3267

                     34                     35                     36
                      A                      A                      A
 Frequencies --   1418.4294              1474.6364              1484.3105
 Red. masses --      1.2678                 1.0442                 1.0509
 Frc consts  --      1.5029                 1.3378                 1.3642
 IR Inten    --      4.4951                 7.9986                 6.3140

                     37                     38                     39
                      A                      A                      A
 Frequencies --   1489.5355              1494.0836              1525.0369
 Red. masses --      1.0561                 1.0536                 1.0854
 Frc consts  --      1.3805                 1.3857                 1.4873
 IR Inten    --      2.7508                 1.3566                 1.3149

                     40                     41                     42
                      A                      A                      A
 Frequencies --   1727.9010              1822.8071              2890.3253
 Red. masses --      7.5576                10.9757                 1.0850
 Frc consts  --     13.2945                21.4864                 5.3405
 IR Inten    --      3.4948               148.1198                84.3713

                     43                     44                     45
                      A                      A                      A
 Frequencies --   2980.2543              2997.3135              3030.9833
 Red. masses --      1.0560                 1.1061                 1.0381
 Frc consts  --      5.5262                 5.8546                 5.6190
 IR Inten    --     91.8464                42.2014                15.9529

                     46                     47                     48
                      A                      A                      A
 Frequencies --   3049.0950              3084.3248              3121.5515
 Red. masses --      1.0338                 1.0967                 1.1013
 Frc consts  --      5.6627                 6.1472                 6.3224
 IR Inten    --     12.2718                 9.8467                15.0335

                     49                     50                     51
                      A                      A                      A
 Frequencies --   3125.3889              3137.9862              3208.6654
 Red. masses --      1.1029                 1.1021                 1.0950
 Frc consts  --      6.3475                 6.3937                 6.6422
 IR Inten    --     13.2087                 8.4257                 6.6720

 - Thermochemistry -
 -------------------
 Temperature   298.150 Kelvin.  Pressure   1.00000 Atm.
 Atom     1 has atomic number  6 and mass  12.00000

 Molecular mass:   126.06808 amu.
 Principal axes and moments of inertia in atomic units:
                           1         2         3
     Eigenvalues --   811.142271142.634091425.63426
           X            0.99890  -0.02151  -0.04163
           Y            0.02150   0.99977  -0.00066
           Z            0.04164  -0.00023   0.99913
 This molecule is an asymmetric top.
 Rotational symmetry number  1.
 Warning -- assumption of classical behavior for rotation
           may cause significant error
 Rotational temperatures (Kelvin)      0.10678     0.07580     0.06075
 Rotational constants (GHZ):           2.22494     1.57946     1.26592
 Zero-point vibrational energy     410668.0 (Joules/Mol)
                                   98.15201 (Kcal/Mol)
 Warning -- explicit consideration of  12 degrees of freedom as
           vibrations may cause significant error
 Vibrational temperatures:    118.29   130.01   236.66   279.29   304.45
          (Kelvin)            345.52   366.13   372.35   549.94   567.92
                              663.86   814.72   909.66  1035.58  1112.46
                             1172.81  1263.19  1357.22  1365.04  1411.61
                             1469.24  1507.32  1543.86  1552.20  1631.08
                             1684.52  1692.53  1738.49  1769.27  1884.47
                             1976.86  1988.17  2011.76  2040.80  2121.67
                             2135.59  2143.11  2149.65  2194.19  2486.06
                             2622.61  4158.53  4287.92  4312.46  4360.90
                             4386.96  4437.65  4491.21  4496.73  4514.86
                             4616.55

 Zero-point correction=                           0.156415 (Hartree/Particle)
 Thermal correction to Energy=                    0.165909
 Thermal correction to Enthalpy=                  0.166853
 Thermal correction to Gibbs Free Energy=         0.122178
 Sum of electronic and zero-point Energies=           -423.050546
 Sum of electronic and thermal Energies=              -423.041052
 Sum of electronic and thermal Enthalpies=            -423.040108
 Sum of electronic and thermal Free Energies=         -423.084783

                     E (Thermal)             CV                S
                      KCal/Mol        Cal/Mol-Kelvin    Cal/Mol-Kelvin
 Total                  104.109             34.423             94.026
 Electronic               0.000              0.000              0.000
 Translational            0.889              2.981             40.409
 Rotational               0.889              2.981             28.670
 Vibrational            102.332             28.462             24.947
 Vibration     1          0.600              1.961              3.837
 Vibration     2          0.602              1.956              3.652
 Vibration     3          0.623              1.886              2.498
 Vibration     4          0.635              1.848              2.188
 Vibration     5          0.643              1.823              2.030
 Vibration     6          0.657              1.779              1.802
 Vibration     7          0.665              1.755              1.699
 Vibration     8          0.668              1.748              1.670
 Vibration     9          0.752              1.508              1.030
 Vibration    10          0.762              1.481              0.982
 Vibration    11          0.819              1.336              0.762
 Vibration    12          0.922              1.104              0.511

 Normal termination of Gaussian 09 at Mon Jan 27 22:49:13 2020.
