 Gaussian 09, Revision D.01,
 Gaussian 09:  ES64L-G09RevD.01 24-Apr-2013

 -----------------------------
 # b3lyp 6-31G(2df,p) opt Freq
 -----------------------------

 -----
 titel
 -----
 Symbolic Z-matrix:
 Charge =  0 Multiplicity = 1

 SCF Done:  E(RB3LYP) =  -423.169389120     A.U. after   14 cycles
 Optimization completed.
    -- Stationary point found.
 Normal termination of Gaussian 09 at Mon Jan 27 12:58:31 2020.

 ----------------------------------------------------------------------
 #N Geom=AllCheck Guess=TCheck SCRF=Check GenChk RB3LYP/6-31G(2df,p) Fr
 eq
 ----------------------------------------------------------------------

 Structure from the checkpoint file:  "/scratch/puck/g09_8448bd86-c1a1-4b10-9c18-cabacd00de1b/Gau-20508.chk"
 -----
 titel
 -----
 Charge =  0 Multiplicity = 1

                         Standard orientation:
 ---------------------------------------------------------------------
 Center     Atomic      Atomic             Coordinates (Angstroms)
 Number     Number       Type             X           Y           Z
 ---------------------------------------------------------------------
      1          8           0        1.759946    1.811586   -0.138868
      2          6           0        1.635216    0.642577    0.075649
      3          6           0        2.590956   -0.560928    0.011268
      4          6           0        1.333105   -1.480820   -0.006040
      5          6           0        0.420710   -0.268477    0.372228
      6          6           0       -0.857920   -0.050459   -0.413289
      7          6           0       -2.033540   -1.026348   -0.163119
      8          6           0       -2.818552    0.250435    0.198417
      9          8           0       -1.634564    1.065741    0.074849
     10          1           0        3.270354   -0.592281   -0.843966
     11          1           0        3.182846   -0.652722    0.927955
     12          1           0        1.114584   -1.861961   -1.007199
     13          1           0        1.333573   -2.315853    0.694781
     14          1           0        0.192315   -0.249068    1.444770
     15          1           0       -0.620534    0.080822   -1.479429
     16          1           0       -2.387858   -1.589757   -1.027186
     17          1           0       -1.872301   -1.710774    0.672401
     18          1           0       -3.589804    0.539256   -0.527038
     19          1           0       -3.246082    0.297843    1.206376
 ---------------------------------------------------------------------

 SCF Done:  E(RB3LYP) =  -423.169389120     A.U. after    1 cycles

 The electronic state is 1-A.
 Alpha  occ. eigenvalues --  -19.13521 -19.13086 -10.26756 -10.24127 -10.23245
 Alpha  occ. eigenvalues --  -10.20043 -10.19619 -10.19496 -10.19367  -1.04474
 Alpha  occ. eigenvalues --   -1.03708  -0.85005  -0.74994  -0.72170  -0.64925
 Alpha  occ. eigenvalues --   -0.63190  -0.56283  -0.53909  -0.49454  -0.48630
 Alpha  occ. eigenvalues --   -0.46345  -0.45253  -0.44743  -0.42625  -0.39192
 Alpha  occ. eigenvalues --   -0.38896  -0.37675  -0.36110  -0.35267  -0.33828
 Alpha  occ. eigenvalues --   -0.32594  -0.30645  -0.24889  -0.23650
 Alpha virt. eigenvalues --   -0.01936   0.07078   0.09237   0.09944   0.10554
 Alpha virt. eigenvalues --    0.11719   0.13425   0.14896   0.15766   0.16434
 Alpha virt. eigenvalues --    0.16693   0.17881   0.18192   0.20438   0.22330

 Mulliken charges:
               1
     1  O   -0.284952
     2  C    0.386539
     3  C   -0.336137
     4  C   -0.259321
     5  C   -0.107557
     6  C    0.147794
     7  C   -0.298094
     8  C   -0.060620
     9  O   -0.284760
    10  H    0.129877
    11  H    0.133617
    12  H    0.113929
    13  H    0.111216
    14  H    0.102526
    15  H    0.075168
    16  H    0.111674
    17  H    0.109063
    18  H    0.103557
    19  H    0.106481
 Sum of Mulliken charges =   0.00000

 Dipole moment (field-independent basis, Debye):
    X=             -0.6604    Y=             -4.1545    Z=              0.2426  Tot=              4.2137
 Quadrupole moment (field-independent basis, Debye-Ang):
   XX=            -49.3698   YY=            -60.4747   ZZ=            -50.3158
   XY=             -2.4749   XZ=              0.9632   YZ=              0.2284

  Exact polarizability:  92.837  -1.463  73.718  -1.757  -0.655  62.920
 Approx polarizability: 112.539   0.218 116.205  -2.970  -2.205  97.623

                      1                      2                      3
                      A                      A                      A
 Frequencies --     48.4614                69.6149                85.3970
 Red. masses --      4.0885                 2.5087                 2.6781
 Frc consts  --      0.0057                 0.0072                 0.0115
 IR Inten    --      0.0501                 1.5887                 0.3167

                      4                      5                      6
                      A                      A                      A
 Frequencies --    120.4268               233.9533               307.7866
 Red. masses --      3.1681                 3.6036                 3.2482
 Frc consts  --      0.0271                 0.1162                 0.1813
 IR Inten    --      0.4410                 4.3955                 1.3446

                      7                      8                      9
                      A                      A                      A
 Frequencies --    372.6383               454.8545               553.7671
 Red. masses --      4.7283                 2.4339                 2.9994
 Frc consts  --      0.3868                 0.2967                 0.5419
 IR Inten    --      4.5689                 3.0488                 1.3912

                     10                     11                     12
                      A                      A                      A
 Frequencies --    682.3975               701.1383               757.0727
 Red. masses --      2.8549                 1.9086                 1.4908
 Frc consts  --      0.7833                 0.5528                 0.5034
 IR Inten    --      4.5642                 1.0755                 0.8726

                     13                     14                     15
                      A                      A                      A
 Frequencies --    790.2686               843.0933               896.3027
 Red. masses --      1.4011                 2.9650                 2.4484
 Frc consts  --      0.5156                 1.2417                 1.1589
 IR Inten    --      1.7134                 2.8873                 3.2373

                     16                     17                     18
                      A                      A                      A
 Frequencies --    922.5376               945.0849               949.8005
 Red. masses --      2.4409                 1.8472                 2.6546
 Frc consts  --      1.2239                 0.9721                 1.4110
 IR Inten    --     11.5048                 1.2040                12.6818

                     19                     20                     21
                      A                      A                      A
 Frequencies --    990.8556              1016.2595              1030.4367
 Red. masses --      1.6042                 3.6873                 7.7704
 Frc consts  --      0.9280                 2.2437                 4.8611
 IR Inten    --     10.2138                16.3465               132.7755

                     22                     23                     24
                      A                      A                      A
 Frequencies --   1067.0556              1072.6543              1097.2910
 Red. masses --      2.5326                 3.5553                 2.4113
 Frc consts  --      1.6990                 2.4102                 1.7106
 IR Inten    --      2.6151                58.1249                16.3424

                     25                     26                     27
                      A                      A                      A
 Frequencies --   1162.3359              1177.1684              1197.5327
 Red. masses --      1.3105                 1.6899                 1.4003
 Frc consts  --      1.0432                 1.3798                 1.1831
 IR Inten    --      3.3917                13.8820                 0.2762

                     28                     29                     30
                      A                      A                      A
 Frequencies --   1211.4659              1228.9819              1239.6195
 Red. masses --      1.2905                 1.2394                 1.4468
 Frc consts  --      1.1159                 1.1029                 1.3099
 IR Inten    --      0.9727                 2.8461                 2.4309

                     31                     32                     33
                      A                      A                      A
 Frequencies --   1252.5182              1254.6446              1282.0639
 Red. masses --      1.4291                 1.4444                 1.2788
 Frc consts  --      1.3209                 1.3396                 1.2385
 IR Inten    --      1.1545                 5.7206                 1.6857

                     34                     35                     36
                      A                      A                      A
 Frequencies --   1290.6041              1358.0516              1398.0806
 Red. masses --      1.6120                 1.4205                 1.4391
 Frc consts  --      1.5820                 1.5436                 1.6573
 IR Inten    --      6.0858                 2.2216                45.6186

                     37                     38                     39
                      A                      A                      A
 Frequencies --   1441.8441              1488.5969              1492.6945
 Red. masses --      1.0995                 1.1044                 1.1012
 Frc consts  --      1.3468                 1.4419                 1.4456
 IR Inten    --      3.7295                 3.2090                 1.0890

                     40                     41                     42
                      A                      A                      A
 Frequencies --   1532.9113              1892.9108              2989.1551
 Red. masses --      1.1114                12.7992                 1.0831
 Frc consts  --      1.5388                27.0206                 5.7020
 IR Inten    --      0.8030               242.2811                46.6833

                     43                     44                     45
                      A                      A                      A
 Frequencies --   3016.1823              3044.0752              3058.1103
 Red. masses --      1.0585                 1.0829                 1.0612
 Frc consts  --      5.6737                 5.9124                 5.8472
 IR Inten    --     84.0962                 9.8172                11.0643

                     46                     47                     48
                      A                      A                      A
 Frequencies --   3058.8399              3070.7288              3076.6692
 Red. masses --      1.1070                 1.0623                 1.0609
 Frc consts  --      6.1024                 5.9016                 5.9169
 IR Inten    --     33.3443                15.7753                28.6754

                     49                     50                     51
                      A                      A                      A
 Frequencies --   3113.2864              3133.1770              3134.8990
 Red. masses --      1.1032                 1.1074                 1.1065
 Frc consts  --      6.3002                 6.4053                 6.4070
 IR Inten    --      6.1890                 7.1688                40.3222

 - Thermochemistry -
 -------------------
 Temperature   298.150 Kelvin.  Pressure   1.00000 Atm.
 Atom     1 has atomic number  8 and mass  15.99491

 Molecular mass:   126.06808 amu.
 Principal axes and moments of inertia in atomic units:
                           1         2         3
     Eigenvalues --   538.088181625.451072051.82344
           X            0.99987  -0.01632   0.00082
           Y            0.01632   0.99987   0.00191
           Z           -0.00085  -0.00190   1.00000
 This molecule is an asymmetric top.
 Rotational symmetry number  1.
 Warning -- assumption of classical behavior for rotation
           may cause significant error
 Rotational temperatures (Kelvin)      0.16097     0.05329     0.04221
 Rotational constants (GHZ):           3.35399     1.11030     0.87958
 Zero-point vibrational energy     416338.1 (Joules/Mol)
                                   99.50720 (Kcal/Mol)
 Warning -- explicit consideration of   9 degrees of freedom as
           vibrations may cause significant error
 Vibrational temperatures:     69.73   100.16   122.87   173.27   336.61
          (Kelvin)            442.84   536.14   654.43   796.75   981.82
                             1008.78  1089.26  1137.02  1213.02  1289.58
                             1327.32  1359.76  1366.55  1425.62  1462.17
                             1482.57  1535.25  1543.31  1578.76  1672.34
                             1693.68  1722.98  1743.03  1768.23  1783.53
                             1802.09  1805.15  1844.60  1856.89  1953.93
                             2011.52  2074.49  2141.76  2147.65  2205.51
                             2723.47  4300.72  4339.61  4379.74  4399.93
                             4400.98  4418.09  4426.64  4479.32  4507.94
                             4510.41

 Zero-point correction=                           0.158575 (Hartree/Particle)
 Thermal correction to Energy=                    0.167245
 Thermal correction to Enthalpy=                  0.168189
 Thermal correction to Gibbs Free Energy=         0.123720
 Sum of electronic and zero-point Energies=           -423.010814
 Sum of electronic and thermal Energies=              -423.002144
 Sum of electronic and thermal Enthalpies=            -423.001200
 Sum of electronic and thermal Free Energies=         -423.045670

                     E (Thermal)             CV                S
                      KCal/Mol        Cal/Mol-Kelvin    Cal/Mol-Kelvin
 Total                  104.948             31.199             93.594
 Electronic               0.000              0.000              0.000
 Translational            0.889              2.981             40.409
 Rotational               0.889              2.981             28.975
 Vibrational            103.170             25.238             24.211
 Vibration     1          0.595              1.978              4.879
 Vibration     2          0.598              1.969              4.164
 Vibration     3          0.601              1.959              3.763
 Vibration     4          0.609              1.932              3.094
 Vibration     5          0.654              1.789              1.848
 Vibration     6          0.698              1.659              1.374
 Vibration     7          0.744              1.528              1.069
 Vibration     8          0.813              1.350              0.781
 Vibration     9          0.909              1.131              0.536

 Normal termination of Gaussian 09 at Mon Jan 27 13:40:36 2020.
