 Gaussian 09, Revision D.01,
 Gaussian 09:  ES64L-G09RevD.01 24-Apr-2013

 -----------------------------
 # b3lyp 6-31G(2df,p) opt Freq
 -----------------------------

 -----
 titel
 -----
 Symbolic Z-matrix:
 Charge =  0 Multiplicity = 1

 SCF Done:  E(RB3LYP) =  -423.108836563     A.U. after   12 cycles
 Optimization completed.
    -- Stationary point found.
 Normal termination of Gaussian 09 at Tue Jan 28 02:18:41 2020.

 ----------------------------------------------------------------------
 #N Geom=AllCheck Guess=TCheck SCRF=Check GenChk RB3LYP/6-31G(2df,p) Fr
 eq
 ----------------------------------------------------------------------

 Structure from the checkpoint file:  "/scratch/puck/g09_88aca095-c06b-499f-bc27-1ed0c9e15152/Gau-76173.chk"
 -----
 titel
 -----
 Charge =  0 Multiplicity = 1

                         Standard orientation:
 ---------------------------------------------------------------------
 Center     Atomic      Atomic             Coordinates (Angstroms)
 Number     Number       Type             X           Y           Z
 ---------------------------------------------------------------------
      1          8           0       -3.125709   -0.947036   -0.253943
      2          6           0       -2.167395   -0.220231    0.459174
      3          6           0       -1.992260    1.254093    0.188744
      4          6           0       -0.974834    0.246015   -0.318116
      5          6           0        0.403110    0.180877    0.257951
      6          6           0        1.337474   -0.871783   -0.319463
      7          6           0        2.688507   -0.781790    0.379239
      8          8           0        2.770190    0.649592    0.127381
      9          6           0        1.550017    0.596169   -0.614792
     10          1           0       -3.993159   -0.714916    0.094512
     11          1           0       -1.991008   -0.565754    1.478697
     12          1           0       -2.651953    1.704065   -0.545098
     13          1           0       -1.711907    1.901785    1.013321
     14          1           0       -1.039353    0.032131   -1.382090
     15          1           0        0.481780    0.416892    1.318836
     16          1           0        0.990281   -1.680797   -0.947928
     17          1           0        2.728139   -1.019585    1.449305
     18          1           0        3.493453   -1.307760   -0.146877
     19          1           0        1.470169    1.193392   -1.516603
 ---------------------------------------------------------------------

 SCF Done:  E(RB3LYP) =  -423.108836563     A.U. after    1 cycles

 The electronic state is 1-A.
 Alpha  occ. eigenvalues --  -19.14257 -19.13388 -10.23531 -10.23464 -10.23302
 Alpha  occ. eigenvalues --  -10.19535 -10.19505 -10.19292 -10.18415  -1.04712
 Alpha  occ. eigenvalues --   -1.02732  -0.86115  -0.81893  -0.69896  -0.63132
 Alpha  occ. eigenvalues --   -0.60514  -0.57496  -0.54667  -0.52669  -0.50641
 Alpha  occ. eigenvalues --   -0.47951  -0.46212  -0.44264  -0.42711  -0.39939
 Alpha  occ. eigenvalues --   -0.38213  -0.36450  -0.35392  -0.33012  -0.31857
 Alpha  occ. eigenvalues --   -0.28956  -0.26890  -0.25403  -0.22528
 Alpha virt. eigenvalues --    0.07811   0.08501   0.09505   0.11139   0.11997
 Alpha virt. eigenvalues --    0.12502   0.13913   0.14253   0.14982   0.15663
 Alpha virt. eigenvalues --    0.18319   0.18679   0.19278   0.21635   0.22596

 Mulliken charges:
               1
     1  O   -0.425835
     2  C    0.097068
     3  C   -0.340857
     4  C   -0.029313
     5  C   -0.053368
     6  C   -0.143146
     7  C   -0.098616
     8  O   -0.292769
     9  C    0.091224
    10  H    0.286480
    11  H    0.084493
    12  H    0.114071
    13  H    0.112771
    14  H    0.094348
    15  H    0.082990
    16  H    0.103501
    17  H    0.103716
    18  H    0.109397
    19  H    0.103844
 Sum of Mulliken charges =   0.00000

 Dipole moment (field-independent basis, Debye):
    X=             -1.6580    Y=             -0.3306    Z=              0.4143  Tot=              1.7407
 Quadrupole moment (field-independent basis, Debye-Ang):
   XX=            -51.6883   YY=            -54.6794   ZZ=            -50.9575
   XY=             -6.7591   XZ=             -3.2121   YZ=             -1.5177

  Exact polarizability:  95.692  -5.520  69.719  -0.075  -1.041  65.072
 Approx polarizability: 118.522  -2.700 108.263  -0.660  -0.608  99.920

                      1                      2                      3
                      A                      A                      A
 Frequencies --     55.9317               109.5014               142.1194
 Red. masses --      3.6076                 4.4541                 3.1341
 Frc consts  --      0.0066                 0.0315                 0.0373
 IR Inten    --      2.6333                 1.0188                 1.1300

                      4                      5                      6
                      A                      A                      A
 Frequencies --    283.2306               311.9326               326.0060
 Red. masses --      2.4741                 2.0226                 2.0497
 Frc consts  --      0.1169                 0.1160                 0.1283
 IR Inten    --     31.9049                11.9858                37.3762

                      7                      8                      9
                      A                      A                      A
 Frequencies --    344.7447               377.5246               459.0222
 Red. masses --      2.7112                 2.8659                 2.4895
 Frc consts  --      0.1898                 0.2407                 0.3090
 IR Inten    --     13.5654                24.6752                 2.0546

                     10                     11                     12
                      A                      A                      A
 Frequencies --    507.2702               746.4272               793.2693
 Red. masses --      2.8090                 3.1279                 1.6301
 Frc consts  --      0.4259                 1.0268                 0.6044
 IR Inten    --     11.7235                 6.1407                 9.6631

                     13                     14                     15
                      A                      A                      A
 Frequencies --    821.8608               859.6402               895.8005
 Red. masses --      1.7998                 1.7233                 2.7735
 Frc consts  --      0.7163                 0.7503                 1.3113
 IR Inten    --      8.2534                 3.8590                 9.3843

                     16                     17                     18
                      A                      A                      A
 Frequencies --    930.1716               951.9815               956.0362
 Red. masses --      2.7273                 1.9751                 3.5500
 Frc consts  --      1.3903                 1.0546                 1.9117
 IR Inten    --     25.6064                 0.7355                14.0297

                     19                     20                     21
                      A                      A                      A
 Frequencies --    974.0238               991.9729              1008.0604
 Red. masses --      2.7215                 2.8135                 1.5162
 Frc consts  --      1.5212                 1.6312                 0.9078
 IR Inten    --      7.6126                70.8772                 2.9189

                     22                     23                     24
                      A                      A                      A
 Frequencies --   1035.2900              1048.4259              1083.3561
 Red. masses --      1.5827                 1.5858                 1.9769
 Frc consts  --      0.9995                 1.0270                 1.3670
 IR Inten    --      4.4457                 6.4310                11.1828

                     25                     26                     27
                      A                      A                      A
 Frequencies --   1090.8285              1100.1348              1108.3514
 Red. masses --      1.7720                 1.6784                 1.1383
 Frc consts  --      1.2423                 1.1968                 0.8239
 IR Inten    --     40.3311                 4.8834                 6.7458

                     28                     29                     30
                      A                      A                      A
 Frequencies --   1150.8236              1157.8027              1188.7455
 Red. masses --      1.9546                 1.1817                 2.1091
 Frc consts  --      1.5252                 0.9333                 1.7560
 IR Inten    --      2.3731                 2.5737                20.9171

                     31                     32                     33
                      A                      A                      A
 Frequencies --   1218.4891              1224.5555              1249.5241
 Red. masses --      2.1799                 1.9208                 1.3539
 Frc consts  --      1.9069                 1.6970                 1.2454
 IR Inten    --     31.3129                 8.1366                 7.6692

                     34                     35                     36
                      A                      A                      A
 Frequencies --   1255.8985              1300.5114              1318.1403
 Red. masses --      1.2955                 1.2513                 1.5973
 Frc consts  --      1.2039                 1.2469                 1.6352
 IR Inten    --     10.0804                42.4939                19.6580

                     37                     38                     39
                      A                      A                      A
 Frequencies --   1361.9557              1415.7131              1449.0686
 Red. masses --      1.4814                 1.6350                 1.4399
 Frc consts  --      1.6190                 1.9307                 1.7814
 IR Inten    --      9.9683                15.5920                 0.6554

                     40                     41                     42
                      A                      A                      A
 Frequencies --   1502.4556              1515.6865              3019.2414
 Red. masses --      2.0818                 1.1194                 1.0546
 Frc consts  --      2.7687                 1.5152                 5.6641
 IR Inten    --      9.0584                 1.8488                84.6377

                     43                     44                     45
                      A                      A                      A
 Frequencies --   3067.7560              3090.9459              3107.2266
 Red. masses --      1.1114                 1.0872                 1.0879
 Frc consts  --      6.1625                 6.1198                 6.1884
 IR Inten    --     38.5048                27.1032                14.8236

                     46                     47                     48
                      A                      A                      A
 Frequencies --   3129.3225              3144.0379              3171.7478
 Red. masses --      1.0545                 1.0872                 1.0913
 Frc consts  --      6.0844                 6.3322                 6.4685
 IR Inten    --     11.3370                 5.9123                20.1679

                     49                     50                     51
                      A                      A                      A
 Frequencies --   3204.5460              3220.5372              3799.9995
 Red. masses --      1.0958                 1.1167                 1.0661
 Frc consts  --      6.6301                 6.8242                 9.0705
 IR Inten    --      8.0341                 8.8785                17.7844

 - Thermochemistry -
 -------------------
 Temperature   298.150 Kelvin.  Pressure   1.00000 Atm.
 Atom     1 has atomic number  8 and mass  15.99491

 Molecular mass:   126.06808 amu.
 Principal axes and moments of inertia in atomic units:
                           1         2         3
     Eigenvalues --   368.273522193.716162374.06637
           X            0.99977  -0.02113  -0.00192
           Y            0.02109   0.99963  -0.01722
           Z            0.00228   0.01718   0.99985
 This molecule is an asymmetric top.
 Rotational symmetry number  1.
 Rotational temperatures (Kelvin)      0.23519     0.03948     0.03648
 Rotational constants (GHZ):           4.90055     0.82269     0.76019
 Zero-point vibrational energy     416166.7 (Joules/Mol)
                                   99.46624 (Kcal/Mol)
 Warning -- explicit consideration of  10 degrees of freedom as
           vibrations may cause significant error
 Vibrational temperatures:     80.47   157.55   204.48   407.51   448.80
          (Kelvin)            469.05   496.01   543.17   660.43   729.85
                             1073.94  1141.34  1182.47  1236.83  1288.86
                             1338.31  1369.69  1375.52  1401.40  1427.23
                             1450.37  1489.55  1508.45  1558.71  1569.46
                             1582.85  1594.67  1655.78  1665.82  1710.34
                             1753.13  1761.86  1797.78  1806.96  1871.14
                             1896.51  1959.55  2036.89  2084.88  2161.70
                             2180.73  4344.01  4413.81  4447.18  4470.60
                             4502.39  4523.56  4563.43  4610.62  4633.63
                             5467.34

 Zero-point correction=                           0.158510 (Hartree/Particle)
 Thermal correction to Energy=                    0.166897
 Thermal correction to Enthalpy=                  0.167841
 Thermal correction to Gibbs Free Energy=         0.124926
 Sum of electronic and zero-point Energies=           -422.950327
 Sum of electronic and thermal Energies=              -422.941940
 Sum of electronic and thermal Enthalpies=            -422.940996
 Sum of electronic and thermal Free Energies=         -422.983910

                     E (Thermal)             CV                S
                      KCal/Mol        Cal/Mol-Kelvin    Cal/Mol-Kelvin
 Total                  104.729             31.973             90.322
 Electronic               0.000              0.000              0.000
 Translational            0.889              2.981             40.409
 Rotational               0.889              2.981             29.041
 Vibrational            102.952             26.011             20.873
 Vibration     1          0.596              1.975              4.596
 Vibration     2          0.606              1.942              3.278
 Vibration     3          0.616              1.911              2.775
 Vibration     4          0.682              1.705              1.514
 Vibration     5          0.700              1.651              1.352
 Vibration     6          0.710              1.623              1.280
 Vibration     7          0.723              1.586              1.190
 Vibration     8          0.748              1.518              1.049
 Vibration     9          0.817              1.341              0.769
 Vibration    10          0.862              1.234              0.640

 Normal termination of Gaussian 09 at Tue Jan 28 02:56:35 2020.
