 Gaussian 09, Revision D.01,
 Gaussian 09:  ES64L-G09RevD.01 24-Apr-2013

 -----------------------------
 # b3lyp 6-31G(2df,p) opt Freq
 -----------------------------

 -----
 titel
 -----
 Symbolic Z-matrix:
 Charge =  0 Multiplicity = 1

 SCF Done:  E(RB3LYP) =  -423.178038219     A.U. after   13 cycles
 Optimization completed.
    -- Stationary point found.
 Normal termination of Gaussian 09 at Mon Jan 27 11:19:52 2020.

 ----------------------------------------------------------------------
 #N Geom=AllCheck Guess=TCheck SCRF=Check GenChk RB3LYP/6-31G(2df,p) Fr
 eq
 ----------------------------------------------------------------------

 Structure from the checkpoint file:  "/scratch/puck/g09_7d71f3d2-c706-41d6-9177-43e90a0acd8e/Gau-32390.chk"
 -----
 titel
 -----
 Charge =  0 Multiplicity = 1

                         Standard orientation:
 ---------------------------------------------------------------------
 Center     Atomic      Atomic             Coordinates (Angstroms)
 Number     Number       Type             X           Y           Z
 ---------------------------------------------------------------------
      1          6           0        1.459543   -0.761885   -0.835661
      2          6           0        1.857574    0.378753    0.145770
      3          6           0        0.547155    0.760574    0.855300
      4          8           0       -0.274457    1.585614    0.031702
      5          6           0       -0.990840    0.907505   -0.996024
      6          6           0       -1.213029   -0.545910   -0.604523
      7          8           0       -1.562981   -0.536130    0.809389
      8          6           0       -0.149756   -0.612895    1.083247
      9          6           0        0.127201   -1.280606   -0.277434
     10          1           0        1.360196   -0.397788   -1.863290
     11          1           0        2.212696   -1.553957   -0.857787
     12          1           0        2.577145    0.005212    0.884257
     13          1           0        2.308581    1.245811   -0.342174
     14          1           0        0.707244    1.334081    1.771543
     15          1           0       -1.953488    1.420839   -1.095410
     16          1           0       -0.467476    0.978893   -1.962873
     17          1           0       -1.957820   -1.049412   -1.226866
     18          1           0        0.083934   -1.089542    2.038253
     19          1           0        0.001402   -2.363218   -0.298433
 ---------------------------------------------------------------------

 SCF Done:  E(RB3LYP) =  -423.178038219     A.U. after    1 cycles

 The electronic state is 1-A.
 Alpha  occ. eigenvalues --  -19.13525 -19.13222 -10.23719 -10.23120 -10.22900
 Alpha  occ. eigenvalues --  -10.22694 -10.19155 -10.18704 -10.18263  -1.05958
 Alpha  occ. eigenvalues --   -1.00889  -0.82238  -0.76404  -0.69811  -0.67254
 Alpha  occ. eigenvalues --   -0.63747  -0.57964  -0.53605  -0.50602  -0.49725
 Alpha  occ. eigenvalues --   -0.46562  -0.44257  -0.43331  -0.42467  -0.40592
 Alpha  occ. eigenvalues --   -0.39196  -0.36815  -0.34904  -0.34485  -0.32228
 Alpha  occ. eigenvalues --   -0.30566  -0.30175  -0.25520  -0.23130
 Alpha virt. eigenvalues --    0.07083   0.08263   0.10413   0.12159   0.13332
 Alpha virt. eigenvalues --    0.13667   0.15072   0.15418   0.16318   0.16935
 Alpha virt. eigenvalues --    0.18206   0.18775   0.19064   0.19520   0.23649

 Mulliken charges:
               1
     1  C   -0.255876
     2  C   -0.222463
     3  C    0.086499
     4  O   -0.270604
     5  C   -0.079823
     6  C    0.048382
     7  O   -0.289769
     8  C    0.074540
     9  C   -0.032785
    10  H    0.107525
    11  H    0.100908
    12  H    0.100188
    13  H    0.110328
    14  H    0.081337
    15  H    0.114267
    16  H    0.089847
    17  H    0.079952
    18  H    0.078720
    19  H    0.078829
 Sum of Mulliken charges =   0.00000

 Dipole moment (field-independent basis, Debye):
    X=              1.5802    Y=             -1.3169    Z=             -1.0769  Tot=              2.3218
 Quadrupole moment (field-independent basis, Debye-Ang):
   XX=            -54.0698   YY=            -55.1914   ZZ=            -50.6602
   XY=             -0.5361   XZ=              4.3757   YZ=              0.0418

  Exact polarizability:  76.573  -0.669  68.871   4.713  -0.101  72.127
 Approx polarizability: 108.515  -1.026 101.417   4.689  -0.418 109.801

                      1                      2                      3
                      A                      A                      A
 Frequencies --    137.3615               275.9745               362.7205
 Red. masses --      2.5114                 2.1946                 2.5249
 Frc consts  --      0.0279                 0.0985                 0.1957
 IR Inten    --      1.9233                 1.1548                 0.6294

                      4                      5                      6
                      A                      A                      A
 Frequencies --    382.0001               425.7737               544.7175
 Red. masses --      2.7295                 5.4549                 5.2582
 Frc consts  --      0.2347                 0.5826                 0.9192
 IR Inten    --      1.8148                 2.3129                 5.5861

                      7                      8                      9
                      A                      A                      A
 Frequencies --    648.7837               668.1034               695.2640
 Red. masses --      4.9534                 4.8045                 2.7428
 Frc consts  --      1.2284                 1.2635                 0.7812
 IR Inten    --      5.0685                 0.7239                 0.6926

                     10                     11                     12
                      A                      A                      A
 Frequencies --    778.4286               802.5034               834.1373
 Red. masses --      2.2358                 2.5976                 2.9415
 Frc consts  --      0.7982                 0.9856                 1.2059
 IR Inten    --      3.8962                11.6347                13.9633

                     13                     14                     15
                      A                      A                      A
 Frequencies --    869.9655               894.0656               908.6600
 Red. masses --      2.2037                 3.1434                 2.7123
 Frc consts  --      0.9827                 1.4804                 1.3194
 IR Inten    --     12.4027                 8.4426                13.5214

                     16                     17                     18
                      A                      A                      A
 Frequencies --    933.9536               985.8430               993.7639
 Red. masses --      1.9125                 2.3317                 2.5507
 Frc consts  --      0.9829                 1.3352                 1.4842
 IR Inten    --      6.0675                 7.5036                46.8384

                     19                     20                     21
                      A                      A                      A
 Frequencies --   1002.4511              1019.6767              1047.3168
 Red. masses --      2.5940                 1.9269                 2.5686
 Frc consts  --      1.5358                 1.1804                 1.6600
 IR Inten    --      3.4712                11.1221                13.8482

                     22                     23                     24
                      A                      A                      A
 Frequencies --   1052.2451              1097.3182              1139.2849
 Red. masses --      2.2922                 1.8189                 3.7662
 Frc consts  --      1.4953                 1.2904                 2.8802
 IR Inten    --      9.9776                 5.6285                63.7295

                     25                     26                     27
                      A                      A                      A
 Frequencies --   1148.0108              1174.6875              1220.0790
 Red. masses --      1.2898                 1.8598                 1.2270
 Frc consts  --      1.0016                 1.5120                 1.0761
 IR Inten    --      0.6656                28.9086                 0.7475

                     28                     29                     30
                      A                      A                      A
 Frequencies --   1235.4532              1250.4895              1277.6757
 Red. masses --      1.6210                 1.3099                 1.3967
 Frc consts  --      1.4577                 1.2069                 1.3434
 IR Inten    --      1.1958                 6.5031                 0.3668

                     31                     32                     33
                      A                      A                      A
 Frequencies --   1286.9749              1295.8702              1317.9188
 Red. masses --      1.2840                 1.6311                 1.3535
 Frc consts  --      1.2530                 1.6138                 1.3851
 IR Inten    --      2.2067                 2.1652                 5.9863

                     34                     35                     36
                      A                      A                      A
 Frequencies --   1328.9085              1350.0186              1358.1602
 Red. masses --      1.4577                 1.7451                 1.2915
 Frc consts  --      1.5167                 1.8740                 1.4036
 IR Inten    --      0.4716                 0.2936                 2.3904

                     37                     38                     39
                      A                      A                      A
 Frequencies --   1370.4157              1408.3454              1476.3562
 Red. masses --      1.4786                 1.4076                 1.0839
 Frc consts  --      1.6361                 1.6449                 1.3920
 IR Inten    --      1.3187                 2.2779                 1.8271

                     40                     41                     42
                      A                      A                      A
 Frequencies --   1494.9414              1513.6428              2977.7281
 Red. masses --      1.0962                 1.0863                 1.0696
 Frc consts  --      1.4434                 1.4664                 5.5881
 IR Inten    --      3.3901                 3.9308                57.2086

                     43                     44                     45
                      A                      A                      A
 Frequencies --   3037.5510              3052.5733              3061.5051
 Red. masses --      1.0673                 1.0624                 1.0924
 Frc consts  --      5.8020                 5.8326                 6.0324
 IR Inten    --     19.7766                30.2329                23.2161

                     46                     47                     48
                      A                      A                      A
 Frequencies --   3076.2703              3078.0464              3087.2937
 Red. masses --      1.0895                 1.0877                 1.0993
 Frc consts  --      6.0747                 6.0717                 6.1733
 IR Inten    --     49.0212                27.3657                14.9670

                     49                     50                     51
                      A                      A                      A
 Frequencies --   3090.4674              3108.3437              3113.1890
 Red. masses --      1.0885                 1.0986                 1.0910
 Frc consts  --      6.1250                 6.2536                 6.2300
 IR Inten    --     73.6208                12.1940                45.4725

 - Thermochemistry -
 -------------------
 Temperature   298.150 Kelvin.  Pressure   1.00000 Atm.
 Atom     1 has atomic number  6 and mass  12.00000

 Molecular mass:   126.06808 amu.
 Principal axes and moments of inertia in atomic units:
                           1         2         3
     Eigenvalues --   689.51910 879.312141010.54376
           X            0.99872  -0.02806   0.04210
           Y            0.02777   0.99959   0.00754
           Z           -0.04229  -0.00636   0.99909
 This molecule is an asymmetric top.
 Rotational symmetry number  1.
 Warning -- assumption of classical behavior for rotation
           may cause significant error
 Rotational temperatures (Kelvin)      0.12561     0.09850     0.08571
 Rotational constants (GHZ):           2.61739     2.05245     1.78591
 Zero-point vibrational energy     428808.8 (Joules/Mol)
                                  102.48776 (Kcal/Mol)
 Warning -- explicit consideration of   6 degrees of freedom as
           vibrations may cause significant error
 Vibrational temperatures:    197.63   397.07   521.87   549.61   612.59
          (Kelvin)            783.73   933.45   961.25  1000.33  1119.98
                             1154.62  1200.14  1251.68  1286.36  1307.36
                             1343.75  1418.41  1429.80  1442.30  1467.09
                             1506.85  1513.94  1578.79  1639.17  1651.73
                             1690.11  1755.42  1777.54  1799.17  1838.29
                             1851.67  1864.47  1896.19  1912.00  1942.37
                             1954.09  1971.72  2026.29  2124.14  2150.88
                             2177.79  4284.28  4370.35  4391.97  4404.82
                             4426.06  4428.62  4441.92  4446.49  4472.21
                             4479.18

 Zero-point correction=                           0.163325 (Hartree/Particle)
 Thermal correction to Energy=                    0.169691
 Thermal correction to Enthalpy=                  0.170636
 Thermal correction to Gibbs Free Energy=         0.132822
 Sum of electronic and zero-point Energies=           -423.014714
 Sum of electronic and thermal Energies=              -423.008347
 Sum of electronic and thermal Enthalpies=            -423.007403
 Sum of electronic and thermal Free Energies=         -423.045216

                     E (Thermal)             CV                S
                      KCal/Mol        Cal/Mol-Kelvin    Cal/Mol-Kelvin
 Total                  106.483             26.940             79.585
 Electronic               0.000              0.000              0.000
 Translational            0.889              2.981             40.409
 Rotational               0.889              2.981             27.907
 Vibrational            104.706             20.979             11.270
 Vibration     1          0.614              1.916              2.840
 Vibration     2          0.678              1.718              1.558
 Vibration     3          0.737              1.549              1.110
 Vibration     4          0.751              1.509              1.031
 Vibration     5          0.788              1.414              0.873
 Vibration     6          0.900              1.151              0.555

 Optimization completed.
    -- Stationary point found.
 Normal termination of Gaussian 09 at Mon Jan 27 12:11:06 2020.
