 Gaussian 09, Revision D.01,
 Gaussian 09:  ES64L-G09RevD.01 24-Apr-2013

 -----------------------------
 # b3lyp 6-31G(2df,p) opt Freq
 -----------------------------

 -----
 titel
 -----
 Symbolic Z-matrix:
 Charge =  0 Multiplicity = 1

 SCF Done:  E(RB3LYP) =  -423.118338000     A.U. after   13 cycles
 Optimization completed.
    -- Stationary point found.
 Normal termination of Gaussian 09 at Mon Jan 27 22:52:48 2020.

 ----------------------------------------------------------------------
 #N Geom=AllCheck Guess=TCheck SCRF=Check GenChk RB3LYP/6-31G(2df,p) Fr
 eq
 ----------------------------------------------------------------------

 Structure from the checkpoint file:  "/scratch/puck/g09_46b2fc55-1d54-4431-a022-beece05c74db/Gau-75001.chk"
 -----
 titel
 -----
 Charge =  0 Multiplicity = 1

                         Standard orientation:
 ---------------------------------------------------------------------
 Center     Atomic      Atomic             Coordinates (Angstroms)
 Number     Number       Type             X           Y           Z
 ---------------------------------------------------------------------
      1          8           0        2.207349   -1.176155   -0.439768
      2          6           0        0.860309   -0.815073   -0.380349
      3          6           0        0.320842   -0.578655    1.019327
      4          6           0       -1.169634   -0.185089    1.009798
      5          6           0       -2.129376   -0.796248   -0.063194
      6          6           0       -1.825372    0.403326   -1.020745
      7          6           0       -0.865280    1.005711    0.050665
      8          6           0        0.617948    0.595101    0.052572
      9          8           0        1.698882    1.459205   -0.060806
     10          1           0        2.709933   -0.350545   -0.460437
     11          1           0        0.266692   -1.306129   -1.148092
     12          1           0        0.879115   -0.973479    1.860408
     13          1           0       -1.589353   -0.006289    2.000250
     14          1           0       -1.861446   -1.789454   -0.431140
     15          1           0       -3.170250   -0.828510    0.266776
     16          1           0       -1.365881    0.153873   -1.980388
     17          1           0       -2.698136    1.030798   -1.214922
     18          1           0       -1.035786    2.036968    0.365779
     19          1           0        1.758638    1.993925    0.737908
 ---------------------------------------------------------------------

 SCF Done:  E(RB3LYP) =  -423.118338000     A.U. after    1 cycles

 The electronic state is 1-A.
 Alpha  occ. eigenvalues --  -19.16494 -19.13039 -10.24055 -10.22946 -10.18870
 Alpha  occ. eigenvalues --  -10.18797 -10.18417 -10.18068 -10.17970  -1.05300
 Alpha  occ. eigenvalues --   -1.01281  -0.89164  -0.78855  -0.67196  -0.67066
 Alpha  occ. eigenvalues --   -0.60172  -0.58157  -0.54183  -0.52293  -0.49409
 Alpha  occ. eigenvalues --   -0.46942  -0.46225  -0.41638  -0.40854  -0.39312
 Alpha  occ. eigenvalues --   -0.39012  -0.36181  -0.34189  -0.32947  -0.30722
 Alpha  occ. eigenvalues --   -0.29939  -0.28383  -0.24658  -0.22776
 Alpha virt. eigenvalues --    0.06138   0.08101   0.09091   0.09951   0.12106
 Alpha virt. eigenvalues --    0.14391   0.14729   0.15424   0.17125   0.17591
 Alpha virt. eigenvalues --    0.18153   0.18437   0.21229   0.22709   0.23124

 Mulliken charges:
               1
     1  O   -0.453605
     2  C    0.091281
     3  C   -0.201488
     4  C   -0.020666
     5  C   -0.240334
     6  C   -0.243546
     7  C   -0.094095
     8  C    0.316412
     9  O   -0.467196
    10  H    0.290419
    11  H    0.092488
    12  H    0.092591
    13  H    0.069332
    14  H    0.106590
    15  H    0.099568
    16  H    0.105555
    17  H    0.100108
    18  H    0.063528
    19  H    0.293059
 Sum of Mulliken charges =   0.00000

 Dipole moment (field-independent basis, Debye):
    X=             -1.1246    Y=              1.8928    Z=              1.3979  Tot=              2.6080
 Quadrupole moment (field-independent basis, Debye-Ang):
   XX=            -53.3524   YY=            -53.6616   ZZ=            -51.8178
   XY=              3.9513   XZ=              2.4808   YZ=              2.4636

  Exact polarizability:  84.536   0.734  70.819   0.758   0.337  67.348
 Approx polarizability: 113.412   1.633 109.450  -2.061  -0.355 104.127

                      1                      2                      3
                      A                      A                      A
 Frequencies --    160.6890               205.0455               241.9377
 Red. masses --      2.9292                 4.0932                 2.4327
 Frc consts  --      0.0446                 0.1014                 0.0839
 IR Inten    --      1.4452                 1.4094                 1.8061

                      4                      5                      6
                      A                      A                      A
 Frequencies --    268.7180               303.3552               341.5529
 Red. masses --      2.4220                 1.4683                 2.7950
 Frc consts  --      0.1030                 0.0796                 0.1921
 IR Inten    --     10.0845                36.0327                17.1371

                      7                      8                      9
                      A                      A                      A
 Frequencies --    388.6756               418.4777               474.2603
 Red. masses --      1.5338                 2.2321                 2.6448
 Frc consts  --      0.1365                 0.2303                 0.3505
 IR Inten    --     58.6297                27.0455                13.5110

                     10                     11                     12
                      A                      A                      A
 Frequencies --    559.7491               659.4592               689.6173
 Red. masses --      3.8116                 3.9562                 3.4231
 Frc consts  --      0.7036                 1.0137                 0.9591
 IR Inten    --      0.8569                 5.0204                15.7746

                     13                     14                     15
                      A                      A                      A
 Frequencies --    741.2745               801.9673               843.9939
 Red. masses --      1.3581                 4.0637                 2.4033
 Frc consts  --      0.4397                 1.5399                 1.0086
 IR Inten    --      5.1562                 9.3143                 3.4951

                     16                     17                     18
                      A                      A                      A
 Frequencies --    866.3139               886.3417               891.6301
 Red. masses --      1.7441                 2.6389                 1.9002
 Frc consts  --      0.7712                 1.2215                 0.8901
 IR Inten    --      5.4485                 8.5543                 5.4323

                     19                     20                     21
                      A                      A                      A
 Frequencies --    940.7294               948.1415               983.1259
 Red. masses --      1.6332                 2.5110                 2.3629
 Frc consts  --      0.8516                 1.3300                 1.3456
 IR Inten    --      7.0507                 1.4646                 0.9594

                     22                     23                     24
                      A                      A                      A
 Frequencies --   1015.4533              1069.2156              1084.3739
 Red. masses --      1.8448                 2.0285                 1.3888
 Frc consts  --      1.1208                 1.3663                 0.9622
 IR Inten    --      8.3891                11.8493                33.9811

                     25                     26                     27
                      A                      A                      A
 Frequencies --   1087.5114              1108.4456              1161.0376
 Red. masses --      1.9593                 2.4785                 2.0287
 Frc consts  --      1.3653                 1.7942                 1.6112
 IR Inten    --      8.5756                15.1720                42.8619

                     28                     29                     30
                      A                      A                      A
 Frequencies --   1184.3508              1204.6028              1228.0012
 Red. masses --      1.7906                 1.6334                 1.5552
 Frc consts  --      1.4798                 1.3965                 1.3818
 IR Inten    --     27.0331                11.8416                 2.0163

                     31                     32                     33
                      A                      A                      A
 Frequencies --   1231.2728              1241.3945              1257.4953
 Red. masses --      1.5340                 1.4883                 1.5131
 Frc consts  --      1.3702                 1.3514                 1.4097
 IR Inten    --     99.5811                 7.2185                48.5042

                     34                     35                     36
                      A                      A                      A
 Frequencies --   1274.1696              1294.6066              1312.8278
 Red. masses --      1.5141                 1.5350                 1.4809
 Frc consts  --      1.4483                 1.5158                 1.5038
 IR Inten    --     15.3172                 3.9200                11.9622

                     37                     38                     39
                      A                      A                      A
 Frequencies --   1345.9020              1401.1764              1452.5262
 Red. masses --      1.7720                 1.3805                 2.2963
 Frc consts  --      1.8912                 1.5968                 2.8545
 IR Inten    --     17.4167                46.3966                55.3350

                     40                     41                     42
                      A                      A                      A
 Frequencies --   1475.4692              1493.1571              3061.1988
 Red. masses --      1.0809                 1.1123                 1.0577
 Frc consts  --      1.3864                 1.4611                 5.8397
 IR Inten    --      1.2398                 3.7206                30.8178

                     43                     44                     45
                      A                      A                      A
 Frequencies --   3066.7955              3086.3694              3099.9040
 Red. masses --      1.0603                 1.0895                 1.0924
 Frc consts  --      5.8756                 6.1146                 6.1848
 IR Inten    --     42.1517                28.2581                21.8434

                     46                     47                     48
                      A                      A                      A
 Frequencies --   3105.4427              3122.2909              3129.3286
 Red. masses --      1.1044                 1.1035                 1.0904
 Frc consts  --      6.2750                 6.3380                 6.2913
 IR Inten    --      3.8998                48.6592                35.4782

                     49                     50                     51
                      A                      A                      A
 Frequencies --   3180.8686              3749.4654              3804.9060
 Red. masses --      1.0927                 1.0654                 1.0664
 Frc consts  --      6.5141                 8.8245                 9.0958
 IR Inten    --     11.8731                51.4813                35.9019

 - Thermochemistry -
 -------------------
 Temperature   298.150 Kelvin.  Pressure   1.00000 Atm.
 Atom     1 has atomic number  8 and mass  15.99491

 Molecular mass:   126.06808 amu.
 Principal axes and moments of inertia in atomic units:
                           1         2         3
     Eigenvalues --   600.306321263.425661452.53484
           X            0.99981   0.01145   0.01580
           Y           -0.01177   0.99972   0.02031
           Z           -0.01557  -0.02049   0.99967
 This molecule is an asymmetric top.
 Rotational symmetry number  1.
 Warning -- assumption of classical behavior for rotation
           may cause significant error
 Rotational temperatures (Kelvin)      0.14428     0.06855     0.05963
 Rotational constants (GHZ):           3.00637     1.42845     1.24248
 Zero-point vibrational energy     418361.7 (Joules/Mol)
                                   99.99085 (Kcal/Mol)
 Warning -- explicit consideration of  10 degrees of freedom as
           vibrations may cause significant error
 Vibrational temperatures:    231.20   295.01   348.09   386.62   436.46
          (Kelvin)            491.42   559.22   602.10   682.35   805.35
                              948.81   992.20  1066.53  1153.85  1214.32
                             1246.43  1275.25  1282.86  1353.50  1364.16
                             1414.50  1461.01  1538.36  1560.17  1564.68
                             1594.80  1670.47  1704.01  1733.15  1766.82
                             1771.52  1786.09  1809.25  1833.24  1862.65
                             1888.86  1936.45  2015.98  2089.86  2122.87
                             2148.32  4404.38  4412.43  4440.59  4460.06
                             4468.03  4492.27  4502.40  4576.55  5394.64
                             5474.40

 Zero-point correction=                           0.159346 (Hartree/Particle)
 Thermal correction to Energy=                    0.167252
 Thermal correction to Enthalpy=                  0.168197
 Thermal correction to Gibbs Free Energy=         0.127541
 Sum of electronic and zero-point Energies=           -422.958992
 Sum of electronic and thermal Energies=              -422.951086
 Sum of electronic and thermal Enthalpies=            -422.950141
 Sum of electronic and thermal Free Energies=         -422.990797

                     E (Thermal)             CV                S
                      KCal/Mol        Cal/Mol-Kelvin    Cal/Mol-Kelvin
 Total                  104.952             32.229             85.568
 Electronic               0.000              0.000              0.000
 Translational            0.889              2.981             40.409
 Rotational               0.889              2.981             28.490
 Vibrational            103.175             26.268             16.669
 Vibration     1          0.622              1.891              2.542
 Vibration     2          0.640              1.833              2.087
 Vibration     3          0.658              1.776              1.789
 Vibration     4          0.673              1.731              1.604
 Vibration     5          0.695              1.667              1.398
 Vibration     6          0.721              1.592              1.205
 Vibration     7          0.757              1.494              1.005
 Vibration     8          0.781              1.430              0.897
 Vibration     9          0.831              1.307              0.726
 Vibration    10          0.915              1.118              0.524

 Optimization completed.
    -- Stationary point found.
 Normal termination of Gaussian 09 at Mon Jan 27 23:40:15 2020.
