 Gaussian 09, Revision D.01,
 Gaussian 09:  ES64L-G09RevD.01 24-Apr-2013

 -----------------------------
 # b3lyp 6-31G(2df,p) opt Freq
 -----------------------------

 -----
 titel
 -----
 Symbolic Z-matrix:
 Charge =  0 Multiplicity = 1

 SCF Done:  E(RB3LYP) =  -423.115401108     A.U. after   14 cycles
 Optimization completed.
    -- Stationary point found.
 Normal termination of Gaussian 09 at Tue Jan 28 03:19:10 2020.

 ----------------------------------------------------------------------
 #N Geom=AllCheck Guess=TCheck SCRF=Check GenChk RB3LYP/6-31G(2df,p) Fr
 eq
 ----------------------------------------------------------------------

 Structure from the checkpoint file:  "/scratch/puck/g09_40285162-2b38-4bdd-a6e2-61361a2b0f83/Gau-45687.chk"
 -----
 titel
 -----
 Charge =  0 Multiplicity = 1

                         Standard orientation:
 ---------------------------------------------------------------------
 Center     Atomic      Atomic             Coordinates (Angstroms)
 Number     Number       Type             X           Y           Z
 ---------------------------------------------------------------------
      1          8           0        2.233986   -1.179250    0.102157
      2          6           0        1.191604   -0.474522   -0.537854
      3          6           0        1.301515    1.117587   -0.458215
      4          6           0       -0.045489    1.505097    0.240915
      5          6           0       -0.114927    0.407505    1.319611
      6          6           0       -0.202492   -0.544452    0.063436
      7          6           0       -1.535835   -1.288864   -0.005359
      8          8           0       -2.211857   -0.003653   -0.197661
      9          6           0       -0.957784    0.606312   -0.626272
     10          1           0        2.214327   -0.963261    1.040353
     11          1           0        1.212799   -0.821024   -1.574238
     12          1           0        2.167953    1.406650    0.143402
     13          1           0        1.410117    1.569607   -1.448531
     14          1           0       -0.201020    2.566099    0.445996
     15          1           0        0.742902    0.302935    1.991673
     16          1           0       -1.039973    0.409329    1.892697
     17          1           0       -1.661636   -1.932602   -0.885848
     18          1           0       -1.887831   -1.806184    0.892319
     19          1           0       -0.954217    0.759689   -1.711369
 ---------------------------------------------------------------------

 SCF Done:  E(RB3LYP) =  -423.115401108     A.U. after    1 cycles

 The electronic state is 1-A.
 Alpha  occ. eigenvalues --  -19.13934 -19.13806 -10.24229 -10.23829 -10.23126
 Alpha  occ. eigenvalues --  -10.20198 -10.19901 -10.19046 -10.19026  -1.04202
 Alpha  occ. eigenvalues --   -1.02157  -0.87803  -0.72214  -0.71479  -0.66803
 Alpha  occ. eigenvalues --   -0.64441  -0.57702  -0.53842  -0.52135  -0.49075
 Alpha  occ. eigenvalues --   -0.46921  -0.45959  -0.43549  -0.41636  -0.40157
 Alpha  occ. eigenvalues --   -0.38000  -0.35766  -0.34817  -0.33894  -0.32732
 Alpha  occ. eigenvalues --   -0.31008  -0.28272  -0.25580  -0.25090
 Alpha virt. eigenvalues --    0.06125   0.07357   0.09466   0.10225   0.12708
 Alpha virt. eigenvalues --    0.13466   0.14210   0.15355   0.16355   0.16896
 Alpha virt. eigenvalues --    0.17194   0.17947   0.19032   0.21171   0.21924

 Mulliken charges:
               1
     1  O   -0.436431
     2  C    0.036219
     3  C   -0.257803
     4  C   -0.082769
     5  C   -0.275964
     6  C    0.260209
     7  C   -0.204968
     8  O   -0.312944
     9  C    0.135902
    10  H    0.277825
    11  H    0.094020
    12  H    0.104378
    13  H    0.106264
    14  H    0.066164
    15  H    0.075090
    16  H    0.124079
    17  H    0.107472
    18  H    0.110091
    19  H    0.073166
 Sum of Mulliken charges =   0.00000

 Dipole moment (field-independent basis, Debye):
    X=              0.6584    Y=              0.4525    Z=              0.6317  Tot=              1.0185
 Quadrupole moment (field-independent basis, Debye-Ang):
   XX=            -61.8433   YY=            -53.0680   ZZ=            -49.4107
   XY=              4.5533   XZ=              1.6797   YZ=             -1.0351

  Exact polarizability:  77.072   5.731  74.274   0.194  -0.641  71.014
 Approx polarizability: 112.464   3.379 110.093   1.541  -1.815 109.590

                      1                      2                      3
                      A                      A                      A
 Frequencies --    183.0705               244.1925               294.3506
 Red. masses --      3.5190                 1.8204                 1.7945
 Frc consts  --      0.0695                 0.0640                 0.0916
 IR Inten    --      6.1662                13.5867                53.8285

                      4                      5                      6
                      A                      A                      A
 Frequencies --    312.1441               331.1470               448.2398
 Red. masses --      2.9583                 2.3216                 2.0476
 Frc consts  --      0.1698                 0.1500                 0.2424
 IR Inten    --      5.0022                17.2907                 0.3055

                      7                      8                      9
                      A                      A                      A
 Frequencies --    451.1204               496.2986               585.6930
 Red. masses --      2.5388                 4.4408                 3.8943
 Frc consts  --      0.3044                 0.6445                 0.7871
 IR Inten    --      0.2536                 4.0782                 2.6327

                     10                     11                     12
                      A                      A                      A
 Frequencies --    698.9615               740.4224               797.4804
 Red. masses --      3.0158                 3.9728                 2.7551
 Frc consts  --      0.8681                 1.2832                 1.0324
 IR Inten    --     10.2155                 7.8887                 6.9731

                     13                     14                     15
                      A                      A                      A
 Frequencies --    850.2074               866.8977               890.1509
 Red. masses --      2.9116                 2.7042                 2.5473
 Frc consts  --      1.2400                 1.1974                 1.1892
 IR Inten    --      0.6840                 3.6642                 8.8094

                     16                     17                     18
                      A                      A                      A
 Frequencies --    900.5504               935.0938               943.4721
 Red. masses --      2.3920                 2.3692                 3.5579
 Frc consts  --      1.1429                 1.2206                 1.8660
 IR Inten    --     11.6019                24.1979                25.8394

                     19                     20                     21
                      A                      A                      A
 Frequencies --    968.4543              1011.7411              1022.0418
 Red. masses --      1.7980                 2.4589                 2.7857
 Frc consts  --      0.9936                 1.4830                 1.7144
 IR Inten    --      1.0481                32.9815                27.6179

                     22                     23                     24
                      A                      A                      A
 Frequencies --   1056.8390              1075.7308              1084.8985
 Red. masses --      1.4766                 1.4860                 2.5030
 Frc consts  --      0.9717                 1.0132                 1.7358
 IR Inten    --      6.4084                12.8410                65.8152

                     25                     26                     27
                      A                      A                      A
 Frequencies --   1095.7409              1138.5159              1154.6773
 Red. masses --      1.8883                 1.6395                 1.2153
 Frc consts  --      1.3358                 1.2521                 0.9547
 IR Inten    --     24.1657                36.4612                 7.5532

                     28                     29                     30
                      A                      A                      A
 Frequencies --   1176.8317              1217.9280              1235.3422
 Red. masses --      1.5746                 1.9327                 1.4651
 Frc consts  --      1.2848                 1.6891                 1.3174
 IR Inten    --     32.2596                 1.7063                 2.2838

                     31                     32                     33
                      A                      A                      A
 Frequencies --   1255.9470              1266.2218              1285.9194
 Red. masses --      1.6795                 1.6991                 1.4573
 Frc consts  --      1.5609                 1.6050                 1.4198
 IR Inten    --      1.9861                 7.1548                 3.1943

                     34                     35                     36
                      A                      A                      A
 Frequencies --   1300.5023              1308.1433              1336.0563
 Red. masses --      1.4176                 1.4931                 1.7281
 Frc consts  --      1.4126                 1.5054                 1.8175
 IR Inten    --      5.7167                 1.9638                 3.0270

                     37                     38                     39
                      A                      A                      A
 Frequencies --   1359.8082              1441.6081              1479.8282
 Red. masses --      1.5626                 1.2610                 1.0914
 Frc consts  --      1.7024                 1.5440                 1.4082
 IR Inten    --      4.1236                69.7769                 3.1694

                     40                     41                     42
                      A                      A                      A
 Frequencies --   1499.9946              1512.0110              3014.7600
 Red. masses --      1.1176                 1.1050                 1.0598
 Frc consts  --      1.4815                 1.4883                 5.6754
 IR Inten    --      4.4139                 0.8612                72.7952

                     43                     44                     45
                      A                      A                      A
 Frequencies --   3042.4164              3049.6508              3054.6028
 Red. masses --      1.0848                 1.0667                 1.0608
 Frc consts  --      5.9161                 5.8449                 5.8316
 IR Inten    --     55.9060                34.9961                24.0263

                     46                     47                     48
                      A                      A                      A
 Frequencies --   3080.6870              3084.8546              3093.7345
 Red. masses --      1.0874                 1.1058                 1.0901
 Frc consts  --      6.0802                 6.2000                 6.1471
 IR Inten    --     23.5084                36.5135                56.0323

                     49                     50                     51
                      A                      A                      A
 Frequencies --   3106.5395              3152.3996              3811.1160
 Red. masses --      1.1054                 1.0979                 1.0655
 Frc consts  --      6.2851                 6.4285                 9.1178
 IR Inten    --     31.1565                11.9709                10.3702

 - Thermochemistry -
 -------------------
 Temperature   298.150 Kelvin.  Pressure   1.00000 Atm.
 Atom     1 has atomic number  8 and mass  15.99491

 Molecular mass:   126.06808 amu.
 Principal axes and moments of inertia in atomic units:
                           1         2         3
     Eigenvalues --   601.525941103.895721339.74968
           X            0.99866   0.05170  -0.00255
           Y           -0.05171   0.99864  -0.00700
           Z            0.00219   0.00713   0.99997
 This molecule is an asymmetric top.
 Rotational symmetry number  1.
 Warning -- assumption of classical behavior for rotation
           may cause significant error
 Rotational temperatures (Kelvin)      0.14399     0.07846     0.06465
 Rotational constants (GHZ):           3.00027     1.63488     1.34707
 Zero-point vibrational energy     423149.3 (Joules/Mol)
                                  101.13511 (Kcal/Mol)
 Warning -- explicit consideration of   9 degrees of freedom as
           vibrations may cause significant error
 Vibrational temperatures:    263.40   351.34   423.50   449.11   476.45
          (Kelvin)            644.92   649.06   714.06   842.68  1005.65
                             1065.30  1147.39  1223.26  1247.27  1280.73
                             1295.69  1345.39  1357.44  1393.39  1455.67
                             1470.49  1520.55  1547.73  1560.92  1576.52
                             1638.07  1661.32  1693.20  1752.32  1777.38
                             1807.03  1821.81  1850.15  1871.13  1882.12
                             1922.28  1956.46  2074.15  2129.14  2158.15
                             2175.44  4337.56  4377.35  4387.76  4394.89
                             4432.42  4438.41  4451.19  4469.61  4535.59
                             5483.34

 Zero-point correction=                           0.161169 (Hartree/Particle)
 Thermal correction to Energy=                    0.168250
 Thermal correction to Enthalpy=                  0.169194
 Thermal correction to Gibbs Free Energy=         0.130141
 Sum of electronic and zero-point Energies=           -422.954232
 Sum of electronic and thermal Energies=              -422.947151
 Sum of electronic and thermal Enthalpies=            -422.946207
 Sum of electronic and thermal Free Energies=         -422.985260

                     E (Thermal)             CV                S
                      KCal/Mol        Cal/Mol-Kelvin    Cal/Mol-Kelvin
 Total                  105.579             29.624             82.195
 Electronic               0.000              0.000              0.000
 Translational            0.889              2.981             40.409
 Rotational               0.889              2.981             28.277
 Vibrational            103.801             23.662             13.509
 Vibration     1          0.631              1.863              2.297
 Vibration     2          0.660              1.772              1.772
 Vibration     3          0.689              1.684              1.449
 Vibration     4          0.700              1.651              1.351
 Vibration     5          0.714              1.613              1.254
 Vibration     6          0.807              1.365              0.801
 Vibration     7          0.810              1.358              0.792
 Vibration     8          0.852              1.258              0.667
 Vibration     9          0.943              1.062              0.475

 Optimization completed.
    -- Stationary point found.
 Normal termination of Gaussian 09 at Tue Jan 28 05:17:41 2020.
