 Gaussian 09, Revision D.01,
 Gaussian 09:  ES64L-G09RevD.01 24-Apr-2013

 -----------------------------
 # b3lyp 6-31G(2df,p) opt Freq
 -----------------------------

 -----
 titel
 -----
 Symbolic Z-matrix:
 Charge =  0 Multiplicity = 1

 SCF Done:  E(RB3LYP) =  -423.206878040     A.U. after   14 cycles
 Optimization completed.
    -- Stationary point found.
 Normal termination of Gaussian 09 at Mon Jan 27 21:59:55 2020.

 ----------------------------------------------------------------------
 #N Geom=AllCheck Guess=TCheck SCRF=Check GenChk RB3LYP/6-31G(2df,p) Fr
 eq
 ----------------------------------------------------------------------

 Structure from the checkpoint file:  "/scratch/puck/g09_604ad9e6-56a2-4fb0-89a9-d1f2e36916ef/Gau-98348.chk"
 -----
 titel
 -----
 Charge =  0 Multiplicity = 1

                         Standard orientation:
 ---------------------------------------------------------------------
 Center     Atomic      Atomic             Coordinates (Angstroms)
 Number     Number       Type             X           Y           Z
 ---------------------------------------------------------------------
      1          6           0       -1.573301    1.930257    0.277153
      2          6           0       -0.942723    0.700190   -0.363312
      3          6           0        0.255845    0.008386    0.329799
      4          8           0       -0.546040   -1.228762    0.459854
      5          6           0       -1.641335   -0.639152   -0.113868
      6          8           0       -2.719753   -1.112844   -0.281871
      7          6           0        1.516122   -0.207617   -0.441321
      8          6           0        2.682053    0.731887   -0.230056
      9          6           0        2.760125   -0.687199    0.264090
     10          1           0       -0.936641    2.810300    0.145531
     11          1           0       -2.543665    2.139775   -0.181652
     12          1           0       -1.734663    1.781322    1.349437
     13          1           0       -0.766757    0.862115   -1.431451
     14          1           0        0.465911    0.396863    1.332190
     15          1           0        1.360276   -0.571653   -1.453200
     16          1           0        3.266806    1.014775   -1.097606
     17          1           0        2.573176    1.521674    0.506181
     18          1           0        3.401764   -1.384473   -0.261780
     19          1           0        2.699425   -0.858365    1.333575
 ---------------------------------------------------------------------

 SCF Done:  E(RB3LYP) =  -423.206878040     A.U. after    1 cycles

 The electronic state is 1-A.
 Alpha  occ. eigenvalues --  -19.17355 -19.12813 -10.30040 -10.25567 -10.21168
 Alpha  occ. eigenvalues --  -10.20690 -10.20195 -10.19862 -10.19596  -1.09838
 Alpha  occ. eigenvalues --   -1.02544  -0.87378  -0.79852  -0.70910  -0.66274
 Alpha  occ. eigenvalues --   -0.61339  -0.59271  -0.53539  -0.51604  -0.49498
 Alpha  occ. eigenvalues --   -0.49077  -0.46438  -0.44008  -0.41977  -0.41016
 Alpha  occ. eigenvalues --   -0.38369  -0.37849  -0.37642  -0.36789  -0.34884
 Alpha  occ. eigenvalues --   -0.31291  -0.30011  -0.29138  -0.26408
 Alpha virt. eigenvalues --    0.01512   0.08230   0.08318   0.09275   0.10092
 Alpha virt. eigenvalues --    0.12667   0.13099   0.13820   0.14154   0.15916
 Alpha virt. eigenvalues --    0.16657   0.17603   0.18667   0.21389   0.21663

 Mulliken charges:
               1
     1  C   -0.414091
     2  C   -0.211748
     3  C    0.125764
     4  O   -0.262713
     5  C    0.449419
     6  O   -0.328992
     7  C    0.006998
     8  C   -0.273256
     9  C   -0.266422
    10  H    0.126178
    11  H    0.143609
    12  H    0.129200
    13  H    0.111369
    14  H    0.088066
    15  H    0.093070
    16  H    0.121355
    17  H    0.116903
    18  H    0.122781
    19  H    0.122511
 Sum of Mulliken charges =   0.00000

 Dipole moment (field-independent basis, Debye):
    X=              3.1643    Y=              2.9798    Z=             -0.2119  Tot=              4.3516
 Quadrupole moment (field-independent basis, Debye-Ang):
   XX=            -59.7351   YY=            -55.6509   ZZ=            -50.6248
   XY=             -6.0919   XZ=             -1.4773   YZ=              0.8468

  Exact polarizability:  93.764   0.892  72.777   2.240  -0.180  62.395
 Approx polarizability: 125.598   6.229 105.666   6.719  -1.348  96.955

                      1                      2                      3
                      A                      A                      A
 Frequencies --     74.5916                81.6212               154.6596
 Red. masses --      3.0699                 5.1896                 2.7093
 Frc consts  --      0.0101                 0.0204                 0.0382
 IR Inten    --      0.6353                 0.9691                 0.3429

                      4                      5                      6
                      A                      A                      A
 Frequencies --    199.6595               213.4199               239.6986
 Red. masses --      2.6796                 1.1102                 3.4892
 Frc consts  --      0.0629                 0.0298                 0.1181
 IR Inten    --      1.2308                 0.1432                 4.0543

                      7                      8                      9
                      A                      A                      A
 Frequencies --    330.0285               386.3602               418.9791
 Red. masses --      3.6849                 3.4811                 3.8875
 Frc consts  --      0.2365                 0.3062                 0.4021
 IR Inten    --      1.1329                 1.2962                 2.2836

                     10                     11                     12
                      A                      A                      A
 Frequencies --    554.0865               694.2626               739.6171
 Red. masses --      3.5100                 4.9517                 3.0228
 Frc consts  --      0.6349                 1.4062                 0.9743
 IR Inten    --      4.4367                 2.9620                 2.0148

                     13                     14                     15
                      A                      A                      A
 Frequencies --    779.4306               827.8000               835.0756
 Red. masses --      1.2451                 2.0774                 1.7229
 Frc consts  --      0.4457                 0.8387                 0.7079
 IR Inten    --      2.6686                 1.7469                10.7626

                     16                     17                     18
                      A                      A                      A
 Frequencies --    871.7680               888.3572               925.0957
 Red. masses --      1.6334                 4.6367                 3.5312
 Frc consts  --      0.7314                 2.1559                 1.7805
 IR Inten    --      5.1351                67.0893                15.8247

                     19                     20                     21
                      A                      A                      A
 Frequencies --    943.2554              1007.8555              1063.9897
 Red. masses --      3.6069                 1.6265                 1.3096
 Frc consts  --      1.8908                 0.9734                 0.8735
 IR Inten    --     23.8643                69.7095                 8.7128

                     22                     23                     24
                      A                      A                      A
 Frequencies --   1070.4923              1083.0454              1094.2674
 Red. masses --      1.7464                 1.3721                 1.9460
 Frc consts  --      1.1791                 0.9483                 1.3729
 IR Inten    --      8.2881                 1.5913                 8.3785

                     25                     26                     27
                      A                      A                      A
 Frequencies --   1123.6853              1132.3568              1142.6318
 Red. masses --      1.7187                 1.4952                 2.2096
 Frc consts  --      1.2786                 1.1296                 1.6997
 IR Inten    --     14.9395                10.1314                85.3220

                     28                     29                     30
                      A                      A                      A
 Frequencies --   1196.7316              1202.6569              1225.6008
 Red. masses --      1.3926                 2.1378                 1.8763
 Frc consts  --      1.1751                 1.8218                 1.6606
 IR Inten    --      0.6054                 8.0695                 1.9664

                     31                     32                     33
                      A                      A                      A
 Frequencies --   1251.3873              1278.8720              1323.4345
 Red. masses --      1.6967                 1.5489                 1.3894
 Frc consts  --      1.5654                 1.4926                 1.4337
 IR Inten    --      5.5788                33.8930                 7.9268

                     34                     35                     36
                      A                      A                      A
 Frequencies --   1357.5348              1412.6828              1446.9469
 Red. masses --      1.6729                 1.2232                 1.6650
 Frc consts  --      1.8165                 1.4383                 2.0538
 IR Inten    --      6.9998                 1.5442                23.4314

                     37                     38                     39
                      A                      A                      A
 Frequencies --   1472.0504              1496.5059              1497.6703
 Red. masses --      1.0862                 1.0500                 1.0474
 Frc consts  --      1.3868                 1.3855                 1.3842
 IR Inten    --      1.8919                 5.1673                 6.2994

                     40                     41                     42
                      A                      A                      A
 Frequencies --   1508.3761              1932.0925              3040.2027
 Red. masses --      1.4099                12.8113                 1.0357
 Frc consts  --      1.8900                28.1773                 5.6403
 IR Inten    --      1.7469               455.0352                15.1757

                     43                     44                     45
                      A                      A                      A
 Frequencies --   3053.5374              3067.5789              3111.5211
 Red. masses --      1.0854                 1.0843                 1.1021
 Frc consts  --      5.9630                 6.0114                 6.2868
 IR Inten    --     17.0611                 9.6092                19.4851

                     46                     47                     48
                      A                      A                      A
 Frequencies --   3118.6331              3135.2013              3140.1718
 Red. masses --      1.1014                 1.0518                 1.0583
 Frc consts  --      6.3113                 6.0916                 6.1484
 IR Inten    --     13.4701                15.2623                11.9343

                     49                     50                     51
                      A                      A                      A
 Frequencies --   3147.2974              3214.7189              3229.8013
 Red. masses --      1.0886                 1.1175                 1.1154
 Frc consts  --      6.3535                 6.8042                 6.8555
 IR Inten    --      6.6849                 0.6728                14.1614

 - Thermochemistry -
 -------------------
 Temperature   298.150 Kelvin.  Pressure   1.00000 Atm.
 Atom     1 has atomic number  6 and mass  12.00000

 Molecular mass:   126.06808 amu.
 Principal axes and moments of inertia in atomic units:
                           1         2         3
     Eigenvalues --   563.724181696.285312091.40724
           X            0.99932  -0.03663  -0.00461
           Y            0.03668   0.99924   0.01332
           Z            0.00412  -0.01348   0.99990
 This molecule is an asymmetric top.
 Rotational symmetry number  1.
 Warning -- assumption of classical behavior for rotation
           may cause significant error
 Rotational temperatures (Kelvin)      0.15365     0.05106     0.04141
 Rotational constants (GHZ):           3.20146     1.06394     0.86293
 Zero-point vibrational energy     417121.7 (Joules/Mol)
                                   99.69447 (Kcal/Mol)
 Warning -- explicit consideration of  10 degrees of freedom as
           vibrations may cause significant error
 Vibrational temperatures:    107.32   117.43   222.52   287.27   307.06
          (Kelvin)            344.87   474.84   555.89   602.82   797.21
                              998.89  1064.14  1121.43  1191.02  1201.49
                             1254.28  1278.15  1331.00  1357.13  1450.08
                             1530.84  1540.20  1558.26  1574.40  1616.73
                             1629.21  1643.99  1721.83  1730.35  1763.36
                             1800.46  1840.01  1904.12  1953.19  2032.53
                             2081.83  2117.95  2153.14  2154.81  2170.21
                             2779.85  4374.17  4393.35  4413.56  4476.78
                             4487.01  4510.85  4518.00  4528.25  4625.26
                             4646.96

 Zero-point correction=                           0.158873 (Hartree/Particle)
 Thermal correction to Energy=                    0.167670
 Thermal correction to Enthalpy=                  0.168614
 Thermal correction to Gibbs Free Energy=         0.124808
 Sum of electronic and zero-point Energies=           -423.048005
 Sum of electronic and thermal Energies=              -423.039208
 Sum of electronic and thermal Enthalpies=            -423.038264
 Sum of electronic and thermal Free Energies=         -423.082070

                     E (Thermal)             CV                S
                      KCal/Mol        Cal/Mol-Kelvin    Cal/Mol-Kelvin
 Total                  105.214             32.381             92.198
 Electronic               0.000              0.000              0.000
 Translational            0.889              2.981             40.409
 Rotational               0.889              2.981             29.082
 Vibrational            103.437             26.419             22.707
 Vibration     1          0.599              1.966              4.028
 Vibration     2          0.600              1.962              3.852
 Vibration     3          0.620              1.897              2.614
 Vibration     4          0.638              1.840              2.136
 Vibration     5          0.644              1.820              2.014
 Vibration     6          0.657              1.780              1.805
 Vibration     7          0.713              1.616              1.260
 Vibration     8          0.755              1.499              1.014
 Vibration     9          0.782              1.429              0.895
 Vibration    10          0.909              1.131              0.536

 Normal termination of Gaussian 09 at Mon Jan 27 22:39:39 2020.
