 Gaussian 09, Revision D.01,
 Gaussian 09:  ES64L-G09RevD.01 24-Apr-2013

 -----------------------------
 # b3lyp 6-31G(2df,p) opt Freq
 -----------------------------

 -----
 titel
 -----
 Symbolic Z-matrix:
 Charge =  0 Multiplicity = 1

 SCF Done:  E(RB3LYP) =  -423.165661917     A.U. after   14 cycles
 Optimization completed.
    -- Stationary point found.
 Normal termination of Gaussian 09 at Mon Jan 27 16:27:57 2020.

 ----------------------------------------------------------------------
 #N Geom=AllCheck Guess=TCheck SCRF=Check GenChk RB3LYP/6-31G(2df,p) Fr
 eq
 ----------------------------------------------------------------------

 Structure from the checkpoint file:  "/scratch/puck/g09_91e10a23-1bb4-462a-96cf-fa365d9e9844/Gau-60143.chk"
 -----
 titel
 -----
 Charge =  0 Multiplicity = 1

                         Standard orientation:
 ---------------------------------------------------------------------
 Center     Atomic      Atomic             Coordinates (Angstroms)
 Number     Number       Type             X           Y           Z
 ---------------------------------------------------------------------
      1          8           0        1.680167    1.238593   -0.625555
      2          6           0        1.306546    0.027698   -0.019244
      3          6           0        2.358635   -0.707705    0.776684
      4          6           0        1.960652   -1.188605   -0.604971
      5          6           0       -0.126714   -0.047486    0.416790
      6          6           0       -0.892169    1.158783    0.829255
      7          6           0       -1.219483    0.501067   -0.507432
      8          6           0       -2.471430   -0.278535   -0.608856
      9          8           0       -2.990991   -0.856687    0.319687
     10          1           0        1.843723    1.881211    0.073393
     11          1           0        3.324779   -0.224498    0.873225
     12          1           0        2.048494   -1.286102    1.640230
     13          1           0        2.661417   -1.015733   -1.413061
     14          1           0        1.375266   -2.097602   -0.689112
     15          1           0       -0.406080   -0.970342    0.916262
     16          1           0       -1.638236    1.041572    1.606843
     17          1           0       -0.414621    2.130195    0.771554
     18          1           0       -0.879325    1.009375   -1.401805
     19          1           0       -2.925065   -0.314617   -1.623939
 ---------------------------------------------------------------------

 SCF Done:  E(RB3LYP) =  -423.165661917     A.U. after    1 cycles

 The electronic state is 1-A.
 Alpha  occ. eigenvalues --  -19.15354 -19.12845 -10.26417 -10.24999 -10.20806
 Alpha  occ. eigenvalues --  -10.19962 -10.19785 -10.19172 -10.18926  -1.03982
 Alpha  occ. eigenvalues --   -1.03550  -0.87505  -0.84593  -0.67874  -0.64190
 Alpha  occ. eigenvalues --   -0.61252  -0.57810  -0.55320  -0.52664  -0.50467
 Alpha  occ. eigenvalues --   -0.47960  -0.45018  -0.44566  -0.41972  -0.39581
 Alpha  occ. eigenvalues --   -0.38497  -0.37773  -0.37190  -0.34108  -0.33044
 Alpha  occ. eigenvalues --   -0.30290  -0.27912  -0.26093  -0.24581
 Alpha virt. eigenvalues --   -0.02023   0.06548   0.08392   0.10608   0.12128
 Alpha virt. eigenvalues --    0.13015   0.13827   0.15010   0.16016   0.16565
 Alpha virt. eigenvalues --    0.18652   0.20010   0.20619   0.21987   0.22448

 Mulliken charges:
               1
     1  O   -0.460504
     2  C    0.380026
     3  C   -0.327645
     4  C   -0.291931
     5  C   -0.038497
     6  C   -0.307921
     7  C   -0.114371
     8  C    0.131718
     9  O   -0.278297
    10  H    0.286445
    11  H    0.116091
    12  H    0.118862
    13  H    0.126140
    14  H    0.119790
    15  H    0.109346
    16  H    0.138514
    17  H    0.108703
    18  H    0.107491
    19  H    0.076043
 Sum of Mulliken charges =   0.00000

 Dipole moment (field-independent basis, Debye):
    X=              2.1679    Y=              1.3147    Z=              0.0841  Tot=              2.5368
 Quadrupole moment (field-independent basis, Debye-Ang):
   XX=            -59.6593   YY=            -51.2206   ZZ=            -52.5396
   XY=             -2.8094   XZ=              5.6077   YZ=              2.8193

  Exact polarizability:  92.194   1.159  71.038   3.924   1.322  71.468
 Approx polarizability: 119.504   6.364 108.256   1.845  -2.054 112.844

                      1                      2                      3
                      A                      A                      A
 Frequencies --     60.8371                88.1705               138.2380
 Red. masses --      3.6376                 5.1243                 3.0303
 Frc consts  --      0.0079                 0.0235                 0.0341
 IR Inten    --      1.4878                 9.3333                 5.9087

                      4                      5                      6
                      A                      A                      A
 Frequencies --    194.7425               234.8532               295.9219
 Red. masses --      2.5133                 7.3086                 2.3148
 Frc consts  --      0.0562                 0.2375                 0.1194
 IR Inten    --      1.7283                 2.3912                 0.5245

                      7                      8                      9
                      A                      A                      A
 Frequencies --    322.1938               334.4782               386.2043
 Red. masses --      1.3770                 2.9737                 1.7190
 Frc consts  --      0.0842                 0.1960                 0.1511
 IR Inten    --    101.2438                 1.7335                22.1474

                     10                     11                     12
                      A                      A                      A
 Frequencies --    475.4896               522.6475               690.9723
 Red. masses --      3.9934                 2.8683                 3.6917
 Frc consts  --      0.5320                 0.4616                 1.0385
 IR Inten    --     10.5328                 5.0814                10.2659

                     13                     14                     15
                      A                      A                      A
 Frequencies --    720.9721               770.9269               814.2539
 Red. masses --      2.4539                 1.0964                 2.3697
 Frc consts  --      0.7515                 0.3839                 0.9257
 IR Inten    --      0.6315                 1.4766                 4.4502

                     16                     17                     18
                      A                      A                      A
 Frequencies --    825.1285               883.2443               905.0436
 Red. masses --      3.0082                 1.7781                 2.0962
 Frc consts  --      1.2067                 0.8173                 1.0116
 IR Inten    --     11.8595                 3.8291                29.2027

                     19                     20                     21
                      A                      A                      A
 Frequencies --    920.1297               961.5750               986.9045
 Red. masses --      1.7535                 2.2727                 2.4212
 Frc consts  --      0.8747                 1.2381                 1.3894
 IR Inten    --     22.8742                 7.0723                19.5281

                     22                     23                     24
                      A                      A                      A
 Frequencies --   1023.2709              1042.8017              1057.9693
 Red. masses --      2.1432                 1.4174                 1.5767
 Frc consts  --      1.3222                 0.9081                 1.0398
 IR Inten    --     52.7670                16.8326                14.6792

                     25                     26                     27
                      A                      A                      A
 Frequencies --   1058.2663              1077.3314              1085.0911
 Red. masses --      1.5656                 1.4231                 1.4200
 Frc consts  --      1.0330                 0.9732                 0.9851
 IR Inten    --      3.8503                 0.8732                 3.0717

                     28                     29                     30
                      A                      A                      A
 Frequencies --   1115.8778              1140.8207              1189.6674
 Red. masses --      1.1592                 1.2515                 1.2725
 Frc consts  --      0.8504                 0.9597                 1.0611
 IR Inten    --     13.1001                 3.3631                 0.1151

                     31                     32                     33
                      A                      A                      A
 Frequencies --   1219.2679              1249.4494              1290.2992
 Red. masses --      1.9867                 1.8157                 1.6955
 Frc consts  --      1.7401                 1.6700                 1.6632
 IR Inten    --      7.8943                60.6699                67.5759

                     34                     35                     36
                      A                      A                      A
 Frequencies --   1338.4618              1361.2776              1423.4504
 Red. masses --      1.9203                 1.7970                 1.2881
 Frc consts  --      2.0269                 1.9619                 1.5378
 IR Inten    --     36.2160                31.2561                 1.2483

                     37                     38                     39
                      A                      A                      A
 Frequencies --   1432.2946              1453.5253              1473.0714
 Red. masses --      1.3900                 1.0906                 1.5741
 Frc consts  --      1.6800                 1.3576                 2.0125
 IR Inten    --     19.0273                 2.2301                20.3743

                     40                     41                     42
                      A                      A                      A
 Frequencies --   1498.8814              1798.6918              2885.6045
 Red. masses --      1.6909                 9.2825                 1.0832
 Frc consts  --      2.2383                17.6942                 5.3140
 IR Inten    --      4.0628               162.2193               151.9894

                     43                     44                     45
                      A                      A                      A
 Frequencies --   3131.8219              3138.5854              3140.3015
 Red. masses --      1.0526                 1.0529                 1.0563
 Frc consts  --      6.0827                 6.1109                 6.1374
 IR Inten    --     11.2024                10.7900                 6.0032

                     46                     47                     48
                      A                      A                      A
 Frequencies --   3161.6152              3191.9150              3218.2166
 Red. masses --      1.0881                 1.0895                 1.1186
 Frc consts  --      6.4080                 6.5403                 6.8258
 IR Inten    --      3.4036                 4.0859                 1.7893

                     49                     50                     51
                      A                      A                      A
 Frequencies --   3233.9178              3235.3316              3798.9287
 Red. masses --      1.1172                 1.1162                 1.0661
 Frc consts  --      6.8842                 6.8840                 9.0653
 IR Inten    --      1.4433                10.1693                19.6348

 - Thermochemistry -
 -------------------
 Temperature   298.150 Kelvin.  Pressure   1.00000 Atm.
 Atom     1 has atomic number  8 and mass  15.99491

 Molecular mass:   126.06808 amu.
 Principal axes and moments of inertia in atomic units:
                           1         2         3
     Eigenvalues --   534.561841838.082922001.84835
           X            0.99973  -0.02128   0.00968
           Y            0.02081   0.99870   0.04660
           Z           -0.01066  -0.04638   0.99887
 This molecule is an asymmetric top.
 Rotational symmetry number  1.
 Warning -- assumption of classical behavior for rotation
           may cause significant error
 Rotational temperatures (Kelvin)      0.16203     0.04712     0.04327
 Rotational constants (GHZ):           3.37611     0.98186     0.90154
 Zero-point vibrational energy     412705.3 (Joules/Mol)
                                   98.63893 (Kcal/Mol)
 Warning -- explicit consideration of  11 degrees of freedom as
           vibrations may cause significant error
 Vibrational temperatures:     87.53   126.86   198.89   280.19   337.90
          (Kelvin)            425.77   463.56   481.24   555.66   684.12
                              751.97   994.15  1037.32  1109.19  1171.53
                             1187.17  1270.79  1302.15  1323.86  1383.49
                             1419.93  1472.26  1500.36  1522.18  1522.61
                             1550.04  1561.20  1605.50  1641.38  1711.66
                             1754.25  1797.68  1856.45  1925.75  1958.57
                             2048.03  2060.75  2091.30  2119.42  2156.55
                             2587.91  4151.74  4505.99  4515.72  4518.19
                             4548.85  4592.45  4630.29  4652.88  4654.91
                             5465.80

 Zero-point correction=                           0.157191 (Hartree/Particle)
 Thermal correction to Energy=                    0.166331
 Thermal correction to Enthalpy=                  0.167276
 Thermal correction to Gibbs Free Energy=         0.122883
 Sum of electronic and zero-point Energies=           -423.008471
 Sum of electronic and thermal Energies=              -422.999331
 Sum of electronic and thermal Enthalpies=            -422.998386
 Sum of electronic and thermal Free Energies=         -423.042779

                     E (Thermal)             CV                S
                      KCal/Mol        Cal/Mol-Kelvin    Cal/Mol-Kelvin
 Total                  104.374             34.116             93.433
 Electronic               0.000              0.000              0.000
 Translational            0.889              2.981             40.409
 Rotational               0.889              2.981             29.066
 Vibrational            102.597             28.154             23.958
 Vibration     1          0.597              1.973              4.430
 Vibration     2          0.601              1.957              3.700
 Vibration     3          0.614              1.915              2.828
 Vibration     4          0.635              1.847              2.182
 Vibration     5          0.655              1.787              1.842
 Vibration     6          0.690              1.681              1.440
 Vibration     7          0.707              1.631              1.299
 Vibration     8          0.716              1.607              1.238
 Vibration     9          0.755              1.500              1.015
 Vibration    10          0.832              1.304              0.722
 Vibration    11          0.878              1.200              0.604

 Normal termination of Gaussian 09 at Mon Jan 27 17:06:08 2020.
