 Gaussian 09, Revision D.01,
 Gaussian 09:  ES64L-G09RevD.01 24-Apr-2013

 -----------------------------
 # b3lyp 6-31G(2df,p) opt Freq
 -----------------------------

 -----
 titel
 -----
 Symbolic Z-matrix:
 Charge =  0 Multiplicity = 1

 SCF Done:  E(RB3LYP) =  -423.228717273     A.U. after   14 cycles
 Optimization completed.
    -- Stationary point found.
 Normal termination of Gaussian 09 at Tue Jan 28 01:55:43 2020.

 ----------------------------------------------------------------------
 #N Geom=AllCheck Guess=TCheck SCRF=Check GenChk RB3LYP/6-31G(2df,p) Fr
 eq
 ----------------------------------------------------------------------

 Structure from the checkpoint file:  "/scratch/puck/g09_19e4e755-8ea5-4c19-b495-c5d41bc204f5/Gau-190801.chk"
 -----
 titel
 -----
 Charge =  0 Multiplicity = 1

                         Standard orientation:
 ---------------------------------------------------------------------
 Center     Atomic      Atomic             Coordinates (Angstroms)
 Number     Number       Type             X           Y           Z
 ---------------------------------------------------------------------
      1          6           0       -2.169704   -1.310267    0.683281
      2          6           0       -1.785579    0.126859    0.412716
      3          6           0       -1.736339    0.655786   -1.015060
      4          6           0       -0.474193    0.479210   -0.239851
      5          6           0        0.440856    1.601374    0.225623
      6          6           0        1.670999    0.823512    0.707003
      7          6           0        1.611461   -0.474471   -0.093912
      8          8           0        2.468373   -1.290945   -0.261464
      9          8           0        0.365383   -0.604656   -0.635237
     10          1           0       -1.806582   -1.639009    1.663108
     11          1           0       -3.257871   -1.431516    0.672112
     12          1           0       -1.742347   -1.978556   -0.068151
     13          1           0       -2.123659    0.840451    1.161232
     14          1           0       -1.922514   -0.058493   -1.810343
     15          1           0       -2.077188    1.665309   -1.221528
     16          1           0        0.703977    2.251036   -0.616520
     17          1           0       -0.022223    2.219541    0.997066
     18          1           0        2.627907    1.321823    0.548609
     19          1           0        1.605444    0.562206    1.769223
 ---------------------------------------------------------------------

 SCF Done:  E(RB3LYP) =  -423.228717273     A.U. after    1 cycles

 The electronic state is 1-A.
 Alpha  occ. eigenvalues --  -19.18172 -19.12027 -10.30267 -10.25486 -10.20597
 Alpha  occ. eigenvalues --  -10.20576 -10.20153 -10.19312 -10.18183  -1.10020
 Alpha  occ. eigenvalues --   -1.02131  -0.87005  -0.80136  -0.72129  -0.67107
 Alpha  occ. eigenvalues --   -0.61612  -0.59492  -0.54718  -0.50143  -0.49289
 Alpha  occ. eigenvalues --   -0.47108  -0.45346  -0.42541  -0.41637  -0.40618
 Alpha  occ. eigenvalues --   -0.39941  -0.38820  -0.38333  -0.36746  -0.35115
 Alpha  occ. eigenvalues --   -0.32759  -0.29789  -0.26515  -0.25870
 Alpha virt. eigenvalues --    0.01456   0.07281   0.09786   0.10805   0.10984
 Alpha virt. eigenvalues --    0.12160   0.14700   0.15501   0.16127   0.17020
 Alpha virt. eigenvalues --    0.18037   0.18400   0.19404   0.20097   0.22906

 Mulliken charges:
               1
     1  C   -0.408506
     2  C   -0.065896
     3  C   -0.364956
     4  C    0.434555
     5  C   -0.303961
     6  C   -0.358166
     7  C    0.418027
     8  O   -0.333370
     9  O   -0.249136
    10  H    0.119582
    11  H    0.119891
    12  H    0.139311
    13  H    0.087442
    14  H    0.130721
    15  H    0.116297
    16  H    0.119954
    17  H    0.116059
    18  H    0.140124
    19  H    0.142029
 Sum of Mulliken charges =   0.00000

 Dipole moment (field-independent basis, Debye):
    X=             -2.3124    Y=              3.1338    Z=              1.2921  Tot=              4.1033
 Quadrupole moment (field-independent basis, Debye-Ang):
   XX=            -57.8395   YY=            -54.2164   ZZ=            -51.7288
   XY=              6.1087   XZ=              1.8565   YZ=             -0.9683

  Exact polarizability:  89.270  -1.588  73.751   1.856  -0.774  65.576
 Approx polarizability: 120.835  -8.887 105.791   1.176   0.968 100.011

                      1                      2                      3
                      A                      A                      A
 Frequencies --     85.2283               117.0071               184.5213
 Red. masses --      4.2922                 2.6311                 1.3723
 Frc consts  --      0.0184                 0.0212                 0.0275
 IR Inten    --      0.1128                 3.7503                 1.0750

                      4                      5                      6
                      A                      A                      A
 Frequencies --    199.3008               221.2166               339.3254
 Red. masses --      1.6732                 3.2185                 2.8692
 Frc consts  --      0.0392                 0.0928                 0.1946
 IR Inten    --      0.2267                 0.5124                 0.3459

                      7                      8                      9
                      A                      A                      A
 Frequencies --    409.2752               484.3624               527.4454
 Red. masses --      2.1174                 3.9138                 5.3638
 Frc consts  --      0.2090                 0.5410                 0.8792
 IR Inten    --      0.2338                 3.0397                 2.2386

                     10                     11                     12
                      A                      A                      A
 Frequencies --    534.7211               545.9758               662.4014
 Red. masses --      2.8618                 2.4158                 4.7896
 Frc consts  --      0.4821                 0.4243                 1.2382
 IR Inten    --      0.9052                 4.0365                 9.6346

                     13                     14                     15
                      A                      A                      A
 Frequencies --    756.1376               799.6551               815.8839
 Red. masses --      2.4390                 3.1132                 2.3258
 Frc consts  --      0.8216                 1.1729                 0.9122
 IR Inten    --      1.3746                 1.9741                 5.0131

                     16                     17                     18
                      A                      A                      A
 Frequencies --    875.6768               893.4925               923.4996
 Red. masses --      1.3708                 1.8870                 2.1334
 Frc consts  --      0.6193                 0.8876                 1.0720
 IR Inten    --      9.0985                18.8752                 4.6942

                     19                     20                     21
                      A                      A                      A
 Frequencies --    956.3927              1000.7188              1015.4804
 Red. masses --      2.5326                 1.7313                 1.6443
 Frc consts  --      1.3649                 1.0215                 0.9990
 IR Inten    --     30.4867                 3.4188                26.8032

                     22                     23                     24
                      A                      A                      A
 Frequencies --   1056.6691              1075.3668              1106.7788
 Red. masses --      1.3022                 2.0690                 2.4339
 Frc consts  --      0.8567                 1.4097                 1.7566
 IR Inten    --      9.0942                 1.6926                10.6459

                     25                     26                     27
                      A                      A                      A
 Frequencies --   1135.2552              1162.3275              1172.4887
 Red. masses --      1.8150                 3.7122                 1.4667
 Frc consts  --      1.3782                 2.9549                 1.1880
 IR Inten    --      2.2091               247.8843                11.3292

                     28                     29                     30
                      A                      A                      A
 Frequencies --   1184.5965              1199.4929              1282.8355
 Red. masses --      1.6816                 1.6869                 2.1863
 Frc consts  --      1.3904                 1.4300                 2.1198
 IR Inten    --      5.4937                10.5306                64.7701

                     31                     32                     33
                      A                      A                      A
 Frequencies --   1300.3713              1307.1818              1340.0781
 Red. masses --      1.7609                 1.3158                 1.6070
 Frc consts  --      1.7544                 1.3247                 1.7003
 IR Inten    --     11.5771                27.4940                 2.2992

                     34                     35                     36
                      A                      A                      A
 Frequencies --   1408.9836              1427.3212              1463.7868
 Red. masses --      1.2892                 1.5468                 1.0827
 Frc consts  --      1.5079                 1.8567                 1.3668
 IR Inten    --      2.0833                 3.8056                 4.4901

                     37                     38                     39
                      A                      A                      A
 Frequencies --   1488.0265              1494.8377              1498.4084
 Red. masses --      1.3254                 1.0670                 1.1090
 Frc consts  --      1.7291                 1.4047                 1.4670
 IR Inten    --     15.6858                 0.9654                 4.4498

                     40                     41                     42
                      A                      A                      A
 Frequencies --   1506.4435              1887.6592              3035.9775
 Red. masses --      1.2995                12.8616                 1.0369
 Frc consts  --      1.7375                27.0018                 5.6309
 IR Inten    --     12.6622               400.1392                31.6595

                     43                     44                     45
                      A                      A                      A
 Frequencies --   3046.4496              3058.1382              3094.2616
 Red. masses --      1.0673                 1.0664                 1.1012
 Frc consts  --      5.8360                 5.8763                 6.2120
 IR Inten    --     19.8637                11.0192                23.2274

                     46                     47                     48
                      A                      A                      A
 Frequencies --   3110.7380              3118.1518              3127.9103
 Red. masses --      1.0981                 1.0924                 1.0560
 Frc consts  --      6.2605                 6.2576                 6.0873
 IR Inten    --     10.7116                 2.1152                 8.7251

                     49                     50                     51
                      A                      A                      A
 Frequencies --   3132.6171              3135.1164              3217.2690
 Red. masses --      1.0970                 1.0933                 1.1164
 Frc consts  --      6.3426                 6.3311                 6.8085
 IR Inten    --      6.9418                28.1903                 5.5210

 - Thermochemistry -
 -------------------
 Temperature   298.150 Kelvin.  Pressure   1.00000 Atm.
 Atom     1 has atomic number  6 and mass  12.00000

 Molecular mass:   126.06808 amu.
 Principal axes and moments of inertia in atomic units:
                           1         2         3
     Eigenvalues --   627.095591389.748281666.23563
           X            0.99851   0.05417   0.00628
           Y           -0.05402   0.99828  -0.02280
           Z           -0.00751   0.02242   0.99972
 This molecule is an asymmetric top.
 Rotational symmetry number  1.
 Warning -- assumption of classical behavior for rotation
           may cause significant error
 Rotational temperatures (Kelvin)      0.13812     0.06232     0.05198
 Rotational constants (GHZ):           2.87794     1.29861     1.08312
 Zero-point vibrational energy     418234.0 (Joules/Mol)
                                   99.96031 (Kcal/Mol)
 Warning -- explicit consideration of  11 degrees of freedom as
           vibrations may cause significant error
 Vibrational temperatures:    122.62   168.35   265.48   286.75   318.28
          (Kelvin)            488.21   588.85   696.89   758.88   769.34
                              785.54   953.05  1087.91  1150.52  1173.87
                             1259.90  1285.53  1328.71  1376.03  1439.81
                             1461.05  1520.31  1547.21  1592.41  1633.38
                             1672.33  1686.95  1704.37  1725.80  1845.71
                             1870.94  1880.74  1928.07  2027.21  2053.59
                             2106.06  2140.94  2150.74  2155.87  2167.43
                             2715.92  4368.09  4383.16  4399.97  4451.95
                             4475.65  4486.32  4500.36  4507.13  4510.73
                             4628.93

 Zero-point correction=                           0.159297 (Hartree/Particle)
 Thermal correction to Energy=                    0.167689
 Thermal correction to Enthalpy=                  0.168633
 Thermal correction to Gibbs Free Energy=         0.126163
 Sum of electronic and zero-point Energies=           -423.069420
 Sum of electronic and thermal Energies=              -423.061028
 Sum of electronic and thermal Enthalpies=            -423.060084
 Sum of electronic and thermal Free Energies=         -423.102554

                     E (Thermal)             CV                S
                      KCal/Mol        Cal/Mol-Kelvin    Cal/Mol-Kelvin
 Total                  105.226             31.997             89.385
 Electronic               0.000              0.000              0.000
 Translational            0.889              2.981             40.409
 Rotational               0.889              2.981             28.764
 Vibrational            103.449             26.035             20.212
 Vibration     1          0.601              1.959              3.767
 Vibration     2          0.608              1.935              3.149
 Vibration     3          0.631              1.861              2.282
 Vibration     4          0.637              1.841              2.140
 Vibration     5          0.648              1.809              1.949
 Vibration     6          0.719              1.597              1.215
 Vibration     7          0.774              1.450              0.929
 Vibration     8          0.840              1.285              0.698
 Vibration     9          0.882              1.189              0.593
 Vibration    10          0.890              1.173              0.577
 Vibration    11          0.901              1.148              0.553

 Optimization completed.
    -- Stationary point found.
 Normal termination of Gaussian 09 at Tue Jan 28 02:42:11 2020.
