 Gaussian 09, Revision D.01,
 Gaussian 09:  ES64L-G09RevD.01 24-Apr-2013

 -----------------------------
 # b3lyp 6-31G(2df,p) opt Freq
 -----------------------------

 -----
 titel
 -----
 Symbolic Z-matrix:
 Charge =  0 Multiplicity = 1

 SCF Done:  E(RB3LYP) =  -423.153366105     A.U. after   13 cycles
 Optimization completed.
    -- Stationary point found.
 Normal termination of Gaussian 09 at Tue Jan 28 03:31:56 2020.

 ----------------------------------------------------------------------
 #N Geom=AllCheck Guess=TCheck SCRF=Check GenChk RB3LYP/6-31G(2df,p) Fr
 eq
 ----------------------------------------------------------------------

 Structure from the checkpoint file:  "/scratch/puck/g09_a814fd03-c976-4db9-a0f6-f38b7dd1852f/Gau-112195.chk"
 -----
 titel
 -----
 Charge =  0 Multiplicity = 1

                         Standard orientation:
 ---------------------------------------------------------------------
 Center     Atomic      Atomic             Coordinates (Angstroms)
 Number     Number       Type             X           Y           Z
 ---------------------------------------------------------------------
      1          6           0       -1.770362   -1.261900    0.668937
      2          6           0       -0.970304   -0.574623   -0.431832
      3          8           0        0.152280   -1.358528   -0.861030
      4          6           0        1.342247   -0.628409   -0.567971
      5          6           0        1.544844   -0.461211    0.972483
      6          6           0        0.815925    0.877627    0.859881
      7          6           0        1.003703    0.877791   -0.663310
      8          6           0       -0.373779    0.787029   -0.072689
      9          8           0       -1.222041    1.887835   -0.022853
     10          1           0       -1.167854   -1.412382    1.567963
     11          1           0       -2.634172   -0.643194    0.933847
     12          1           0       -2.133687   -2.235471    0.328107
     13          1           0       -1.630777   -0.432531   -1.303889
     14          1           0        2.157845   -1.053034   -1.151080
     15          1           0        1.137114   -1.253289    1.607333
     16          1           0        2.599693   -0.304277    1.217400
     17          1           0        0.884203    1.721954    1.535229
     18          1           0        1.357782    1.637942   -1.346259
     19          1           0       -1.565692    2.041999   -0.910581
 ---------------------------------------------------------------------

 SCF Done:  E(RB3LYP) =  -423.153366105     A.U. after    1 cycles

 The electronic state is 1-A.
 Alpha  occ. eigenvalues --  -19.15342 -19.13214 -10.24137 -10.23482 -10.22970
 Alpha  occ. eigenvalues --  -10.19524 -10.18580 -10.18251 -10.17057  -1.04735
 Alpha  occ. eigenvalues --   -1.02660  -0.88112  -0.76607  -0.70954  -0.64715
 Alpha  occ. eigenvalues --   -0.62022  -0.58931  -0.53943  -0.52316  -0.48610
 Alpha  occ. eigenvalues --   -0.45834  -0.44488  -0.42643  -0.41130  -0.40180
 Alpha  occ. eigenvalues --   -0.38475  -0.37257  -0.36076  -0.34996  -0.32464
 Alpha  occ. eigenvalues --   -0.29316  -0.27421  -0.25349  -0.23536
 Alpha virt. eigenvalues --    0.06626   0.09064   0.10393   0.12105   0.13473
 Alpha virt. eigenvalues --    0.13698   0.14594   0.15715   0.16568   0.17305
 Alpha virt. eigenvalues --    0.18280   0.20090   0.20907   0.21160   0.22543

 Mulliken charges:
               1
     1  C   -0.402950
     2  C    0.069911
     3  O   -0.284624
     4  C    0.079680
     5  C   -0.256017
     6  C   -0.108081
     7  C   -0.182359
     8  C    0.386180
     9  O   -0.481717
    10  H    0.122429
    11  H    0.121415
    12  H    0.121150
    13  H    0.060479
    14  H    0.083605
    15  H    0.098336
    16  H    0.102756
    17  H    0.094547
    18  H    0.089882
    19  H    0.285379
 Sum of Mulliken charges =   0.00000

 Dipole moment (field-independent basis, Debye):
    X=              0.2186    Y=              0.8673    Z=             -0.6476  Tot=              1.1042
 Quadrupole moment (field-independent basis, Debye-Ang):
   XX=            -49.7473   YY=            -55.9320   ZZ=            -51.9594
   XY=              0.3184   XZ=              2.2437   YZ=             -4.5007

  Exact polarizability:  81.490  -0.166  71.522   2.050  -2.176  68.562
 Approx polarizability: 113.602  -2.916 103.955   2.167  -0.244 107.405

                      1                      2                      3
                      A                      A                      A
 Frequencies --    151.0787               207.8479               223.7400
 Red. masses --      3.5724                 1.0986                 2.5095
 Frc consts  --      0.0480                 0.0280                 0.0740
 IR Inten    --      1.6266                 0.3566                 1.1688

                      4                      5                      6
                      A                      A                      A
 Frequencies --    281.3779               332.7250               357.1988
 Red. masses --      1.7780                 1.6743                 3.0458
 Frc consts  --      0.0829                 0.1092                 0.2290
 IR Inten    --     30.0171                42.7752                27.5773

                      7                      8                      9
                      A                      A                      A
 Frequencies --    418.8455               442.3274               546.3164
 Red. masses --      2.5440                 3.4896                 3.0281
 Frc consts  --      0.2630                 0.4023                 0.5325
 IR Inten    --      6.2852                 4.5943                 0.4428

                     10                     11                     12
                      A                      A                      A
 Frequencies --    592.1244               659.0981               672.5813
 Red. masses --      4.9470                 4.2690                 3.8517
 Frc consts  --      1.0219                 1.0926                 1.0266
 IR Inten    --      1.7338                 4.4135                 1.1407

                     13                     14                     15
                      A                      A                      A
 Frequencies --    793.1413               840.3550               842.2548
 Red. masses --      2.9595                 1.9565                 1.7964
 Frc consts  --      1.0969                 0.8141                 0.7508
 IR Inten    --      6.8750                 2.4499                 7.8449

                     16                     17                     18
                      A                      A                      A
 Frequencies --    870.3126               890.3190               921.1915
 Red. masses --      1.7920                 2.0846                 2.3738
 Frc consts  --      0.7997                 0.9736                 1.1869
 IR Inten    --     19.0267                 4.6442                 5.1528

                     19                     20                     21
                      A                      A                      A
 Frequencies --    972.9502               981.0366               999.1357
 Red. masses --      2.1271                 1.7734                 2.0439
 Frc consts  --      1.1864                 1.0056                 1.2021
 IR Inten    --     35.7040                11.1541                 2.6120

                     22                     23                     24
                      A                      A                      A
 Frequencies --   1008.0038              1082.4666              1103.2505
 Red. masses --      1.9234                 1.7137                 2.6517
 Frc consts  --      1.1515                 1.1830                 1.9017
 IR Inten    --     20.7667                18.8220                27.7280

                     25                     26                     27
                      A                      A                      A
 Frequencies --   1107.0269              1118.0537              1130.5134
 Red. masses --      2.3786                 2.0509                 2.1759
 Frc consts  --      1.7174                 1.5105                 1.6385
 IR Inten    --      3.7574                49.0586                10.0327

                     28                     29                     30
                      A                      A                      A
 Frequencies --   1179.2338              1204.4914              1214.6693
 Red. masses --      1.6453                 1.5086                 1.7280
 Frc consts  --      1.3480                 1.2896                 1.5021
 IR Inten    --      3.3302                12.3913                66.5033

                     31                     32                     33
                      A                      A                      A
 Frequencies --   1260.8338              1274.6847              1324.4853
 Red. masses --      2.1442                 1.5591                 1.5206
 Frc consts  --      2.0083                 1.4926                 1.5716
 IR Inten    --     28.9664                14.4877                21.5433

                     34                     35                     36
                      A                      A                      A
 Frequencies --   1335.3702              1356.2786              1386.3167
 Red. masses --      1.5569                 1.6785                 1.5100
 Frc consts  --      1.6357                 1.8191                 1.7099
 IR Inten    --     40.4085                 4.9675                 6.4306

                     37                     38                     39
                      A                      A                      A
 Frequencies --   1404.1888              1441.2690              1485.1977
 Red. masses --      1.2850                 2.4822                 1.0832
 Frc consts  --      1.4929                 3.0380                 1.4078
 IR Inten    --     10.1760                 8.3997                 1.2673

                     40                     41                     42
                      A                      A                      A
 Frequencies --   1494.3157              1499.0852              2953.0074
 Red. masses --      1.0534                 1.0984                 1.0835
 Frc consts  --      1.3858                 1.4543                 5.5670
 IR Inten    --      2.8556                 3.7402                73.6062

                     43                     44                     45
                      A                      A                      A
 Frequencies --   3042.7198              3047.1712              3098.7597
 Red. masses --      1.0372                 1.0547                 1.1084
 Frc consts  --      5.6578                 5.7701                 6.2707
 IR Inten    --     14.9858                42.1912                30.2780

                     46                     47                     48
                      A                      A                      A
 Frequencies --   3113.2051              3128.9972              3130.2080
 Red. masses --      1.1009                 1.0997                 1.0927
 Frc consts  --      6.2865                 6.3436                 6.3080
 IR Inten    --     18.5694                30.9263                32.3156

                     49                     50                     51
                      A                      A                      A
 Frequencies --   3188.5319              3208.9887              3784.8911
 Red. masses --      1.0904                 1.0972                 1.0659
 Frc consts  --      6.5315                 6.6572                 8.9962
 IR Inten    --     12.4400                 7.7040                17.5038

 - Thermochemistry -
 -------------------
 Temperature   298.150 Kelvin.  Pressure   1.00000 Atm.
 Atom     1 has atomic number  6 and mass  12.00000

 Molecular mass:   126.06808 amu.
 Principal axes and moments of inertia in atomic units:
                           1         2         3
     Eigenvalues --   807.82028 872.574381221.89272
           X            0.96010   0.27965   0.00264
           Y           -0.27907   0.95863  -0.05605
           Z           -0.01820   0.05308   0.99842
 This molecule is an asymmetric top.
 Rotational symmetry number  1.
 Warning -- assumption of classical behavior for rotation
           may cause significant error
 Rotational temperatures (Kelvin)      0.10722     0.09926     0.07088
 Rotational constants (GHZ):           2.23409     2.06829     1.47700
 Zero-point vibrational energy     419304.1 (Joules/Mol)
                                  100.21609 (Kcal/Mol)
 Warning -- explicit consideration of  10 degrees of freedom as
           vibrations may cause significant error
 Vibrational temperatures:    217.37   299.05   321.91   404.84   478.72
          (Kelvin)            513.93   602.62   636.41   786.03   851.93
                              948.29   967.69  1141.15  1209.08  1211.82
                             1252.18  1280.97  1325.39  1399.86  1411.49
                             1437.53  1450.29  1557.43  1587.33  1592.76
                             1608.63  1626.55  1696.65  1732.99  1747.64
                             1814.06  1833.98  1905.64  1921.30  1951.38
                             1994.60  2020.31  2073.66  2136.87  2149.98
                             2156.85  4248.71  4377.79  4384.19  4458.42
                             4479.20  4501.92  4503.67  4587.58  4617.01
                             5445.61

 Zero-point correction=                           0.159705 (Hartree/Particle)
 Thermal correction to Energy=                    0.167399
 Thermal correction to Enthalpy=                  0.168343
 Thermal correction to Gibbs Free Energy=         0.128113
 Sum of electronic and zero-point Energies=           -422.993662
 Sum of electronic and thermal Energies=              -422.985967
 Sum of electronic and thermal Enthalpies=            -422.985023
 Sum of electronic and thermal Free Energies=         -423.025253

                     E (Thermal)             CV                S
                      KCal/Mol        Cal/Mol-Kelvin    Cal/Mol-Kelvin
 Total                  105.044             31.325             84.672
 Electronic               0.000              0.000              0.000
 Translational            0.889              2.981             40.409
 Rotational               0.889              2.981             28.245
 Vibrational            103.267             25.363             16.018
 Vibration     1          0.618              1.901              2.659
 Vibration     2          0.641              1.829              2.062
 Vibration     3          0.649              1.805              1.929
 Vibration     4          0.681              1.708              1.525
 Vibration     5          0.715              1.610              1.247
 Vibration     6          0.732              1.560              1.134
 Vibration     7          0.782              1.429              0.896
 Vibration     8          0.802              1.378              0.819
 Vibration     9          0.902              1.148              0.552
 Vibration    10          0.950              1.049              0.463

 Optimization completed.
    -- Stationary point found.
 Normal termination of Gaussian 09 at Tue Jan 28 04:18:03 2020.
