 Gaussian 09, Revision D.01,
 Gaussian 09:  ES64L-G09RevD.01 24-Apr-2013

 -----------------------------
 # b3lyp 6-31G(2df,p) opt Freq
 -----------------------------

 -----
 titel
 -----
 Symbolic Z-matrix:
 Charge =  0 Multiplicity = 1

 SCF Done:  E(RB3LYP) =  -423.182281726     A.U. after   14 cycles
 Optimization completed.
    -- Stationary point found.
 Normal termination of Gaussian 09 at Mon Jan 27 22:01:00 2020.

 ----------------------------------------------------------------------
 #N Geom=AllCheck Guess=TCheck SCRF=Check GenChk RB3LYP/6-31G(2df,p) Fr
 eq
 ----------------------------------------------------------------------

 Structure from the checkpoint file:  "/scratch/puck/g09_68726d0c-b9b8-42f0-a315-34b3eee994f9/Gau-98427.chk"
 -----
 titel
 -----
 Charge =  0 Multiplicity = 1

                         Standard orientation:
 ---------------------------------------------------------------------
 Center     Atomic      Atomic             Coordinates (Angstroms)
 Number     Number       Type             X           Y           Z
 ---------------------------------------------------------------------
      1          6           0       -0.605119    2.168203   -0.745965
      2          6           0       -0.107894    0.941165   -0.039525
      3          6           0       -0.500760    0.545994    1.339775
      4          6           0       -0.862944   -0.420959    0.210748
      5          6           0       -2.268930   -0.864533   -0.072480
      6          6           0        0.387018   -1.138605   -0.172013
      7          8           0        0.654481   -2.286950   -0.407973
      8          6           0        1.172437    0.186276   -0.403480
      9          8           0        2.295852    0.482238    0.395063
     10          1           0       -0.549320    2.054979   -1.834027
     11          1           0       -1.644845    2.384960   -0.480234
     12          1           0       -0.006116    3.043686   -0.470739
     13          1           0        0.254814    0.288600    2.074338
     14          1           0       -1.364784    1.061968    1.749319
     15          1           0       -2.364376   -1.255392   -1.090308
     16          1           0       -2.572497   -1.659202    0.617418
     17          1           0       -2.976246   -0.037169    0.045003
     18          1           0        1.401405    0.276479   -1.478364
     19          1           0        2.936454   -0.226462    0.268514
 ---------------------------------------------------------------------

 SCF Done:  E(RB3LYP) =  -423.182281726     A.U. after    1 cycles

 The electronic state is 1-A.
 Alpha  occ. eigenvalues --  -19.14542 -19.12853 -10.26013 -10.23891 -10.21490
 Alpha  occ. eigenvalues --  -10.21024 -10.20117 -10.19167 -10.18968  -1.04171
 Alpha  occ. eigenvalues --   -1.02381  -0.90724  -0.74717  -0.72883  -0.70649
 Alpha  occ. eigenvalues --   -0.61602  -0.55893  -0.52367  -0.50786  -0.48030
 Alpha  occ. eigenvalues --   -0.46184  -0.43173  -0.42469  -0.41543  -0.40816
 Alpha  occ. eigenvalues --   -0.40313  -0.39418  -0.38745  -0.36392  -0.34475
 Alpha  occ. eigenvalues --   -0.30065  -0.29885  -0.26640  -0.22651
 Alpha virt. eigenvalues --   -0.01183   0.07019   0.08794   0.10917   0.12015
 Alpha virt. eigenvalues --    0.12739   0.13769   0.14289   0.15446   0.16637
 Alpha virt. eigenvalues --    0.17182   0.18191   0.19260   0.20014   0.23497

 Mulliken charges:
               1
     1  C   -0.502611
     2  C    0.301980
     3  C   -0.362081
     4  C    0.150080
     5  C   -0.497846
     6  C    0.346130
     7  O   -0.334687
     8  C   -0.075296
     9  O   -0.433962
    10  H    0.123325
    11  H    0.122152
    12  H    0.138216
    13  H    0.133500
    14  H    0.118351
    15  H    0.131500
    16  H    0.139440
    17  H    0.121159
    18  H    0.085181
    19  H    0.295468
 Sum of Mulliken charges =   0.00000

 Dipole moment (field-independent basis, Debye):
    X=             -1.2297    Y=              1.9744    Z=             -0.1420  Tot=              2.3303
 Quadrupole moment (field-independent basis, Debye-Ang):
   XX=            -49.0613   YY=            -60.3742   ZZ=            -51.9894
   XY=             -1.5558   XZ=             -1.2316   YZ=             -2.1707

  Exact polarizability:  81.508  -1.496  83.236  -2.472   1.366  66.544
 Approx polarizability: 112.161  -4.321 129.252  -4.151   6.119 101.894

                      1                      2                      3
                      A                      A                      A
 Frequencies --     79.2741               152.4571               174.9552
 Red. masses --      4.9637                 1.0612                 2.5252
 Frc consts  --      0.0184                 0.0145                 0.0455
 IR Inten    --      2.7845                 0.2958                 5.0873

                      4                      5                      6
                      A                      A                      A
 Frequencies --    176.9888               201.8896               213.1393
 Red. masses --      2.4026                 1.2078                 2.2675
 Frc consts  --      0.0443                 0.0290                 0.0607
 IR Inten    --     15.5116                 0.8010                 9.6394

                      7                      8                      9
                      A                      A                      A
 Frequencies --    258.9953               293.8236               352.6113
 Red. masses --      3.3445                 1.4634                 3.0216
 Frc consts  --      0.1322                 0.0744                 0.2214
 IR Inten    --     15.0802                74.2113                 2.9687

                     10                     11                     12
                      A                      A                      A
 Frequencies --    365.8222               481.7506               555.3728
 Red. masses --      2.8444                 3.1991                 3.2719
 Frc consts  --      0.2243                 0.4374                 0.5946
 IR Inten    --      1.2154                 4.1160                 2.8437

                     13                     14                     15
                      A                      A                      A
 Frequencies --    596.9229               635.2789               671.5981
 Red. masses --      4.3120                 4.3590                 3.5159
 Frc consts  --      0.9052                 1.0365                 0.9343
 IR Inten    --      4.3866                 2.0827                 2.1130

                     16                     17                     18
                      A                      A                      A
 Frequencies --    757.4455               825.7961               871.3775
 Red. masses --      3.6346                 5.2145                 2.7959
 Frc consts  --      1.2286                 2.0951                 1.2508
 IR Inten    --     26.4170                 7.9171                29.1893

                     19                     20                     21
                      A                      A                      A
 Frequencies --    962.3393               983.8581               992.0979
 Red. masses --      1.2887                 1.5769                 1.6482
 Frc consts  --      0.7032                 0.8993                 0.9558
 IR Inten    --      6.7305                 4.7781                 2.0728

                     22                     23                     24
                      A                      A                      A
 Frequencies --   1028.3633              1067.3121              1077.1140
 Red. masses --      2.4205                 1.4314                 1.5475
 Frc consts  --      1.5082                 0.9607                 1.0578
 IR Inten    --     57.9383                25.7363                 6.4434

                     25                     26                     27
                      A                      A                      A
 Frequencies --   1110.8736              1139.4375              1143.5171
 Red. masses --      1.5347                 3.6729                 1.4488
 Frc consts  --      1.1158                 2.8096                 1.1162
 IR Inten    --      9.9609                36.2098                10.6677

                     28                     29                     30
                      A                      A                      A
 Frequencies --   1192.6893              1254.9763              1301.7254
 Red. masses --      2.3780                 2.3885                 1.4029
 Frc consts  --      1.9931                 2.2164                 1.4006
 IR Inten    --      4.1900                39.3342                36.6840

                     31                     32                     33
                      A                      A                      A
 Frequencies --   1349.0236              1370.9315              1413.8470
 Red. masses --      2.5036                 2.4283                 1.3785
 Frc consts  --      2.6844                 2.6890                 1.6236
 IR Inten    --     11.0054                 0.1913                 0.2698

                     34                     35                     36
                      A                      A                      A
 Frequencies --   1416.5342              1432.8440              1480.1538
 Red. masses --      1.2789                 1.8225                 1.0448
 Frc consts  --      1.5120                 2.2045                 1.3487
 IR Inten    --      2.1871                 1.4329                 2.2938

                     37                     38                     39
                      A                      A                      A
 Frequencies --   1487.0464              1494.5205              1501.1504
 Red. masses --      1.0501                 1.0572                 1.0556
 Frc consts  --      1.3681                 1.3913                 1.4015
 IR Inten    --      4.9395                 2.7289                12.9094

                     40                     41                     42
                      A                      A                      A
 Frequencies --   1505.8678              1866.2595              2971.4160
 Red. masses --      1.3806                12.6399                 1.0826
 Frc consts  --      1.8446                25.9381                 5.6316
 IR Inten    --      4.3804               329.1532                40.6843

                     43                     44                     45
                      A                      A                      A
 Frequencies --   3027.4616              3033.1105              3089.9467
 Red. masses --      1.0353                 1.0350                 1.1008
 Frc consts  --      5.5907                 5.6101                 6.1924
 IR Inten    --     28.8174                25.8263                15.7214

                     46                     47                     48
                      A                      A                      A
 Frequencies --   3096.9878              3100.0880              3105.4342
 Red. masses --      1.1006                 1.1010                 1.1014
 Frc consts  --      6.2197                 6.2343                 6.2581
 IR Inten    --     15.7581                14.4427                17.0582

                     49                     50                     51
                      A                      A                      A
 Frequencies --   3123.6523              3207.8296              3807.0296
 Red. masses --      1.0543                 1.1167                 1.0660
 Frc consts  --      6.0608                 6.7702                 9.1029
 IR Inten    --     15.4266                 4.0264                33.8451

 - Thermochemistry -
 -------------------
 Temperature   298.150 Kelvin.  Pressure   1.00000 Atm.
 Atom     1 has atomic number  6 and mass  12.00000

 Molecular mass:   126.06808 amu.
 Principal axes and moments of inertia in atomic units:
                           1         2         3
     Eigenvalues --   932.92158 983.971701550.35797
           X            0.99979   0.02011  -0.00263
           Y           -0.02017   0.99948  -0.02528
           Z            0.00212   0.02533   0.99968
 This molecule is an asymmetric top.
 Rotational symmetry number  1.
 Warning -- assumption of classical behavior for rotation
           may cause significant error
 Rotational temperatures (Kelvin)      0.09284     0.08802     0.05587
 Rotational constants (GHZ):           1.93450     1.83414     1.16408
 Zero-point vibrational energy     411521.0 (Joules/Mol)
                                   98.35588 (Kcal/Mol)
 Warning -- explicit consideration of  13 degrees of freedom as
           vibrations may cause significant error
 Vibrational temperatures:    114.06   219.35   251.72   254.65   290.47
          (Kelvin)            306.66   372.64   422.75   507.33   526.34
                              693.13   799.06   858.84   914.02   966.28
                             1089.79  1188.13  1253.72  1384.59  1415.55
                             1427.41  1479.58  1535.62  1549.72  1598.30
                             1639.39  1645.26  1716.01  1805.63  1872.89
                             1940.94  1972.46  2034.21  2038.07  2061.54
                             2129.61  2139.53  2150.28  2159.82  2166.61
                             2685.13  4275.20  4355.84  4363.96  4445.74
                             4455.87  4460.33  4468.02  4494.23  4615.35
                             5477.46

 Zero-point correction=                           0.156740 (Hartree/Particle)
 Thermal correction to Energy=                    0.166344
 Thermal correction to Enthalpy=                  0.167288
 Thermal correction to Gibbs Free Energy=         0.122665
 Sum of electronic and zero-point Energies=           -423.025542
 Sum of electronic and thermal Energies=              -423.015938
 Sum of electronic and thermal Enthalpies=            -423.014994
 Sum of electronic and thermal Free Energies=         -423.059616

                     E (Thermal)             CV                S
                      KCal/Mol        Cal/Mol-Kelvin    Cal/Mol-Kelvin
 Total                  104.382             35.336             93.916
 Electronic               0.000              0.000              0.000
 Translational            0.889              2.981             40.409
 Rotational               0.889              2.981             28.744
 Vibrational            102.605             29.375             24.763
 Vibration     1          0.600              1.963              3.909
 Vibration     2          0.619              1.900              2.641
 Vibration     3          0.627              1.873              2.382
 Vibration     4          0.628              1.871              2.360
 Vibration     5          0.639              1.837              2.116
 Vibration     6          0.644              1.821              2.017
 Vibration     7          0.668              1.748              1.669
 Vibration     8          0.689              1.685              1.452
 Vibration     9          0.729              1.570              1.155
 Vibration    10          0.739              1.543              1.097
 Vibration    11          0.838              1.291              0.705
 Vibration    12          0.911              1.128              0.533
 Vibration    13          0.955              1.038              0.455

 Normal termination of Gaussian 09 at Mon Jan 27 22:50:27 2020.
