 Gaussian 09, Revision D.01,
 Gaussian 09:  ES64L-G09RevD.01 24-Apr-2013

 -----------------------------
 # b3lyp 6-31G(2df,p) opt Freq
 -----------------------------

 -----
 titel
 -----
 Symbolic Z-matrix:
 Charge =  0 Multiplicity = 1

 SCF Done:  E(RB3LYP) =  -423.173923172     A.U. after   14 cycles
 Optimization completed.
    -- Stationary point found.
 Normal termination of Gaussian 09 at Tue Jan 28 12:35:57 2020.

 ----------------------------------------------------------------------
 #N Geom=AllCheck Guess=TCheck SCRF=Check GenChk RB3LYP/6-31G(2df,p) Fr
 eq
 ----------------------------------------------------------------------

 Structure from the checkpoint file:  "/scratch/puck/g09_4ddeb7bf-495e-4da5-8dd4-3cd8301b18a8/Gau-141947.chk"
 -----
 titel
 -----
 Charge =  0 Multiplicity = 1

                         Standard orientation:
 ---------------------------------------------------------------------
 Center     Atomic      Atomic             Coordinates (Angstroms)
 Number     Number       Type             X           Y           Z
 ---------------------------------------------------------------------
      1          8           0       -2.894618   -0.340527   -0.715271
      2          6           0       -2.184880   -0.301502    0.521505
      3          6           0       -0.709942   -0.126794    0.315917
      4          6           0        0.271095   -0.912235    0.782383
      5          6           0        1.641148   -0.463027    0.318010
      6          8           0        2.282372   -1.428105   -0.513008
      7          6           0        1.349731    0.852223   -0.412992
      8          6           0        0.710510    1.968712    0.364829
      9          6           0       -0.157032    1.029150   -0.454759
     10          1           0       -2.557990   -1.093112   -1.213035
     11          1           0       -2.599428    0.559912    1.058349
     12          1           0       -2.382117   -1.196689    1.129208
     13          1           0        0.135160   -1.781651    1.416821
     14          1           0        2.337737   -0.318030    1.151912
     15          1           0        1.645855   -1.678431   -1.192202
     16          1           0        1.982480    1.096079   -1.258410
     17          1           0        0.655182    1.891970    1.446536
     18          1           0        0.854546    2.976991   -0.010606
     19          1           0       -0.697232    1.412848   -1.311689
 ---------------------------------------------------------------------

 SCF Done:  E(RB3LYP) =  -423.173923172     A.U. after    1 cycles

 The electronic state is 1-A.
 Alpha  occ. eigenvalues --  -19.14085 -19.13291 -10.23436 -10.23346 -10.19373
 Alpha  occ. eigenvalues --  -10.19299 -10.19098 -10.18856 -10.17930  -1.02009
 Alpha  occ. eigenvalues --   -1.01474  -0.88577  -0.77641  -0.71721  -0.65581
 Alpha  occ. eigenvalues --   -0.61245  -0.57424  -0.53846  -0.52806  -0.48976
 Alpha  occ. eigenvalues --   -0.46980  -0.45467  -0.43627  -0.42551  -0.41597
 Alpha  occ. eigenvalues --   -0.38096  -0.35470  -0.34700  -0.33305  -0.31383
 Alpha  occ. eigenvalues --   -0.29073  -0.27447  -0.26416  -0.24213
 Alpha virt. eigenvalues --   -0.00043   0.08117   0.09910   0.10579   0.12150
 Alpha virt. eigenvalues --    0.13250   0.13636   0.14070   0.16159   0.17284
 Alpha virt. eigenvalues --    0.18080   0.19142   0.19540   0.21746   0.23411

 Mulliken charges:
               1
     1  O   -0.411875
     2  C   -0.174000
     3  C    0.302177
     4  C   -0.269736
     5  C    0.106457
     6  O   -0.431000
     7  C   -0.082894
     8  C   -0.286426
     9  C   -0.126712
    10  H    0.281651
    11  H    0.120339
    12  H    0.094368
    13  H    0.094369
    14  H    0.094859
    15  H    0.271677
    16  H    0.093173
    17  H    0.112630
    18  H    0.112816
    19  H    0.098128
 Sum of Mulliken charges =   0.00000

 Dipole moment (field-independent basis, Debye):
    X=             -0.4754    Y=             -0.1299    Z=             -0.0693  Tot=              0.4977
 Quadrupole moment (field-independent basis, Debye-Ang):
   XX=            -63.9030   YY=            -50.6536   ZZ=            -49.4964
   XY=              5.4382   XZ=             -0.9532   YZ=              1.3512

  Exact polarizability:  87.399  -2.788  79.383   0.819  -2.503  65.999
 Approx polarizability: 126.879 -13.221 118.179   6.450  -4.156 102.913

                      1                      2                      3
                      A                      A                      A
 Frequencies --     67.8327               133.4002               184.2322
 Red. masses --      4.3297                 3.6424                 3.1605
 Frc consts  --      0.0117                 0.0382                 0.0632
 IR Inten    --      3.8547                 0.7617                 1.3219

                      4                      5                      6
                      A                      A                      A
 Frequencies --    221.8400               290.4161               330.3572
 Red. masses --      3.1320                 1.7554                 1.5267
 Frc consts  --      0.0908                 0.0872                 0.0982
 IR Inten    --      4.5465                21.0442                42.9330

                      7                      8                      9
                      A                      A                      A
 Frequencies --    351.6362               377.0719               443.1539
 Red. masses --      1.3808                 2.3576                 2.8235
 Frc consts  --      0.1006                 0.1975                 0.3267
 IR Inten    --     89.8307                26.3666                30.2929

                     10                     11                     12
                      A                      A                      A
 Frequencies --    484.0614               611.2066               684.8751
 Red. masses --      4.0694                 3.7764                 3.1974
 Frc consts  --      0.5618                 0.8312                 0.8836
 IR Inten    --      4.8854                 3.8523                 6.6112

                     13                     14                     15
                      A                      A                      A
 Frequencies --    745.1468               788.1518               812.2716
 Red. masses --      2.9320                 2.3832                 1.5434
 Frc consts  --      0.9592                 0.8722                 0.6000
 IR Inten    --      5.6402                19.1161                 3.0353

                     16                     17                     18
                      A                      A                      A
 Frequencies --    853.6396               881.4859               932.2857
 Red. masses --      1.8744                 1.9132                 1.8754
 Frc consts  --      0.8048                 0.8759                 0.9604
 IR Inten    --      2.6151                27.8959                19.6340

                     19                     20                     21
                      A                      A                      A
 Frequencies --    944.8542               989.1999               999.2163
 Red. masses --      3.2175                 1.8300                 2.1985
 Frc consts  --      1.6924                 1.0550                 1.2933
 IR Inten    --     12.5659                38.2045                 8.0063

                     22                     23                     24
                      A                      A                      A
 Frequencies --   1042.5529              1057.7494              1062.6423
 Red. masses --      3.2602                 3.4810                 1.5885
 Frc consts  --      2.0878                 2.2947                 1.0568
 IR Inten    --     50.7677                71.7912                18.5300

                     25                     26                     27
                      A                      A                      A
 Frequencies --   1075.7657              1100.4074              1107.7441
 Red. masses --      1.3637                 1.3466                 1.2941
 Frc consts  --      0.9298                 0.9607                 0.9356
 IR Inten    --     14.0246                17.2716                 0.8798

                     28                     29                     30
                      A                      A                      A
 Frequencies --   1177.8803              1191.8581              1197.6568
 Red. masses --      1.8450                 1.2936                 1.7259
 Frc consts  --      1.5082                 1.0826                 1.4586
 IR Inten    --     17.7483                 8.9475                 6.1703

                     31                     32                     33
                      A                      A                      A
 Frequencies --   1255.6993              1260.7594              1298.5355
 Red. masses --      1.3142                 1.3167                 1.8116
 Frc consts  --      1.2209                 1.2331                 1.7998
 IR Inten    --     16.8108                 1.4706                 2.2328

                     34                     35                     36
                      A                      A                      A
 Frequencies --   1345.8579              1363.6804              1388.6076
 Red. masses --      1.8323                 1.8151                 1.7775
 Frc consts  --      1.9555                 1.9888                 2.0194
 IR Inten    --      2.7911                 2.2291                 5.6368

                     37                     38                     39
                      A                      A                      A
 Frequencies --   1413.6868              1423.9744              1479.3766
 Red. masses --      1.2595                 1.2375                 1.2110
 Frc consts  --      1.4830                 1.4784                 1.5615
 IR Inten    --     85.4246                63.5458                 2.7890

                     40                     41                     42
                      A                      A                      A
 Frequencies --   1496.6841              1685.9034              2997.0841
 Red. masses --      1.0872                 7.5234                 1.0653
 Frc consts  --      1.4349                12.5988                 5.6379
 IR Inten    --      0.9411                 4.8566                53.9412

                     43                     44                     45
                      A                      A                      A
 Frequencies --   3047.1617              3059.1406              3119.4394
 Red. masses --      1.0841                 1.0970                 1.0536
 Frc consts  --      5.9308                 6.0484                 6.0405
 IR Inten    --     31.1891                22.9653                19.5652

                     46                     47                     48
                      A                      A                      A
 Frequencies --   3180.4824              3188.6072              3191.3899
 Red. masses --      1.0898                 1.0942                 1.0945
 Frc consts  --      6.4948                 6.5549                 6.5682
 IR Inten    --      8.0777                 7.5691                 6.9795

                     49                     50                     51
                      A                      A                      A
 Frequencies --   3209.1470              3797.2646              3809.3605
 Red. masses --      1.1138                 1.0659                 1.0662
 Frc consts  --      6.7581                 9.0555                 9.1160
 IR Inten    --     14.3013                10.2667                15.6588

 - Thermochemistry -
 -------------------
 Temperature   298.150 Kelvin.  Pressure   1.00000 Atm.
 Atom     1 has atomic number  8 and mass  15.99491

 Molecular mass:   126.06808 amu.
 Principal axes and moments of inertia in atomic units:
                           1         2         3
     Eigenvalues --   666.408781502.903691843.37735
           X            0.99972   0.02278  -0.00635
           Y           -0.02284   0.99970  -0.00895
           Z            0.00614   0.00909   0.99994
 This molecule is an asymmetric top.
 Rotational symmetry number  1.
 Warning -- assumption of classical behavior for rotation
           may cause significant error
 Rotational temperatures (Kelvin)      0.12997     0.05763     0.04699
 Rotational constants (GHZ):           2.70816     1.20084     0.97904
 Zero-point vibrational energy     419604.7 (Joules/Mol)
                                  100.28794 (Kcal/Mol)
 Warning -- explicit consideration of  11 degrees of freedom as
           vibrations may cause significant error
 Vibrational temperatures:     97.60   191.93   265.07   319.18   417.84
          (Kelvin)            475.31   505.93   542.52   637.60   696.46
                              879.39   985.38  1072.10  1133.97  1168.68
                             1228.20  1268.26  1341.35  1359.43  1423.24
                             1437.65  1500.00  1521.86  1528.90  1547.79
                             1583.24  1593.79  1694.70  1714.82  1723.16
                             1806.67  1813.95  1868.30  1936.39  1962.03
                             1997.89  2033.98  2048.78  2128.49  2153.39
                             2425.64  4312.13  4384.18  4401.42  4488.17
                             4576.00  4587.69  4591.69  4617.24  5463.41
                             5480.81

 Zero-point correction=                           0.159819 (Hartree/Particle)
 Thermal correction to Energy=                    0.168374
 Thermal correction to Enthalpy=                  0.169318
 Thermal correction to Gibbs Free Energy=         0.126485
 Sum of electronic and zero-point Energies=           -423.014104
 Sum of electronic and thermal Energies=              -423.005550
 Sum of electronic and thermal Enthalpies=            -423.004605
 Sum of electronic and thermal Free Energies=         -423.047438

                     E (Thermal)             CV                S
                      KCal/Mol        Cal/Mol-Kelvin    Cal/Mol-Kelvin
 Total                  105.656             32.946             90.149
 Electronic               0.000              0.000              0.000
 Translational            0.889              2.981             40.409
 Rotational               0.889              2.981             29.003
 Vibrational            103.879             26.984             20.737
 Vibration     1          0.598              1.970              4.215
 Vibration     2          0.613              1.920              2.896
 Vibration     3          0.631              1.861              2.285
 Vibration     4          0.648              1.808              1.944
 Vibration     5          0.686              1.692              1.472
 Vibration     6          0.713              1.615              1.258
 Vibration     7          0.728              1.572              1.159
 Vibration     8          0.748              1.519              1.051
 Vibration     9          0.803              1.376              0.817
 Vibration    10          0.840              1.285              0.699
 Vibration    11          0.970              1.008              0.431

 Optimization completed.
    -- Stationary point found.
 Normal termination of Gaussian 09 at Tue Jan 28 13:18:10 2020.
