 Gaussian 09, Revision D.01,
 Gaussian 09:  ES64L-G09RevD.01 24-Apr-2013

 -----------------------------
 # b3lyp 6-31G(2df,p) opt Freq
 -----------------------------

 -----
 titel
 -----
 Symbolic Z-matrix:
 Charge =  0 Multiplicity = 1

 SCF Done:  E(RB3LYP) =  -423.146262989     A.U. after   14 cycles
 Optimization completed.
    -- Stationary point found.
 Normal termination of Gaussian 09 at Mon Jan 27 17:10:54 2020.

 ----------------------------------------------------------------------
 #N Geom=AllCheck Guess=TCheck SCRF=Check GenChk RB3LYP/6-31G(2df,p) Fr
 eq
 ----------------------------------------------------------------------

 Structure from the checkpoint file:  "/scratch/puck/g09_a335fe32-5ad9-405e-acf6-cddb9eb1addc/Gau-66020.chk"
 -----
 titel
 -----
 Charge =  0 Multiplicity = 1

                         Standard orientation:
 ---------------------------------------------------------------------
 Center     Atomic      Atomic             Coordinates (Angstroms)
 Number     Number       Type             X           Y           Z
 ---------------------------------------------------------------------
      1          6           0       -2.178114    1.137798    0.021909
      2          6           0       -0.972271    0.242363    0.013346
      3          6           0       -0.502931   -0.593656    1.234455
      4          6           0        0.006243   -1.467176    0.078474
      5          8           0       -1.148765   -1.036707   -0.712674
      6          6           0        1.112447   -0.606985   -0.581684
      7          8           0        2.099469   -0.024667    0.302523
      8          6           0        1.493267    1.284969    0.182802
      9          6           0        0.334763    0.725510   -0.667107
     10          1           0       -2.439861    1.439584   -0.997642
     11          1           0       -3.039549    0.630398    0.464154
     12          1           0       -1.972938    2.043583    0.602402
     13          1           0        0.211102   -0.182793    1.948500
     14          1           0       -1.354003   -1.054785    1.736486
     15          1           0        0.128691   -2.547678    0.139834
     16          1           0        1.559537   -1.056568   -1.471725
     17          1           0        1.237915    1.718465    1.157738
     18          1           0        2.152072    1.977196   -0.354740
     19          1           0        0.150980    1.186647   -1.636960
 ---------------------------------------------------------------------

 SCF Done:  E(RB3LYP) =  -423.146262989     A.U. after    1 cycles

 The electronic state is 1-A.
 Alpha  occ. eigenvalues --  -19.13438 -19.13378 -10.24647 -10.23485 -10.23295
 Alpha  occ. eigenvalues --  -10.23162 -10.19149 -10.18535 -10.18449  -1.05574
 Alpha  occ. eigenvalues --   -1.02698  -0.78572  -0.75063  -0.72500  -0.69205
 Alpha  occ. eigenvalues --   -0.63430  -0.55144  -0.53131  -0.51207  -0.49083
 Alpha  occ. eigenvalues --   -0.47040  -0.44972  -0.44290  -0.41769  -0.40887
 Alpha  occ. eigenvalues --   -0.38103  -0.37638  -0.36098  -0.33042  -0.32151
 Alpha  occ. eigenvalues --   -0.30810  -0.29705  -0.26283  -0.24172
 Alpha virt. eigenvalues --    0.06992   0.08678   0.10262   0.11257   0.12803
 Alpha virt. eigenvalues --    0.13335   0.14703   0.15167   0.15286   0.16808
 Alpha virt. eigenvalues --    0.17544   0.18494   0.18600   0.19750   0.20543

 Mulliken charges:
               1
     1  C   -0.501603
     2  C    0.404390
     3  C   -0.287885
     4  C    0.049960
     5  O   -0.334775
     6  C    0.122338
     7  O   -0.300685
     8  C   -0.112960
     9  C   -0.094921
    10  H    0.130017
    11  H    0.129285
    12  H    0.124294
    13  H    0.115346
    14  H    0.107323
    15  H    0.079315
    16  H    0.081700
    17  H    0.100262
    18  H    0.105600
    19  H    0.082998
 Sum of Mulliken charges =   0.00000

 Dipole moment (field-independent basis, Debye):
    X=             -0.6440    Y=              1.3538    Z=              0.3439  Tot=              1.5381
 Quadrupole moment (field-independent basis, Debye-Ang):
   XX=            -58.0007   YY=            -50.0283   ZZ=            -52.7762
   XY=             -1.2047   XZ=             -3.5950   YZ=             -1.1362

  Exact polarizability:  76.849   0.136  76.580  -2.154  -0.070  66.529
 Approx polarizability: 108.096   0.753 112.629   2.469   2.510 103.051

                      1                      2                      3
                      A                      A                      A
 Frequencies --    176.8316               194.6803               251.8101
 Red. masses --      3.3012                 1.0731                 2.4951
 Frc consts  --      0.0608                 0.0240                 0.0932
 IR Inten    --      2.4165                 0.4278                 0.9561

                      4                      5                      6
                      A                      A                      A
 Frequencies --    309.3772               321.7667               428.2506
 Red. masses --      2.8281                 2.8039                 3.0122
 Frc consts  --      0.1595                 0.1710                 0.3255
 IR Inten    --      2.0560                 6.1865                 6.1821

                      7                      8                      9
                      A                      A                      A
 Frequencies --    524.4005               544.6422               588.7687
 Red. masses --      3.0098                 3.4441                 4.0734
 Frc consts  --      0.4876                 0.6019                 0.8319
 IR Inten    --      0.2169                 6.9614                 3.9490

                     10                     11                     12
                      A                      A                      A
 Frequencies --    687.9526               768.5231               824.4666
 Red. masses --      3.5550                 2.8108                 2.9940
 Frc consts  --      0.9913                 0.9781                 1.1991
 IR Inten    --      3.0571                 7.4295                 3.1496

                     13                     14                     15
                      A                      A                      A
 Frequencies --    839.2971               851.4001               885.1841
 Red. masses --      2.7884                 3.4073                 1.7922
 Frc consts  --      1.1573                 1.4552                 0.8274
 IR Inten    --     12.8387                19.9866                14.0107

                     16                     17                     18
                      A                      A                      A
 Frequencies --    922.5163               947.4047               973.5947
 Red. masses --      2.9128                 2.8163                 2.5951
 Frc consts  --      1.4605                 1.4893                 1.4493
 IR Inten    --      8.9918                 5.9451                25.3404

                     19                     20                     21
                      A                      A                      A
 Frequencies --    989.7338              1009.2168              1011.0342
 Red. masses --      1.8556                 3.1986                 1.6817
 Frc consts  --      1.0709                 1.9195                 1.0128
 IR Inten    --      6.6350                40.2498                28.5306

                     22                     23                     24
                      A                      A                      A
 Frequencies --   1027.8853              1065.9848              1078.2763
 Red. masses --      2.4557                 2.5453                 1.2879
 Frc consts  --      1.5287                 1.7041                 0.8823
 IR Inten    --      6.8686                26.8973                 6.3568

                     25                     26                     27
                      A                      A                      A
 Frequencies --   1132.0612              1152.8135              1173.9371
 Red. masses --      2.0177                 1.7469                 1.3844
 Frc consts  --      1.5235                 1.3679                 1.1241
 IR Inten    --      3.3554                 5.8184                 1.5757

                     28                     29                     30
                      A                      A                      A
 Frequencies --   1214.7171              1216.9732              1248.1241
 Red. masses --      1.7595                 1.4626                 1.5424
 Frc consts  --      1.5296                 1.2763                 1.4157
 IR Inten    --     12.9168                 4.0187                 2.6709

                     31                     32                     33
                      A                      A                      A
 Frequencies --   1255.7036              1263.5032              1296.9008
 Red. masses --      1.6438                 1.9038                 1.5997
 Frc consts  --      1.5271                 1.7907                 1.5853
 IR Inten    --      2.9504                16.7498                 0.6507

                     34                     35                     36
                      A                      A                      A
 Frequencies --   1329.0980              1352.8855              1365.4000
 Red. masses --      1.5481                 1.4262                 1.8351
 Frc consts  --      1.6113                 1.5380                 2.0158
 IR Inten    --      9.0512                 2.9448                 8.4520

                     37                     38                     39
                      A                      A                      A
 Frequencies --   1416.1668              1478.8386              1489.2192
 Red. masses --      1.5433                 1.0526                 1.1333
 Frc consts  --      1.8236                 1.3563                 1.4809
 IR Inten    --     16.9882                 2.9304                 5.4118

                     40                     41                     42
                      A                      A                      A
 Frequencies --   1494.5115              1521.3827              3015.6479
 Red. masses --      1.0892                 1.0958                 1.0551
 Frc consts  --      1.4334                 1.4944                 5.6534
 IR Inten    --      3.7357                 1.1566                67.2428

                     43                     44                     45
                      A                      A                      A
 Frequencies --   3037.1050              3058.7018              3080.7897
 Red. masses --      1.0356                 1.1104                 1.0884
 Frc consts  --      5.6281                 6.1207                 6.0862
 IR Inten    --     15.6941                35.4389                33.3644

                     46                     47                     48
                      A                      A                      A
 Frequencies --   3089.1033              3105.0045              3118.5012
 Red. masses --      1.0565                 1.1004                 1.0985
 Frc consts  --      5.9402                 6.2509                 6.2945
 IR Inten    --     24.2814                12.1706                 7.9329

                     49                     50                     51
                      A                      A                      A
 Frequencies --   3119.6507              3133.5114              3154.8950
 Red. masses --      1.0921                 1.0923                 1.1101
 Frc consts  --      6.2620                 6.3188                 6.5101
 IR Inten    --     39.1325                41.1082                18.0319

 - Thermochemistry -
 -------------------
 Temperature   298.150 Kelvin.  Pressure   1.00000 Atm.
 Atom     1 has atomic number  6 and mass  12.00000

 Molecular mass:   126.06808 amu.
 Principal axes and moments of inertia in atomic units:
                           1         2         3
     Eigenvalues --   607.608191029.405051262.37990
           X            0.99930  -0.03088  -0.02121
           Y            0.03042   0.99930  -0.02162
           Z            0.02186   0.02096   0.99954
 This molecule is an asymmetric top.
 Rotational symmetry number  1.
 Warning -- assumption of classical behavior for rotation
           may cause significant error
 Rotational temperatures (Kelvin)      0.14255     0.08414     0.06861
 Rotational constants (GHZ):           2.97024     1.75319     1.42963
 Zero-point vibrational energy     421911.8 (Joules/Mol)
                                  100.83934 (Kcal/Mol)
 Warning -- explicit consideration of   9 degrees of freedom as
           vibrations may cause significant error
 Vibrational temperatures:    254.42   280.10   362.30   445.12   462.95
          (Kelvin)            616.16   754.49   783.62   847.11   989.81
                             1105.73  1186.22  1207.56  1224.97  1273.58
                             1327.29  1363.10  1400.78  1424.00  1452.04
                             1454.65  1478.90  1533.71  1551.40  1628.78
                             1658.64  1689.03  1747.70  1750.95  1795.77
                             1806.68  1817.90  1865.95  1912.27  1946.50
                             1964.50  2037.55  2127.72  2142.65  2150.27
                             2188.93  4338.84  4369.71  4400.78  4432.56
                             4444.53  4467.40  4486.82  4488.48  4508.42
                             4539.18

 Zero-point correction=                           0.160698 (Hartree/Particle)
 Thermal correction to Energy=                    0.167831
 Thermal correction to Enthalpy=                  0.168775
 Thermal correction to Gibbs Free Energy=         0.129549
 Sum of electronic and zero-point Energies=           -422.985565
 Sum of electronic and thermal Energies=              -422.978432
 Sum of electronic and thermal Enthalpies=            -422.977488
 Sum of electronic and thermal Free Energies=         -423.016714

                     E (Thermal)             CV                S
                      KCal/Mol        Cal/Mol-Kelvin    Cal/Mol-Kelvin
 Total                  105.316             29.329             82.558
 Electronic               0.000              0.000              0.000
 Translational            0.889              2.981             40.409
 Rotational               0.889              2.981             28.159
 Vibrational            103.538             23.367             13.991
 Vibration     1          0.628              1.871              2.362
 Vibration     2          0.635              1.847              2.183
 Vibration     3          0.664              1.760              1.718
 Vibration     4          0.699              1.656              1.366
 Vibration     5          0.707              1.632              1.301
 Vibration     6          0.790              1.409              0.864
 Vibration     7          0.879              1.196              0.600
 Vibration     8          0.900              1.151              0.555
 Vibration     9          0.946              1.056              0.469

 Optimization completed.
    -- Stationary point found.
 Normal termination of Gaussian 09 at Mon Jan 27 18:00:35 2020.
