 Gaussian 09, Revision D.01,
 Gaussian 09:  ES64L-G09RevD.01 24-Apr-2013

 -----------------------------
 # b3lyp 6-31G(2df,p) opt Freq
 -----------------------------

 -----
 titel
 -----
 Symbolic Z-matrix:
 Charge =  0 Multiplicity = 1

 SCF Done:  E(RB3LYP) =  -423.123363977     A.U. after   14 cycles
 Optimization completed.
    -- Stationary point found.
 Normal termination of Gaussian 09 at Mon Jan 27 16:32:34 2020.

 ----------------------------------------------------------------------
 #N Geom=AllCheck Guess=TCheck SCRF=Check GenChk RB3LYP/6-31G(2df,p) Fr
 eq
 ----------------------------------------------------------------------

 Structure from the checkpoint file:  "/scratch/puck/g09_c684c096-0179-4619-a69b-1063c659b261/Gau-165859.chk"
 -----
 titel
 -----
 Charge =  0 Multiplicity = 1

                         Standard orientation:
 ---------------------------------------------------------------------
 Center     Atomic      Atomic             Coordinates (Angstroms)
 Number     Number       Type             X           Y           Z
 ---------------------------------------------------------------------
      1          8           0        0.454219    1.474198   -0.754108
      2          6           0       -0.067725    0.342950   -0.086292
      3          6           0       -1.111196    0.715071    1.047546
      4          6           0       -2.204010    0.061127    0.193368
      5          8           0       -1.814438   -1.305017   -0.000421
      6          6           0       -1.243794   -0.314463   -0.859354
      7          6           0        1.069640   -0.565243    0.293963
      8          6           0        2.295848   -0.683208   -0.575047
      9          6           0        2.385204   -0.002098    0.768740
     10          1           0       -0.279350    2.038023   -1.021165
     11          1           0       -0.961459    0.271417    2.034490
     12          1           0       -1.205778    1.800519    1.142063
     13          1           0       -3.263549    0.282289    0.136598
     14          1           0       -1.354138   -0.447049   -1.930935
     15          1           0        0.721212   -1.472591    0.774705
     16          1           0        2.743331   -1.664130   -0.690622
     17          1           0        2.347775   -0.050574   -1.452970
     18          1           0        2.895670   -0.512061    1.578293
     19          1           0        2.494230    1.075898    0.768228
 ---------------------------------------------------------------------

 SCF Done:  E(RB3LYP) =  -423.123363977     A.U. after    1 cycles

 The electronic state is 1-A.
 Alpha  occ. eigenvalues --  -19.15574 -19.14878 -10.24625 -10.24159 -10.23461
 Alpha  occ. eigenvalues --  -10.18812 -10.18164 -10.17525 -10.17442  -1.08264
 Alpha  occ. eigenvalues --   -1.03163  -0.84690  -0.78803  -0.67839  -0.64389
 Alpha  occ. eigenvalues --   -0.58912  -0.58661  -0.55948  -0.53620  -0.48074
 Alpha  occ. eigenvalues --   -0.47313  -0.45889  -0.44315  -0.41622  -0.38689
 Alpha  occ. eigenvalues --   -0.38434  -0.35556  -0.35336  -0.33339  -0.31881
 Alpha  occ. eigenvalues --   -0.28833  -0.28434  -0.26729  -0.24395
 Alpha virt. eigenvalues --    0.06328   0.08876   0.10563   0.11133   0.12726
 Alpha virt. eigenvalues --    0.13269   0.14299   0.15163   0.15637   0.16639
 Alpha virt. eigenvalues --    0.17526   0.18141   0.19938   0.20605   0.23480

 Mulliken charges:
               1
     1  O   -0.484177
     2  C    0.363850
     3  C   -0.319054
     4  C    0.024089
     5  O   -0.240846
     6  C   -0.049662
     7  C   -0.001355
     8  C   -0.274597
     9  C   -0.275845
    10  H    0.280106
    11  H    0.113291
    12  H    0.102107
    13  H    0.105219
    14  H    0.101678
    15  H    0.097242
    16  H    0.106027
    17  H    0.123385
    18  H    0.105477
    19  H    0.123065
 Sum of Mulliken charges =   0.00000

 Dipole moment (field-independent basis, Debye):
    X=             -1.1381    Y=              1.6081    Z=             -0.2855  Tot=              1.9907
 Quadrupole moment (field-independent basis, Debye-Ang):
   XX=            -53.0617   YY=            -53.2261   ZZ=            -51.1161
   XY=             -6.2915   XZ=              1.8283   YZ=             -0.6728

  Exact polarizability:  86.683  -2.690  67.959  -1.182   2.515  70.454
 Approx polarizability: 112.939  -0.040 107.420  -5.051   1.806 107.179

                      1                      2                      3
                      A                      A                      A
 Frequencies --     82.1678               134.6753               192.3491
 Red. masses --      3.0248                 3.9363                 2.6350
 Frc consts  --      0.0120                 0.0421                 0.0574
 IR Inten    --      0.7412                 2.6990                 1.3636

                      4                      5                      6
                      A                      A                      A
 Frequencies --    256.0907               290.0205               337.1199
 Red. masses --      3.1326                 1.1432                 4.1112
 Frc consts  --      0.1210                 0.0567                 0.2753
 IR Inten    --      8.6252                60.9779                20.4181

                      7                      8                      9
                      A                      A                      A
 Frequencies --    370.6157               442.7857               464.0536
 Red. masses --      3.2711                 2.5331                 3.3105
 Frc consts  --      0.2647                 0.2926                 0.4200
 IR Inten    --      1.8488                 3.8072                 1.7499

                     10                     11                     12
                      A                      A                      A
 Frequencies --    547.9909               664.7601               781.9786
 Red. masses --      4.2068                 2.8831                 3.0145
 Frc consts  --      0.7443                 0.7507                 1.0861
 IR Inten    --      4.2308                 4.9784                 5.5054

                     13                     14                     15
                      A                      A                      A
 Frequencies --    798.9812               825.3521               837.1673
 Red. masses --      1.1748                 1.5556                 1.8023
 Frc consts  --      0.4419                 0.6244                 0.7442
 IR Inten    --      0.8299                 2.9219                 5.5871

                     16                     17                     18
                      A                      A                      A
 Frequencies --    859.4718               875.3919               918.9026
 Red. masses --      1.9282                 3.1139                 3.3137
 Frc consts  --      0.8392                 1.4059                 1.6486
 IR Inten    --     10.5971                35.3374                10.5118

                     19                     20                     21
                      A                      A                      A
 Frequencies --    937.6944               971.8583               980.6777
 Red. masses --      3.0468                 2.1799                 1.9704
 Frc consts  --      1.5784                 1.2131                 1.1165
 IR Inten    --      4.9838                 8.9912                 7.9699

                     22                     23                     24
                      A                      A                      A
 Frequencies --   1036.3151              1041.5665              1057.5701
 Red. masses --      1.6985                 3.1411                 1.4344
 Frc consts  --      1.0747                 2.0077                 0.9452
 IR Inten    --     31.8622                 5.4148                17.3516

                     25                     26                     27
                      A                      A                      A
 Frequencies --   1065.9742              1073.2883              1085.8046
 Red. masses --      1.3157                 2.0140                 1.3969
 Frc consts  --      0.8808                 1.3669                 0.9704
 IR Inten    --      9.4347                 5.2171                 0.8366

                     28                     29                     30
                      A                      A                      A
 Frequencies --   1133.1796              1148.9544              1202.8232
 Red. masses --      1.5126                 1.0938                 1.5365
 Frc consts  --      1.1444                 0.8508                 1.3097
 IR Inten    --      1.9827                 0.5892                44.2558

                     31                     32                     33
                      A                      A                      A
 Frequencies --   1205.0759              1213.5403              1224.0209
 Red. masses --      1.4006                 1.4477                 1.9867
 Frc consts  --      1.1984                 1.2561                 1.7537
 IR Inten    --      3.5872                 3.0132                 1.0641

                     34                     35                     36
                      A                      A                      A
 Frequencies --   1249.3136              1276.3766              1331.5271
 Red. masses --      1.7989                 1.9336                 1.4633
 Frc consts  --      1.6543                 1.8560                 1.5286
 IR Inten    --     26.8600                43.2275                14.1159

                     37                     38                     39
                      A                      A                      A
 Frequencies --   1377.4910              1449.1008              1461.4756
 Red. masses --      3.7954                 1.8650                 1.0881
 Frc consts  --      4.2432                 2.3074                 1.3693
 IR Inten    --     10.4793                34.4605                 1.7623

                     40                     41                     42
                      A                      A                      A
 Frequencies --   1468.0834              1503.5477              3060.8354
 Red. masses --      1.1145                 1.5266                 1.0581
 Frc consts  --      1.4153                 2.0334                 5.8405
 IR Inten    --      2.2069                 0.9563                19.7762

                     43                     44                     45
                      A                      A                      A
 Frequencies --   3121.1705              3137.5767              3141.5133
 Red. masses --      1.1083                 1.0512                 1.0578
 Frc consts  --      6.3611                 6.0971                 6.1506
 IR Inten    --     14.9462                18.7869                14.2951

                     46                     47                     48
                      A                      A                      A
 Frequencies --   3169.1240              3174.7202              3189.7643
 Red. masses --      1.0889                 1.0888                 1.0997
 Frc consts  --      6.4431                 6.4655                 6.5925
 IR Inten    --     15.1776                 3.0116                23.8420

                     49                     50                     51
                      A                      A                      A
 Frequencies --   3222.0961              3236.4084              3810.1882
 Red. masses --      1.1170                 1.1149                 1.0661
 Frc consts  --      6.8326                 6.8804                 9.1190
 IR Inten    --      0.2667                13.2326                15.2776

 - Thermochemistry -
 -------------------
 Temperature   298.150 Kelvin.  Pressure   1.00000 Atm.
 Atom     1 has atomic number  8 and mass  15.99491

 Molecular mass:   126.06808 amu.
 Principal axes and moments of inertia in atomic units:
                           1         2         3
     Eigenvalues --   551.904951417.022951538.18962
           X            0.99948  -0.03211   0.00200
           Y            0.03199   0.99851   0.04423
           Z           -0.00342  -0.04414   0.99902
 This molecule is an asymmetric top.
 Rotational symmetry number  1.
 Warning -- assumption of classical behavior for rotation
           may cause significant error
 Rotational temperatures (Kelvin)      0.15694     0.06112     0.05631
 Rotational constants (GHZ):           3.27002     1.27361     1.17329
 Zero-point vibrational energy     415334.6 (Joules/Mol)
                                   99.26736 (Kcal/Mol)
 Warning -- explicit consideration of  10 degrees of freedom as
           vibrations may cause significant error
 Vibrational temperatures:    118.22   193.77   276.75   368.46   417.27
          (Kelvin)            485.04   533.23   637.07   667.67   788.44
                              956.44  1125.09  1149.55  1187.50  1204.50
                             1236.59  1259.49  1322.09  1349.13  1398.29
                             1410.97  1491.02  1498.58  1521.61  1533.70
                             1544.22  1562.23  1630.39  1653.09  1730.59
                             1733.83  1746.01  1761.09  1797.48  1836.42
                             1915.77  1981.90  2084.93  2102.73  2112.24
                             2163.27  4403.85  4490.66  4514.27  4519.93
                             4559.66  4567.71  4589.35  4635.87  4656.46
                             5482.00

 Zero-point correction=                           0.158193 (Hartree/Particle)
 Thermal correction to Energy=                    0.166454
 Thermal correction to Enthalpy=                  0.167399
 Thermal correction to Gibbs Free Energy=         0.125454
 Sum of electronic and zero-point Energies=           -422.965171
 Sum of electronic and thermal Energies=              -422.956910
 Sum of electronic and thermal Enthalpies=            -422.955965
 Sum of electronic and thermal Free Energies=         -422.997910

                     E (Thermal)             CV                S
                      KCal/Mol        Cal/Mol-Kelvin    Cal/Mol-Kelvin
 Total                  104.452             32.478             88.280
 Electronic               0.000              0.000              0.000
 Translational            0.889              2.981             40.409
 Rotational               0.889              2.981             28.577
 Vibrational            102.674             26.516             19.295
 Vibration     1          0.600              1.961              3.838
 Vibration     2          0.613              1.919              2.878
 Vibration     3          0.634              1.850              2.205
 Vibration     4          0.666              1.752              1.688
 Vibration     5          0.686              1.692              1.474
 Vibration     6          0.718              1.601              1.226
 Vibration     7          0.743              1.533              1.077
 Vibration     8          0.802              1.377              0.818
 Vibration     9          0.822              1.330              0.754
 Vibration    10          0.903              1.144              0.548

 Optimization completed.
    -- Stationary point found.
 Normal termination of Gaussian 09 at Mon Jan 27 17:15:16 2020.
