 Gaussian 09, Revision D.01,
 Gaussian 09:  ES64L-G09RevD.01 24-Apr-2013

 -----------------------------
 # b3lyp 6-31G(2df,p) opt Freq
 -----------------------------

 -----
 titel
 -----
 Symbolic Z-matrix:
 Charge =  0 Multiplicity = 1

 SCF Done:  E(RB3LYP) =  -423.123221861     A.U. after   13 cycles
 Optimization completed.
    -- Stationary point found.
 Normal termination of Gaussian 09 at Mon Jan 27 11:30:32 2020.

 ----------------------------------------------------------------------
 #N Geom=AllCheck Guess=TCheck SCRF=Check GenChk RB3LYP/6-31G(2df,p) Fr
 eq
 ----------------------------------------------------------------------

 Structure from the checkpoint file:  "/scratch/puck/g09_077e4490-4369-4eb3-bc22-f9b96ac05851/Gau-60965.chk"
 -----
 titel
 -----
 Charge =  0 Multiplicity = 1

                         Standard orientation:
 ---------------------------------------------------------------------
 Center     Atomic      Atomic             Coordinates (Angstroms)
 Number     Number       Type             X           Y           Z
 ---------------------------------------------------------------------
      1          6           0        0.664234   -1.314922   -0.960007
      2          6           0       -0.503163   -1.464425    0.102481
      3          6           0        0.473391   -0.911985    1.168733
      4          6           0        1.080533   -0.177534   -0.015884
      5          8           0        1.993115    0.902576    0.061264
      6          6           0        0.643271    1.154506   -0.393737
      7          6           0       -0.574574    1.662568    0.333983
      8          6           0       -1.700724    0.754921   -0.246646
      9          8           0       -1.669211   -0.661291   -0.019601
     10          1           0        1.291340   -2.211324   -0.931346
     11          1           0        0.411632   -1.061030   -1.990755
     12          1           0       -0.887628   -2.476693    0.234347
     13          1           0        0.046747   -0.363741    2.008141
     14          1           0        1.148995   -1.689247    1.539023
     15          1           0        0.621076    1.370705   -1.463483
     16          1           0       -0.493584    1.578253    1.418790
     17          1           0       -0.827622    2.701811    0.095357
     18          1           0       -2.669400    1.066909    0.155805
     19          1           0       -1.730593    0.935312   -1.332722
 ---------------------------------------------------------------------

 SCF Done:  E(RB3LYP) =  -423.123221861     A.U. after    1 cycles

 The electronic state is 1-A.
 Alpha  occ. eigenvalues --  -19.15571 -19.14293 -10.24759 -10.24086 -10.23811
 Alpha  occ. eigenvalues --  -10.23080 -10.19681 -10.19333 -10.18342  -1.07100
 Alpha  occ. eigenvalues --   -1.02688  -0.84432  -0.78912  -0.67938  -0.67623
 Alpha  occ. eigenvalues --   -0.63306  -0.56961  -0.54482  -0.50467  -0.48929
 Alpha  occ. eigenvalues --   -0.48276  -0.47006  -0.43727  -0.42118  -0.40373
 Alpha  occ. eigenvalues --   -0.39040  -0.38605  -0.36311  -0.34460  -0.33120
 Alpha  occ. eigenvalues --   -0.30138  -0.27225  -0.26757  -0.24616
 Alpha virt. eigenvalues --    0.07596   0.08514   0.10335   0.10703   0.12410
 Alpha virt. eigenvalues --    0.12710   0.13669   0.15629   0.16106   0.16487
 Alpha virt. eigenvalues --    0.17254   0.18708   0.19083   0.20821   0.21245

 Mulliken charges:
               1
     1  C   -0.341008
     2  C    0.143848
     3  C   -0.299926
     4  C    0.392335
     5  O   -0.324622
     6  C    0.013930
     7  C   -0.301046
     8  C   -0.041817
     9  O   -0.292544
    10  H    0.107343
    11  H    0.108680
    12  H    0.090692
    13  H    0.105468
    14  H    0.103817
    15  H    0.094844
    16  H    0.121351
    17  H    0.104013
    18  H    0.114732
    19  H    0.099908
 Sum of Mulliken charges =   0.00000

 Dipole moment (field-independent basis, Debye):
    X=             -1.1084    Y=             -0.1295    Z=             -0.2924  Tot=              1.1536
 Quadrupole moment (field-independent basis, Debye-Ang):
   XX=            -60.3616   YY=            -50.1675   ZZ=            -51.4131
   XY=             -5.8997   XZ=             -0.4023   YZ=             -0.9000

  Exact polarizability:  73.122  -6.205  83.256   0.166  -1.377  68.124
 Approx polarizability: 112.268  -3.882 119.941   1.805  -2.818 103.346

                      1                      2                      3
                      A                      A                      A
 Frequencies --    148.8976               280.3153               325.7901
 Red. masses --      2.8220                 2.7208                 3.9239
 Frc consts  --      0.0369                 0.1260                 0.2454
 IR Inten    --      5.8947                 3.1671                 1.1796

                      4                      5                      6
                      A                      A                      A
 Frequencies --    375.0184               399.4592               413.2817
 Red. masses --      3.7508                 3.4909                 2.8616
 Frc consts  --      0.3108                 0.3282                 0.2880
 IR Inten    --      1.4089                 0.2076                 4.6935

                      7                      8                      9
                      A                      A                      A
 Frequencies --    456.5262               507.8467               550.3675
 Red. masses --      3.5561                 2.2635                 2.7434
 Frc consts  --      0.4367                 0.3440                 0.4896
 IR Inten    --      4.4823                 0.9374                 1.0039

                     10                     11                     12
                      A                      A                      A
 Frequencies --    628.9260               738.9403               804.9793
 Red. masses --      3.0784                 2.9774                 2.4669
 Frc consts  --      0.7174                 0.9579                 0.9418
 IR Inten    --     11.7338                 4.8346                 5.5663

                     13                     14                     15
                      A                      A                      A
 Frequencies --    823.4797               852.8873               876.6813
 Red. masses --      2.1948                 3.1682                 2.0888
 Frc consts  --      0.8769                 1.3578                 0.9459
 IR Inten    --      1.3148                 9.6366                13.7819

                     16                     17                     18
                      A                      A                      A
 Frequencies --    934.0264               938.3246               952.7137
 Red. masses --      1.9768                 2.3640                 2.6371
 Frc consts  --      1.0161                 1.2263                 1.4103
 IR Inten    --      2.6574                41.7838                13.6808

                     19                     20                     21
                      A                      A                      A
 Frequencies --    968.6805              1018.3815              1023.7920
 Red. masses --      2.4471                 1.8548                 3.4729
 Frc consts  --      1.3529                 1.1334                 2.1447
 IR Inten    --      3.2658                34.1237                 9.8232

                     22                     23                     24
                      A                      A                      A
 Frequencies --   1044.3777              1099.5509              1117.2452
 Red. masses --      1.1763                 2.2163                 2.0027
 Frc consts  --      0.7559                 1.5787                 1.4729
 IR Inten    --      5.5039                12.8692                 4.2979

                     25                     26                     27
                      A                      A                      A
 Frequencies --   1136.1333              1158.1163              1175.2004
 Red. masses --      2.0183                 2.0872                 1.4286
 Frc consts  --      1.5349                 1.6494                 1.1625
 IR Inten    --     21.3581                36.8682                18.5453

                     28                     29                     30
                      A                      A                      A
 Frequencies --   1193.3641              1212.3501              1243.9771
 Red. masses --      1.7488                 1.5726                 1.5957
 Frc consts  --      1.4673                 1.3618                 1.4549
 IR Inten    --     17.0851                51.1059                13.2680

                     31                     32                     33
                      A                      A                      A
 Frequencies --   1264.9313              1274.7829              1329.2481
 Red. masses --      1.6949                 1.3848                 1.2214
 Frc consts  --      1.5978                 1.3259                 1.2715
 IR Inten    --      7.1628                20.5712                 4.6327

                     34                     35                     36
                      A                      A                      A
 Frequencies --   1368.7593              1381.4557              1417.0452
 Red. masses --      1.2215                 1.2199                 1.2507
 Frc consts  --      1.3483                 1.3717                 1.4797
 IR Inten    --      5.7111                 4.1284                 7.3766

                     37                     38                     39
                      A                      A                      A
 Frequencies --   1470.7568              1488.5798              1504.7552
 Red. masses --      1.1097                 1.1227                 1.2066
 Frc consts  --      1.4143                 1.4658                 1.6096
 IR Inten    --      2.3540                 5.5144                 3.1358

                     40                     41                     42
                      A                      A                      A
 Frequencies --   1508.7279              1525.7566              2980.8434
 Red. masses --      1.3034                 2.2757                 1.0710
 Frc consts  --      1.7481                 3.1214                 5.6068
 IR Inten    --     14.3112                17.8962                50.3726

                     43                     44                     45
                      A                      A                      A
 Frequencies --   3047.9812              3055.5045              3062.8560
 Red. masses --      1.0672                 1.0599                 1.0634
 Frc consts  --      5.8416                 5.8302                 5.8779
 IR Inten    --     27.6401                28.3090                21.3148

                     46                     47                     48
                      A                      A                      A
 Frequencies --   3076.3244              3087.1141              3106.3401
 Red. masses --      1.0916                 1.0855                 1.0888
 Frc consts  --      6.0866                 6.0950                 6.1899
 IR Inten    --     41.9534                14.8869                46.3336

                     49                     50                     51
                      A                      A                      A
 Frequencies --   3119.7976              3128.2946              3139.9246
 Red. masses --      1.0997                 1.1065                 1.0997
 Frc consts  --      6.3061                 6.3802                 6.3879
 IR Inten    --     14.8035                28.9347                26.8758

 - Thermochemistry -
 -------------------
 Temperature   298.150 Kelvin.  Pressure   1.00000 Atm.
 Atom     1 has atomic number  6 and mass  12.00000

 Molecular mass:   126.06808 amu.
 Principal axes and moments of inertia in atomic units:
                           1         2         3
     Eigenvalues --   743.11245 871.135041264.57578
           X            0.96044  -0.27848  -0.00091
           Y            0.27848   0.96044  -0.00280
           Z            0.00165   0.00244   1.00000
 This molecule is an asymmetric top.
 Rotational symmetry number  1.
 Warning -- assumption of classical behavior for rotation
           may cause significant error
 Rotational temperatures (Kelvin)      0.11656     0.09943     0.06849
 Rotational constants (GHZ):           2.42862     2.07171     1.42715
 Zero-point vibrational energy     423115.6 (Joules/Mol)
                                  101.12706 (Kcal/Mol)
 Warning -- explicit consideration of   9 degrees of freedom as
           vibrations may cause significant error
 Vibrational temperatures:    214.23   403.31   468.74   539.57   574.73
          (Kelvin)            594.62   656.84   730.68   791.86   904.88
                             1063.17  1158.18  1184.80  1227.11  1261.35
                             1343.85  1350.04  1370.74  1393.71  1465.22
                             1473.01  1502.62  1582.01  1607.46  1634.64
                             1666.27  1690.85  1716.98  1744.30  1789.80
                             1819.95  1834.13  1912.49  1969.34  1987.60
                             2038.81  2116.09  2141.73  2165.00  2170.72
                             2195.22  4288.76  4385.36  4396.18  4406.76
                             4426.14  4441.66  4469.32  4488.69  4500.91
                             4517.65

 Zero-point correction=                           0.161156 (Hartree/Particle)
 Thermal correction to Energy=                    0.168108
 Thermal correction to Enthalpy=                  0.169052
 Thermal correction to Gibbs Free Energy=         0.130244
 Sum of electronic and zero-point Energies=           -422.962066
 Sum of electronic and thermal Energies=              -422.955114
 Sum of electronic and thermal Enthalpies=            -422.954170
 Sum of electronic and thermal Free Energies=         -422.992977

                     E (Thermal)             CV                S
                      KCal/Mol        Cal/Mol-Kelvin    Cal/Mol-Kelvin
 Total                  105.489             29.231             81.678
 Electronic               0.000              0.000              0.000
 Translational            0.889              2.981             40.409
 Rotational               0.889              2.981             28.195
 Vibrational            103.712             23.270             13.074
 Vibration     1          0.618              1.904              2.686
 Vibration     2          0.680              1.710              1.532
 Vibration     3          0.710              1.624              1.281
 Vibration     4          0.746              1.523              1.059
 Vibration     5          0.766              1.471              0.965
 Vibration     6          0.777              1.441              0.915
 Vibration     7          0.815              1.346              0.776
 Vibration     8          0.863              1.233              0.639
 Vibration     9          0.906              1.139              0.543

 Optimization completed.
    -- Stationary point found.
 Normal termination of Gaussian 09 at Mon Jan 27 13:54:12 2020.
