 Gaussian 09, Revision D.01,
 Gaussian 09:  ES64L-G09RevD.01 24-Apr-2013

 -----------------------------
 # b3lyp 6-31G(2df,p) opt Freq
 -----------------------------

 -----
 titel
 -----
 Symbolic Z-matrix:
 Charge =  0 Multiplicity = 1

 SCF Done:  E(RB3LYP) =  -423.201230190     A.U. after   14 cycles
 Optimization completed.
    -- Stationary point found.
 Normal termination of Gaussian 09 at Mon Jan 27 16:23:50 2020.

 ----------------------------------------------------------------------
 #N Geom=AllCheck Guess=TCheck SCRF=Check GenChk RB3LYP/6-31G(2df,p) Fr
 eq
 ----------------------------------------------------------------------

 Structure from the checkpoint file:  "/scratch/puck/g09_590218cc-62e6-404d-b7d1-fd798a106865/Gau-69796.chk"
 -----
 titel
 -----
 Charge =  0 Multiplicity = 1

                         Standard orientation:
 ---------------------------------------------------------------------
 Center     Atomic      Atomic             Coordinates (Angstroms)
 Number     Number       Type             X           Y           Z
 ---------------------------------------------------------------------
      1          6           0        1.459726    1.761508   -0.035583
      2          6           0        1.296594    0.254574    0.006359
      3          6           0        2.385854   -0.610458   -0.627186
      4          6           0        2.273709   -0.555992    0.856670
      5          6           0       -0.077960   -0.340993   -0.074140
      6          8           0       -0.256326   -1.542964   -0.050368
      7          6           0       -1.267721    0.610912   -0.182108
      8          6           0       -2.593430   -0.123080   -0.256663
      9          8           0       -3.550639    0.164756    0.413141
     10          1           0        2.518080    2.027714    0.036064
     11          1           0        1.080653    2.191208   -0.969353
     12          1           0        0.943907    2.254764    0.795183
     13          1           0        2.049724   -1.515008   -1.119720
     14          1           0        3.199052   -0.082141   -1.112539
     15          1           0        1.863086   -1.424048    1.358463
     16          1           0        3.007985    0.010305    1.418903
     17          1           0       -1.288066    1.313666    0.657117
     18          1           0       -1.152978    1.217357   -1.093052
     19          1           0       -2.626362   -0.946984   -0.997340
 ---------------------------------------------------------------------

 SCF Done:  E(RB3LYP) =  -423.201230190     A.U. after    1 cycles

 The electronic state is 1-A.
 Alpha  occ. eigenvalues --  -19.14130 -19.13589 -10.28182 -10.27416 -10.21646
 Alpha  occ. eigenvalues --  -10.20705 -10.20207 -10.20172 -10.19732  -1.05155
 Alpha  occ. eigenvalues --   -1.04562  -0.87895  -0.78272  -0.72877  -0.64825
 Alpha  occ. eigenvalues --   -0.61461  -0.57892  -0.52780  -0.51290  -0.48312
 Alpha  occ. eigenvalues --   -0.47041  -0.45373  -0.43637  -0.43064  -0.41543
 Alpha  occ. eigenvalues --   -0.40738  -0.39201  -0.38663  -0.37262  -0.36016
 Alpha  occ. eigenvalues --   -0.31673  -0.28924  -0.26744  -0.24539
 Alpha virt. eigenvalues --   -0.02757  -0.02004   0.07646   0.09437   0.11509
 Alpha virt. eigenvalues --    0.12364   0.12899   0.13131   0.14632   0.15657
 Alpha virt. eigenvalues --    0.16118   0.18692   0.21310   0.21838   0.22877

 Mulliken charges:
               1
     1  C   -0.485545
     2  C    0.237310
     3  C   -0.273874
     4  C   -0.272559
     5  C    0.318808
     6  O   -0.326378
     7  C   -0.413261
     8  C    0.177134
     9  O   -0.242277
    10  H    0.121941
    11  H    0.122353
    12  H    0.127043
    13  H    0.139392
    14  H    0.117780
    15  H    0.140902
    16  H    0.118400
    17  H    0.148702
    18  H    0.145051
    19  H    0.099077
 Sum of Mulliken charges =   0.00000

 Dipole moment (field-independent basis, Debye):
    X=              3.3280    Y=              2.1901    Z=             -1.1782  Tot=              4.1546
 Quadrupole moment (field-independent basis, Debye-Ang):
   XX=            -61.9325   YY=            -55.4549   ZZ=            -51.3778
   XY=              0.9803   XZ=              4.1212   YZ=             -0.2581

  Exact polarizability:  94.690  -0.470  74.277  -1.235   1.955  62.822
 Approx polarizability: 124.287  -0.605 114.958  -6.310   3.438  99.915

                      1                      2                      3
                      A                      A                      A
 Frequencies --     35.6524                44.0988                69.6147
 Red. masses --      5.6954                 2.8496                 4.1425
 Frc consts  --      0.0043                 0.0033                 0.0118
 IR Inten    --      0.4745                 3.6710                 7.9936

                      4                      5                      6
                      A                      A                      A
 Frequencies --    179.4209               225.2782               279.0056
 Red. masses --      2.8971                 1.0851                 2.3503
 Frc consts  --      0.0549                 0.0324                 0.1078
 IR Inten    --      1.8136                 0.1444                 0.3694

                      7                      8                      9
                      A                      A                      A
 Frequencies --    291.1913               307.5653               349.7322
 Red. masses --      3.5046                 4.1276                 2.0960
 Frc consts  --      0.1751                 0.2301                 0.1511
 IR Inten    --      9.0101                 6.1338                 0.0891

                     10                     11                     12
                      A                      A                      A
 Frequencies --    393.6443               473.1304               560.2707
 Red. masses --      3.3360                 2.4762                 3.2484
 Frc consts  --      0.3046                 0.3266                 0.6008
 IR Inten    --      0.2046                11.8324                 6.8920

                     13                     14                     15
                      A                      A                      A
 Frequencies --    596.0603               723.5122               793.7028
 Red. masses --      3.2165                 3.3216                 1.2047
 Frc consts  --      0.6733                 1.0244                 0.4471
 IR Inten    --      9.3665                 0.7115                 0.8655

                     16                     17                     18
                      A                      A                      A
 Frequencies --    803.8715               827.5248               874.2396
 Red. masses --      1.9798                 3.1550                 2.5839
 Frc consts  --      0.7538                 1.2730                 1.1636
 IR Inten    --      4.4766                 3.1931                14.5278

                     19                     20                     21
                      A                      A                      A
 Frequencies --    948.0660               960.7693              1015.1962
 Red. masses --      1.2031                 1.4853                 1.9938
 Frc consts  --      0.6371                 0.8078                 1.2107
 IR Inten    --      0.6714                 6.9527                27.1231

                     22                     23                     24
                      A                      A                      A
 Frequencies --   1041.3102              1063.7327              1077.7124
 Red. masses --      2.0448                 1.8434                 2.2864
 Frc consts  --      1.3063                 1.2289                 1.5646
 IR Inten    --      4.6906                26.1014                16.7792

                     25                     26                     27
                      A                      A                      A
 Frequencies --   1091.2615              1092.3561              1118.4703
 Red. masses --      1.3831                 1.8039                 1.5595
 Frc consts  --      0.9704                 1.2682                 1.1494
 IR Inten    --     14.5410               104.2867                 1.5159

                     28                     29                     30
                      A                      A                      A
 Frequencies --   1197.5376              1206.8696              1281.4623
 Red. masses --      1.2772                 1.3065                 1.9272
 Frc consts  --      1.0791                 1.1212                 1.8646
 IR Inten    --      5.5475                 0.4792                 3.1280

                     31                     32                     33
                      A                      A                      A
 Frequencies --   1315.4390              1351.9624              1419.4031
 Red. masses --      3.1235                 2.9305                 1.1004
 Frc consts  --      3.1845                 3.1559                 1.3062
 IR Inten    --      9.3485               109.8876                13.3181

                     34                     35                     36
                      A                      A                      A
 Frequencies --   1423.8134              1428.1694              1451.5121
 Red. masses --      1.2639                 1.2053                 1.0869
 Frc consts  --      1.5096                 1.4484                 1.3492
 IR Inten    --     14.7287                 7.5384                 4.8512

                     37                     38                     39
                      A                      A                      A
 Frequencies --   1482.7189              1496.4059              1501.2372
 Red. masses --      1.3121                 1.0438                 1.0594
 Frc consts  --      1.6995                 1.3770                 1.4068
 IR Inten    --      4.1829                 4.3826                19.5867

                     40                     41                     42
                      A                      A                      A
 Frequencies --   1766.9087              1837.6748              2934.7883
 Red. masses --     11.0805                 9.9537                 1.0848
 Frc consts  --     20.3816                19.8048                 5.5051
 IR Inten    --    107.9804               185.3647                69.4596

                     43                     44                     45
                      A                      A                      A
 Frequencies --   3016.0094              3031.3616              3087.6831
 Red. masses --      1.0663                 1.0371                 1.0949
 Frc consts  --      5.7146                 5.6148                 6.1501
 IR Inten    --      1.3699                25.2897                 3.4154

                     46                     47                     48
                      A                      A                      A
 Frequencies --   3093.2322              3107.4045              3138.7833
 Red. masses --      1.0983                 1.0996                 1.0500
 Frc consts  --      6.1915                 6.2559                 6.0950
 IR Inten    --     21.4360                18.5722                12.6517

                     49                     50                     51
                      A                      A                      A
 Frequencies --   3140.5369              3229.0840              3242.3709
 Red. masses --      1.0582                 1.1182                 1.1168
 Frc consts  --      6.1492                 6.8693                 6.9175
 IR Inten    --     10.9548                 0.0479                 3.7850

 - Thermochemistry -
 -------------------
 Temperature   298.150 Kelvin.  Pressure   1.00000 Atm.
 Atom     1 has atomic number  6 and mass  12.00000

 Molecular mass:   126.06808 amu.
 Principal axes and moments of inertia in atomic units:
                           1         2         3
     Eigenvalues --   504.607851971.044312274.53178
           X            0.99994   0.00816   0.00739
           Y           -0.00817   0.99997   0.00084
           Z           -0.00738  -0.00090   0.99997
 This molecule is an asymmetric top.
 Rotational symmetry number  1.
 Warning -- assumption of classical behavior for rotation
           may cause significant error
 Rotational temperatures (Kelvin)      0.17165     0.04394     0.03808
 Rotational constants (GHZ):           3.57652     0.91563     0.79346
 Zero-point vibrational energy     409235.1 (Joules/Mol)
                                   97.80953 (Kcal/Mol)
 Warning -- explicit consideration of  13 degrees of freedom as
           vibrations may cause significant error
 Vibrational temperatures:     51.30    63.45   100.16   258.15   324.12
          (Kelvin)            401.43   418.96   442.52   503.19   566.37
                              680.73   806.10   857.60  1040.97  1141.96
                             1156.59  1190.62  1257.83  1364.05  1382.33
                             1460.64  1498.21  1530.47  1550.59  1570.08
                             1571.65  1609.23  1722.99  1736.41  1843.74
                             1892.62  1945.17  2042.20  2048.55  2054.81
                             2088.40  2133.30  2152.99  2159.94  2542.18
                             2644.00  4222.50  4339.36  4361.45  4442.48
                             4450.47  4470.86  4516.00  4518.53  4645.93
                             4665.04

 Zero-point correction=                           0.155869 (Hartree/Particle)
 Thermal correction to Energy=                    0.165666
 Thermal correction to Enthalpy=                  0.166611
 Thermal correction to Gibbs Free Energy=         0.119645
 Sum of electronic and zero-point Energies=           -423.045361
 Sum of electronic and thermal Energies=              -423.035564
 Sum of electronic and thermal Enthalpies=            -423.034620
 Sum of electronic and thermal Free Energies=         -423.081585

                     E (Thermal)             CV                S
                      KCal/Mol        Cal/Mol-Kelvin    Cal/Mol-Kelvin
 Total                  103.957             34.882             98.847
 Electronic               0.000              0.000              0.000
 Translational            0.889              2.981             40.409
 Rotational               0.889              2.981             29.205
 Vibrational            102.180             28.921             29.234
 Vibration     1          0.594              1.982              5.487
 Vibration     2          0.595              1.980              5.066
 Vibration     3          0.598              1.969              4.164
 Vibration     4          0.629              1.868              2.334
 Vibration     5          0.650              1.803              1.916
 Vibration     6          0.679              1.712              1.540
 Vibration     7          0.687              1.690              1.467
 Vibration     8          0.697              1.659              1.375
 Vibration     9          0.727              1.576              1.167
 Vibration    10          0.761              1.484              0.986
 Vibration    11          0.830              1.310              0.729
 Vibration    12          0.916              1.117              0.523
 Vibration    13          0.954              1.040              0.456

 Optimization completed.
    -- Stationary point found.
 Normal termination of Gaussian 09 at Mon Jan 27 17:10:04 2020.
