 Gaussian 09, Revision D.01,
 Gaussian 09:  ES64L-G09RevD.01 24-Apr-2013

 -----------------------------
 # b3lyp 6-31G(2df,p) opt Freq
 -----------------------------

 -----
 titel
 -----
 Symbolic Z-matrix:
 Charge =  0 Multiplicity = 1

 SCF Done:  E(RB3LYP) =  -423.207319587     A.U. after   14 cycles
 Optimization completed.
    -- Stationary point found.
 Normal termination of Gaussian 09 at Tue Jan 28 08:13:50 2020.

 ----------------------------------------------------------------------
 #N Geom=AllCheck Guess=TCheck SCRF=Check GenChk RB3LYP/6-31G(2df,p) Fr
 eq
 ----------------------------------------------------------------------

 Structure from the checkpoint file:  "/scratch/puck/g09_95392d67-3a28-49f9-977c-0a669e5a09a3/Gau-43556.chk"
 -----
 titel
 -----
 Charge =  0 Multiplicity = 1

                         Standard orientation:
 ---------------------------------------------------------------------
 Center     Atomic      Atomic             Coordinates (Angstroms)
 Number     Number       Type             X           Y           Z
 ---------------------------------------------------------------------
      1          6           0       -2.552758   -0.774293    0.281937
      2          6           0       -1.182010   -0.594884   -0.373982
      3          6           0       -0.043147   -1.084046    0.541215
      4          6           0        1.357572   -0.739435    0.046925
      5          8           0        2.122929   -1.596177   -0.347060
      6          6           0        1.787224    0.677855    0.156521
      7          6           0        0.967764    1.731394    0.232557
      8          6           0       -0.536788    1.700027    0.098973
      9          8           0       -1.003521    0.743616   -0.831286
     10          1           0       -2.632566   -0.187615    1.203531
     11          1           0       -3.339938   -0.447639   -0.402505
     12          1           0       -2.726352   -1.824275    0.537997
     13          1           0       -1.150031   -1.186193   -1.296186
     14          1           0       -0.173556   -0.653696    1.542745
     15          1           0       -0.103783   -2.171184    0.632910
     16          1           0        2.864589    0.816716    0.154006
     17          1           0        1.401297    2.723521    0.342272
     18          1           0       -1.009117    1.580450    1.088290
     19          1           0       -0.872947    2.670688   -0.281172
 ---------------------------------------------------------------------

 SCF Done:  E(RB3LYP) =  -423.207319587     A.U. after    1 cycles

 The electronic state is 1-A.
 Alpha  occ. eigenvalues --  -19.14716 -19.12303 -10.26555 -10.24748 -10.24653
 Alpha  occ. eigenvalues --  -10.20955 -10.19349 -10.19145 -10.18324  -1.04188
 Alpha  occ. eigenvalues --   -1.03141  -0.80881  -0.79772  -0.71478  -0.70096
 Alpha  occ. eigenvalues --   -0.62994  -0.56743  -0.53112  -0.51324  -0.49705
 Alpha  occ. eigenvalues --   -0.46233  -0.44754  -0.43055  -0.42456  -0.40517
 Alpha  occ. eigenvalues --   -0.40074  -0.38481  -0.38035  -0.36888  -0.35034
 Alpha  occ. eigenvalues --   -0.31519  -0.27421  -0.26271  -0.24138
 Alpha virt. eigenvalues --   -0.05081   0.04280   0.08821   0.09432   0.10967
 Alpha virt. eigenvalues --    0.13036   0.14226   0.15292   0.15886   0.16770
 Alpha virt. eigenvalues --    0.17520   0.18024   0.19461   0.21432   0.22769

 Mulliken charges:
               1
     1  C   -0.396805
     2  C    0.127932
     3  C   -0.343620
     4  C    0.372009
     5  O   -0.324767
     6  C   -0.140894
     7  C   -0.046021
     8  C   -0.154284
     9  O   -0.252072
    10  H    0.114971
    11  H    0.127343
    12  H    0.120722
    13  H    0.103024
    14  H    0.111529
    15  H    0.125881
    16  H    0.111395
    17  H    0.108578
    18  H    0.111306
    19  H    0.123773
 Sum of Mulliken charges =   0.00000

 Dipole moment (field-independent basis, Debye):
    X=             -2.0124    Y=              1.9896    Z=              1.8792  Tot=              3.3970
 Quadrupole moment (field-independent basis, Debye-Ang):
   XX=            -56.7934   YY=            -51.7599   ZZ=            -54.4829
   XY=              6.9003   XZ=              0.7087   YZ=              0.3797

  Exact polarizability:  88.911  -3.940  91.480  -1.929   3.289  55.253
 Approx polarizability: 122.968 -22.006 144.920  -5.150   9.492  90.222

                      1                      2                      3
                      A                      A                      A
 Frequencies --     79.4441               122.1434               220.3776
 Red. masses --      4.1249                 3.6337                 2.6045
 Frc consts  --      0.0153                 0.0319                 0.0745
 IR Inten    --      2.5293                 3.2472                 1.3657

                      4                      5                      6
                      A                      A                      A
 Frequencies --    237.6066               290.0455               315.4648
 Red. masses --      1.0576                 3.2063                 2.5500
 Frc consts  --      0.0352                 0.1589                 0.1495
 IR Inten    --      0.1312                 2.8948                 1.5822

                      7                      8                      9
                      A                      A                      A
 Frequencies --    342.1677               367.7910               483.5208
 Red. masses --      3.9335                 4.5435                 3.3593
 Frc consts  --      0.2713                 0.3621                 0.4627
 IR Inten    --      1.1605                 0.1936                15.3542

                     10                     11                     12
                      A                      A                      A
 Frequencies --    520.8582               560.1123               617.6139
 Red. masses --      2.5837                 2.7310                 1.9264
 Frc consts  --      0.4130                 0.5048                 0.4330
 IR Inten    --      2.6848                 1.9036                13.8243

                     13                     14                     15
                      A                      A                      A
 Frequencies --    692.1606               778.2298               822.9442
 Red. masses --      4.2954                 2.0856                 2.8500
 Frc consts  --      1.2125                 0.7442                 1.1372
 IR Inten    --      8.6363                 4.4478                 6.8912

                     16                     17                     18
                      A                      A                      A
 Frequencies --    875.3754               908.4070               921.7606
 Red. masses --      4.7144                 2.4043                 1.5887
 Frc consts  --      2.1284                 1.1690                 0.7953
 IR Inten    --      3.1563                 6.2305                 4.1003

                     19                     20                     21
                      A                      A                      A
 Frequencies --    954.5859              1002.7651              1006.5506
 Red. masses --      2.1443                 2.1196                 1.3787
 Frc consts  --      1.1513                 1.2557                 0.8230
 IR Inten    --      5.5460                 8.2076                10.3148

                     22                     23                     24
                      A                      A                      A
 Frequencies --   1040.9640              1092.2277              1112.3687
 Red. masses --      1.9262                 1.8232                 2.4543
 Frc consts  --      1.2298                 1.2815                 1.7893
 IR Inten    --      8.2871                 8.0637                55.3059

                     25                     26                     27
                      A                      A                      A
 Frequencies --   1155.9421              1189.5231              1235.5389
 Red. masses --      3.1110                 1.6176                 1.4486
 Frc consts  --      2.4492                 1.3486                 1.3029
 IR Inten    --     47.5531                40.3341                49.9115

                     28                     29                     30
                      A                      A                      A
 Frequencies --   1265.0631              1293.4000              1312.9757
 Red. masses --      1.4151                 1.2077                 1.6577
 Frc consts  --      1.3343                 1.1904                 1.6837
 IR Inten    --      8.1639                 1.5367                39.7661

                     31                     32                     33
                      A                      A                      A
 Frequencies --   1365.4971              1383.7550              1404.1621
 Red. masses --      1.3883                 1.2110                 1.4866
 Frc consts  --      1.5251                 1.3662                 1.7270
 IR Inten    --     30.8092                 6.8974                 8.7397

                     34                     35                     36
                      A                      A                      A
 Frequencies --   1405.9848              1410.6559              1467.5645
 Red. masses --      1.2597                 1.3513                 1.0942
 Frc consts  --      1.4672                 1.5843                 1.3884
 IR Inten    --     12.5475                 9.7231                 5.9514

                     37                     38                     39
                      A                      A                      A
 Frequencies --   1482.2055              1493.5314              1495.3853
 Red. masses --      1.0706                 1.0513                 1.0614
 Frc consts  --      1.3858                 1.3817                 1.3984
 IR Inten    --      1.0485                 8.4479                 2.3759

                     40                     41                     42
                      A                      A                      A
 Frequencies --   1692.2852              1775.6003              2970.1842
 Red. masses --      7.1238                11.0801                 1.0701
 Frc consts  --     12.0201                20.5819                 5.5620
 IR Inten    --      8.0242               213.9139                27.2859

                     43                     44                     45
                      A                      A                      A
 Frequencies --   3027.6456              3037.5081              3047.9839
 Red. masses --      1.0663                 1.0386                 1.0803
 Frc consts  --      5.7591                 5.6459                 5.9132
 IR Inten    --      2.8493                12.7183                23.9223

                     46                     47                     48
                      A                      A                      A
 Frequencies --   3064.0689              3103.9127              3112.1379
 Red. masses --      1.0897                 1.0993                 1.0983
 Frc consts  --      6.0275                 6.2400                 6.2672
 IR Inten    --     24.2660                 6.1292                35.4416

                     49                     50                     51
                      A                      A                      A
 Frequencies --   3122.5530              3147.0714              3180.7515
 Red. masses --      1.1022                 1.0861                 1.0943
 Frc consts  --      6.3316                 6.3377                 6.5229
 IR Inten    --     19.1620                10.5822                10.3304

 - Thermochemistry -
 -------------------
 Temperature   298.150 Kelvin.  Pressure   1.00000 Atm.
 Atom     1 has atomic number  6 and mass  12.00000

 Molecular mass:   126.06808 amu.
 Principal axes and moments of inertia in atomic units:
                           1         2         3
     Eigenvalues --   759.922591164.017251724.50347
           X            0.99543   0.09509  -0.00838
           Y           -0.09508   0.99547   0.00063
           Z            0.00840   0.00017   0.99996
 This molecule is an asymmetric top.
 Rotational symmetry number  1.
 Warning -- assumption of classical behavior for rotation
           may cause significant error
 Rotational temperatures (Kelvin)      0.11398     0.07441     0.05023
 Rotational constants (GHZ):           2.37490     1.55044     1.04653
 Zero-point vibrational energy     418743.1 (Joules/Mol)
                                  100.08199 (Kcal/Mol)
 Warning -- explicit consideration of  12 degrees of freedom as
           vibrations may cause significant error
 Vibrational temperatures:    114.30   175.74   317.07   341.86   417.31
          (Kelvin)            453.88   492.30   529.17   695.68   749.40
                              805.88   888.61   995.86  1119.70  1184.03
                             1259.47  1306.99  1326.21  1373.43  1442.75
                             1448.20  1497.71  1571.47  1600.45  1663.14
                             1711.46  1777.66  1820.14  1860.91  1889.08
                             1964.64  1990.91  2020.27  2022.90  2029.62
                             2111.50  2132.56  2148.86  2151.52  2434.82
                             2554.69  4273.43  4356.10  4370.29  4385.36
                             4408.51  4465.83  4477.67  4492.65  4527.93
                             4576.39

 Zero-point correction=                           0.159491 (Hartree/Particle)
 Thermal correction to Energy=                    0.167931
 Thermal correction to Enthalpy=                  0.168876
 Thermal correction to Gibbs Free Energy=         0.126431
 Sum of electronic and zero-point Energies=           -423.047829
 Sum of electronic and thermal Energies=              -423.039388
 Sum of electronic and thermal Enthalpies=            -423.038444
 Sum of electronic and thermal Free Energies=         -423.080888

                     E (Thermal)             CV                S
                      KCal/Mol        Cal/Mol-Kelvin    Cal/Mol-Kelvin
 Total                  105.379             32.235             89.332
 Electronic               0.000              0.000              0.000
 Translational            0.889              2.981             40.409
 Rotational               0.889              2.981             28.813
 Vibrational            103.601             26.273             20.110
 Vibration     1          0.600              1.963              3.905
 Vibration     2          0.610              1.931              3.066
 Vibration     3          0.647              1.810              1.956
 Vibration     4          0.656              1.783              1.821
 Vibration     5          0.686              1.692              1.474
 Vibration     6          0.703              1.644              1.334
 Vibration     7          0.721              1.591              1.202
 Vibration     8          0.740              1.538              1.089
 Vibration     9          0.840              1.287              0.701
 Vibration    10          0.876              1.204              0.608
 Vibration    11          0.916              1.118              0.524
 Vibration    12          0.977              0.995              0.420

 Optimization completed.
    -- Stationary point found.
 Normal termination of Gaussian 09 at Tue Jan 28 08:59:23 2020.
