 Gaussian 09, Revision D.01,
 Gaussian 09:  ES64L-G09RevD.01 24-Apr-2013

 -----------------------------
 # b3lyp 6-31G(2df,p) opt Freq
 -----------------------------

 -----
 titel
 -----
 Symbolic Z-matrix:
 Charge =  0 Multiplicity = 1

 SCF Done:  E(RB3LYP) =  -423.201921965     A.U. after   14 cycles
 Optimization completed.
    -- Stationary point found.
 Normal termination of Gaussian 09 at Tue Jan 28 02:51:16 2020.

 ----------------------------------------------------------------------
 #N Geom=AllCheck Guess=TCheck SCRF=Check GenChk RB3LYP/6-31G(2df,p) Fr
 eq
 ----------------------------------------------------------------------

 Structure from the checkpoint file:  "/scratch/puck/g09_d16e5a20-ee63-4d0d-8441-40b0b9bcd645/Gau-77736.chk"
 -----
 titel
 -----
 Charge =  0 Multiplicity = 1

                         Standard orientation:
 ---------------------------------------------------------------------
 Center     Atomic      Atomic             Coordinates (Angstroms)
 Number     Number       Type             X           Y           Z
 ---------------------------------------------------------------------
      1          6           0        1.498197    1.606934   -0.645580
      2          6           0        1.129208    0.691053    0.536335
      3          6           0       -0.330186    0.862038    1.009203
      4          6           0       -1.111068   -0.161804    0.191261
      5          6           0       -2.568640   -0.186997    0.078086
      6          8           0       -1.764542    0.327199   -0.990252
      7          6           0       -0.205274   -1.363973    0.008379
      8          6           0        1.212654   -0.778861    0.081803
      9          8           0        2.228473   -1.365763   -0.184517
     10          1           0        2.491483    1.353883   -1.025348
     11          1           0        0.777170    1.504866   -1.462751
     12          1           0        1.500872    2.654210   -0.328785
     13          1           0        1.852495    0.845227    1.342608
     14          1           0       -0.419193    0.622810    2.075647
     15          1           0       -0.722657    1.869983    0.854799
     16          1           0       -3.080940   -1.125042   -0.133327
     17          1           0       -3.164796    0.552895    0.611953
     18          1           0       -0.317987   -2.079832    0.833156
     19          1           0       -0.377235   -1.900822   -0.926727
 ---------------------------------------------------------------------

 SCF Done:  E(RB3LYP) =  -423.201921965     A.U. after    1 cycles

 The electronic state is 1-A.
 Alpha  occ. eigenvalues --  -19.15426 -19.13190 -10.26922 -10.25063 -10.23907
 Alpha  occ. eigenvalues --  -10.19911 -10.19630 -10.19508 -10.18310  -1.07491
 Alpha  occ. eigenvalues --   -1.04287  -0.84008  -0.75528  -0.70504  -0.67088
 Alpha  occ. eigenvalues --   -0.63502  -0.56965  -0.53980  -0.49720  -0.47865
 Alpha  occ. eigenvalues --   -0.47373  -0.44882  -0.43344  -0.42897  -0.40169
 Alpha  occ. eigenvalues --   -0.39677  -0.38280  -0.36629  -0.35838  -0.34850
 Alpha  occ. eigenvalues --   -0.33873  -0.30621  -0.27163  -0.23926
 Alpha virt. eigenvalues --   -0.02103   0.08287   0.09287   0.10517   0.11755
 Alpha virt. eigenvalues --    0.12620   0.14338   0.14587   0.15916   0.16452
 Alpha virt. eigenvalues --    0.17078   0.17790   0.18899   0.19992   0.21347

 Mulliken charges:
               1
     1  C   -0.399687
     2  C   -0.093463
     3  C   -0.309443
     4  C    0.425020
     5  C   -0.257023
     6  O   -0.271934
     7  C   -0.403797
     8  C    0.403239
     9  O   -0.319471
    10  H    0.137016
    11  H    0.141636
    12  H    0.118841
    13  H    0.096560
    14  H    0.107159
    15  H    0.116131
    16  H    0.114958
    17  H    0.113523
    18  H    0.135747
    19  H    0.144986
 Sum of Mulliken charges =   0.00000

 Dipole moment (field-independent basis, Debye):
    X=             -2.0412    Y=              0.7344    Z=              2.0824  Tot=              3.0071
 Quadrupole moment (field-independent basis, Debye-Ang):
   XX=            -57.2887   YY=            -53.0243   ZZ=            -53.3626
   XY=              6.4924   XZ=             -1.7479   YZ=              0.4461

  Exact polarizability:  88.672   1.149  74.754  -1.710   1.928  61.891
 Approx polarizability: 121.734  -4.464 106.635  -2.214   1.117  98.862

                      1                      2                      3
                      A                      A                      A
 Frequencies --     57.0550                86.5913               220.9629
 Red. masses --      3.6148                 3.7299                 2.0805
 Frc consts  --      0.0069                 0.0165                 0.0598
 IR Inten    --      4.3220                 1.9804                 1.7142

                      4                      5                      6
                      A                      A                      A
 Frequencies --    244.6870               278.8801               323.7752
 Red. masses --      1.2481                 2.7595                 3.4748
 Frc consts  --      0.0440                 0.1264                 0.2146
 IR Inten    --      1.3104                 0.4806                 4.2538

                      7                      8                      9
                      A                      A                      A
 Frequencies --    358.7502               388.2304               483.5959
 Red. masses --      2.2208                 2.1743                 3.6459
 Frc consts  --      0.1684                 0.1931                 0.5024
 IR Inten    --      2.7043                 4.4161                 4.0921

                     10                     11                     12
                      A                      A                      A
 Frequencies --    514.7234               558.0114               641.7416
 Red. masses --      4.3650                 2.6531                 4.0949
 Frc consts  --      0.6814                 0.4867                 0.9936
 IR Inten    --      4.4113                 3.1098                 2.4843

                     13                     14                     15
                      A                      A                      A
 Frequencies --    751.9201               762.5407               829.1649
 Red. masses --      3.4018                 3.8937                 2.8087
 Frc consts  --      1.1332                 1.3339                 1.1377
 IR Inten    --      7.2646                 9.4039                 9.8691

                     16                     17                     18
                      A                      A                      A
 Frequencies --    852.1944               901.0372               917.6749
 Red. masses --      2.5391                 1.9558                 1.3834
 Frc consts  --      1.0864                 0.9355                 0.6864
 IR Inten    --      4.4684                 8.9117                 2.4222

                     19                     20                     21
                      A                      A                      A
 Frequencies --    949.0523               982.8040              1021.0340
 Red. masses --      1.9245                 3.2051                 1.9471
 Frc consts  --      1.0213                 1.8240                 1.1959
 IR Inten    --      0.7486                23.3186                22.5755

                     22                     23                     24
                      A                      A                      A
 Frequencies --   1039.4081              1101.6259              1124.8322
 Red. masses --      1.4774                 1.8670                 1.2946
 Frc consts  --      0.9404                 1.3350                 0.9651
 IR Inten    --      3.9692                28.7234                 4.4864

                     25                     26                     27
                      A                      A                      A
 Frequencies --   1136.6807              1166.8442              1181.1467
 Red. masses --      1.8208                 1.6597                 1.6679
 Frc consts  --      1.3861                 1.3314                 1.3710
 IR Inten    --     22.6426                18.8081                 0.3408

                     28                     29                     30
                      A                      A                      A
 Frequencies --   1213.4695              1241.1757              1258.7118
 Red. masses --      1.5301                 1.5173                 1.9160
 Frc consts  --      1.3275                 1.3772                 1.7885
 IR Inten    --      0.1990                 3.7595                14.4865

                     31                     32                     33
                      A                      A                      A
 Frequencies --   1272.5399              1314.4861              1335.1778
 Red. masses --      1.8932                 1.6115                 1.4366
 Frc consts  --      1.8063                 1.6406                 1.5089
 IR Inten    --      9.0712                 2.3625                 6.7970

                     34                     35                     36
                      A                      A                      A
 Frequencies --   1403.4080              1421.6089              1442.8658
 Red. masses --      1.2093                 1.3002                 1.7214
 Frc consts  --      1.4033                 1.5481                 2.1115
 IR Inten    --      4.1033                14.9726                11.9870

                     37                     38                     39
                      A                      A                      A
 Frequencies --   1477.6255              1498.0362              1501.5597
 Red. masses --      1.0989                 1.0457                 1.0518
 Frc consts  --      1.4137                 1.3826                 1.3972
 IR Inten    --      3.2386                 6.2823                 1.9349

                     40                     41                     42
                      A                      A                      A
 Frequencies --   1534.4886              1847.2334              3034.9651
 Red. masses --      1.5204                12.5994                 1.0666
 Frc consts  --      2.1093                25.3306                 5.7886
 IR Inten    --      5.0091               199.3350                 9.0637

                     43                     44                     45
                      A                      A                      A
 Frequencies --   3038.1461              3039.8158              3066.5289
 Red. masses --      1.0597                 1.0413                 1.0841
 Frc consts  --      5.7630                 5.6692                 6.0064
 IR Inten    --     22.9640                 9.8827                15.2505

                     46                     47                     48
                      A                      A                      A
 Frequencies --   3076.7076              3105.3815              3111.3956
 Red. masses --      1.0508                 1.0992                 1.1020
 Frc consts  --      5.8606                 6.2451                 6.2858
 IR Inten    --     29.2512                12.4593                18.8830

                     49                     50                     51
                      A                      A                      A
 Frequencies --   3119.6371              3124.9483              3161.1313
 Red. masses --      1.0946                 1.1025                 1.1191
 Frc consts  --      6.2765                 6.3430                 6.5888
 IR Inten    --      2.2661                16.5470                21.3616

 - Thermochemistry -
 -------------------
 Temperature   298.150 Kelvin.  Pressure   1.00000 Atm.
 Atom     1 has atomic number  6 and mass  12.00000

 Molecular mass:   126.06808 amu.
 Principal axes and moments of inertia in atomic units:
                           1         2         3
     Eigenvalues --   648.857431315.788061610.59110
           X            0.99798   0.06123  -0.01717
           Y           -0.06125   0.99812  -0.00066
           Z            0.01710   0.00171   0.99985
 This molecule is an asymmetric top.
 Rotational symmetry number  1.
 Warning -- assumption of classical behavior for rotation
           may cause significant error
 Rotational temperatures (Kelvin)      0.13349     0.06583     0.05378
 Rotational constants (GHZ):           2.78141     1.37160     1.12055
 Zero-point vibrational energy     415798.1 (Joules/Mol)
                                   99.37812 (Kcal/Mol)
 Warning -- explicit consideration of  11 degrees of freedom as
           vibrations may cause significant error
 Vibrational temperatures:     82.09   124.59   317.92   352.05   401.25
          (Kelvin)            465.84   516.16   558.58   695.79   740.57
                              802.85   923.32  1081.84  1097.12  1192.98
                             1226.12  1296.39  1320.33  1365.47  1414.03
                             1469.04  1495.47  1584.99  1618.38  1635.43
                             1678.83  1699.40  1745.91  1785.77  1811.00
                             1830.90  1891.25  1921.02  2019.19  2045.38
                             2075.96  2125.97  2155.34  2160.41  2207.78
                             2657.75  4366.63  4371.21  4373.61  4412.05
                             4426.69  4467.95  4476.60  4488.46  4496.10
                             4548.16

 Zero-point correction=                           0.158369 (Hartree/Particle)
 Thermal correction to Energy=                    0.166885
 Thermal correction to Enthalpy=                  0.167829
 Thermal correction to Gibbs Free Energy=         0.124890
 Sum of electronic and zero-point Energies=           -423.043553
 Sum of electronic and thermal Energies=              -423.035037
 Sum of electronic and thermal Enthalpies=            -423.034093
 Sum of electronic and thermal Free Energies=         -423.077032

                     E (Thermal)             CV                S
                      KCal/Mol        Cal/Mol-Kelvin    Cal/Mol-Kelvin
 Total                  104.722             32.386             90.373
 Electronic               0.000              0.000              0.000
 Translational            0.889              2.981             40.409
 Rotational               0.889              2.981             28.710
 Vibrational            102.944             26.424             21.254
 Vibration     1          0.596              1.975              4.557
 Vibration     2          0.601              1.959              3.736
 Vibration     3          0.648              1.809              1.951
 Vibration     4          0.660              1.772              1.769
 Vibration     5          0.679              1.713              1.541
 Vibration     6          0.708              1.628              1.291
 Vibration     7          0.734              1.557              1.128
 Vibration     8          0.756              1.495              1.007
 Vibration     9          0.840              1.286              0.700
 Vibration    10          0.870              1.217              0.622
 Vibration    11          0.914              1.122              0.528

 Optimization completed.
    -- Stationary point found.
 Normal termination of Gaussian 09 at Tue Jan 28 03:33:29 2020.
