 Gaussian 09, Revision D.01,
 Gaussian 09:  ES64L-G09RevD.01 24-Apr-2013

 -----------------------------
 # b3lyp 6-31G(2df,p) opt Freq
 -----------------------------

 -----
 titel
 -----
 Symbolic Z-matrix:
 Charge =  0 Multiplicity = 1

 SCF Done:  E(RB3LYP) =  -423.158878899     A.U. after   14 cycles
 Optimization completed.
    -- Stationary point found.
 Normal termination of Gaussian 09 at Tue Jan 28 00:05:07 2020.

 ----------------------------------------------------------------------
 #N Geom=AllCheck Guess=TCheck SCRF=Check GenChk RB3LYP/6-31G(2df,p) Fr
 eq
 ----------------------------------------------------------------------

 Structure from the checkpoint file:  "/scratch/puck/g09_e6dda0b3-ee7b-4c3a-a8b8-a644ddb47a8f/Gau-84035.chk"
 -----
 titel
 -----
 Charge =  0 Multiplicity = 1

                         Standard orientation:
 ---------------------------------------------------------------------
 Center     Atomic      Atomic             Coordinates (Angstroms)
 Number     Number       Type             X           Y           Z
 ---------------------------------------------------------------------
      1          8           0       -3.012211   -0.170729   -0.200547
      2          6           0       -1.745295    0.011122    0.357006
      3          6           0       -0.674122    0.775551   -0.403545
      4          6           0        0.387290    1.564925    0.348958
      5          6           0        1.804761    1.218613   -0.063381
      6          6           0        2.303564   -0.005691   -0.232434
      7          6           0        1.619641   -1.334946   -0.044284
      8          8           0        0.329138   -1.294447    0.544970
      9          6           0       -0.630853   -0.733380   -0.293662
     10          1           0       -3.486516    0.664893   -0.135346
     11          1           0       -1.706075    0.074726    1.445176
     12          1           0       -0.968141    1.165167   -1.374181
     13          1           0        0.217419    2.636608    0.199629
     14          1           0        0.275105    1.393507    1.426680
     15          1           0        2.474861    2.060674   -0.222017
     16          1           0        3.344691   -0.103505   -0.539143
     17          1           0        1.577770   -1.865976   -1.012504
     18          1           0        2.227333   -1.960552    0.621735
     19          1           0       -0.881779   -1.321300   -1.177357
 ---------------------------------------------------------------------

 SCF Done:  E(RB3LYP) =  -423.158878899     A.U. after    1 cycles

 The electronic state is 1-A.
 Alpha  occ. eigenvalues --  -19.14383 -19.14290 -10.23255 -10.23112 -10.22658
 Alpha  occ. eigenvalues --  -10.18864 -10.18567 -10.18154 -10.18030  -1.04282
 Alpha  occ. eigenvalues --   -1.02492  -0.84535  -0.79425  -0.71358  -0.67288
 Alpha  occ. eigenvalues --   -0.59630  -0.56486  -0.55249  -0.51495  -0.49039
 Alpha  occ. eigenvalues --   -0.47961  -0.44983  -0.43206  -0.42233  -0.40603
 Alpha  occ. eigenvalues --   -0.38820  -0.37132  -0.36681  -0.33608  -0.31880
 Alpha  occ. eigenvalues --   -0.28580  -0.26607  -0.24434  -0.23139
 Alpha virt. eigenvalues --    0.02035   0.07773   0.09046   0.11362   0.12273
 Alpha virt. eigenvalues --    0.13481   0.14296   0.15391   0.16459   0.16627
 Alpha virt. eigenvalues --    0.17863   0.19225   0.20254   0.22678   0.23912

 Mulliken charges:
               1
     1  O   -0.428089
     2  C    0.028311
     3  C   -0.107043
     4  C   -0.284713
     5  C   -0.068785
     6  C   -0.032088
     7  C   -0.128738
     8  O   -0.247844
     9  C    0.095716
    10  H    0.286424
    11  H    0.095811
    12  H    0.089730
    13  H    0.099522
    14  H    0.120440
    15  H    0.086146
    16  H    0.086019
    17  H    0.099417
    18  H    0.117113
    19  H    0.092651
 Sum of Mulliken charges =   0.00000

 Dipole moment (field-independent basis, Debye):
    X=              0.5696    Y=              1.7619    Z=             -0.4906  Tot=              1.9156
 Quadrupole moment (field-independent basis, Debye-Ang):
   XX=            -50.4034   YY=            -51.6009   ZZ=            -53.5939
   XY=             -6.2878   XZ=             -1.3401   YZ=              1.4510

  Exact polarizability:  90.651  -5.713  82.055  -2.164   2.600  58.082
 Approx polarizability: 116.905 -11.089 126.971  -3.716   3.354  92.012

                      1                      2                      3
                      A                      A                      A
 Frequencies --    112.0002               190.4938               226.9744
 Red. masses --      2.6324                 2.4248                 3.1866
 Frc consts  --      0.0195                 0.0518                 0.0967
 IR Inten    --      0.3236                 4.7667                16.5571

                      4                      5                      6
                      A                      A                      A
 Frequencies --    266.2537               317.0800               327.8301
 Red. masses --      2.9916                 2.6072                 1.5657
 Frc consts  --      0.1250                 0.1544                 0.0991
 IR Inten    --      2.2893                17.0762                68.9455

                      7                      8                      9
                      A                      A                      A
 Frequencies --    363.1603               416.6549               434.1193
 Red. masses --      3.3480                 3.3459                 3.1645
 Frc consts  --      0.2602                 0.3422                 0.3514
 IR Inten    --      1.3390                11.7359                 1.7420

                     10                     11                     12
                      A                      A                      A
 Frequencies --    461.3270               646.6780               714.5423
 Red. masses --      3.9630                 1.3652                 2.7421
 Frc consts  --      0.4969                 0.3364                 0.8249
 IR Inten    --      9.7401                15.2405                 7.9157

                     13                     14                     15
                      A                      A                      A
 Frequencies --    769.9403               814.8842               861.0962
 Red. masses --      2.8227                 3.5636                 3.2467
 Frc consts  --      0.9859                 1.3942                 1.4184
 IR Inten    --      8.9657                 0.3620                 2.1722

                     16                     17                     18
                      A                      A                      A
 Frequencies --    884.6619               937.8949               968.3922
 Red. masses --      2.7372                 2.8795                 2.0933
 Frc consts  --      1.2621                 1.4923                 1.1566
 IR Inten    --     12.6019                 5.9529                 3.7527

                     19                     20                     21
                      A                      A                      A
 Frequencies --    975.5249               999.0055              1042.7266
 Red. masses --      2.2048                 1.1783                 1.8264
 Frc consts  --      1.2362                 0.6928                 1.1700
 IR Inten    --     10.0508                 1.6563                 2.8112

                     22                     23                     24
                      A                      A                      A
 Frequencies --   1044.6409              1080.2383              1102.4290
 Red. masses --      1.6897                 1.8570                 1.8845
 Frc consts  --      1.0864                 1.2767                 1.3495
 IR Inten    --     17.8330                 8.0677                 9.1143

                     25                     26                     27
                      A                      A                      A
 Frequencies --   1108.4326              1154.8594              1170.9956
 Red. masses --      1.9493                 2.3924                 3.2339
 Frc consts  --      1.4111                 1.8800                 2.6127
 IR Inten    --      6.7310                97.3158               104.2054

                     28                     29                     30
                      A                      A                      A
 Frequencies --   1217.9513              1232.5619              1253.6355
 Red. masses --      1.4889                 1.3247                 1.1168
 Frc consts  --      1.3013                 1.1857                 1.0341
 IR Inten    --     19.8065                12.9798                 0.1358

                     31                     32                     33
                      A                      A                      A
 Frequencies --   1289.5389              1302.3459              1331.5991
 Red. masses --      1.1942                 1.2728                 1.2648
 Frc consts  --      1.1701                 1.2719                 1.3213
 IR Inten    --     82.6043                 9.1260                 0.8756

                     34                     35                     36
                      A                      A                      A
 Frequencies --   1348.2146              1365.7536              1409.0624
 Red. masses --      1.2988                 1.5735                 1.3436
 Frc consts  --      1.3910                 1.7293                 1.5718
 IR Inten    --      5.6429                 5.6376                10.3488

                     37                     38                     39
                      A                      A                      A
 Frequencies --   1416.7222              1475.6490              1477.3064
 Red. masses --      1.4771                 1.2961                 1.0928
 Frc consts  --      1.7468                 1.6628                 1.4051
 IR Inten    --      4.7467                 3.5409                 0.9074

                     40                     41                     42
                      A                      A                      A
 Frequencies --   1493.1069              1733.4474              2944.3807
 Red. masses --      1.8761                 6.9137                 1.0718
 Frc consts  --      2.4643                12.2400                 5.4745
 IR Inten    --      9.4940                 1.1063                57.0587

                     43                     44                     45
                      A                      A                      A
 Frequencies --   3026.3037              3041.3244              3063.8790
 Red. masses --      1.0627                 1.0878                 1.0984
 Frc consts  --      5.7342                 5.9280                 6.0754
 IR Inten    --     23.5110                32.6940                19.9119

                     46                     47                     48
                      A                      A                      A
 Frequencies --   3095.4901              3099.6709              3125.3956
 Red. masses --      1.0897                 1.0852                 1.0835
 Frc consts  --      6.1521                 6.1431                 6.2358
 IR Inten    --      7.7664                39.0454                10.3555

                     49                     50                     51
                      A                      A                      A
 Frequencies --   3150.6232              3154.9753              3803.9265
 Red. masses --      1.0891                 1.0937                 1.0661
 Frc consts  --      6.3695                 6.4140                 9.0892
 IR Inten    --     22.7326                34.9417                21.6521

 - Thermochemistry -
 -------------------
 Temperature   298.150 Kelvin.  Pressure   1.00000 Atm.
 Atom     1 has atomic number  8 and mass  15.99491

 Molecular mass:   126.06808 amu.
 Principal axes and moments of inertia in atomic units:
                           1         2         3
     Eigenvalues --   553.470731403.323261804.70976
           X            0.99985  -0.01626  -0.00528
           Y            0.01638   0.99957   0.02433
           Z            0.00488  -0.02441   0.99969
 This molecule is an asymmetric top.
 Rotational symmetry number  1.
 Warning -- assumption of classical behavior for rotation
           may cause significant error
 Rotational temperatures (Kelvin)      0.15649     0.06172     0.04799
 Rotational constants (GHZ):           3.26077     1.28605     1.00002
 Zero-point vibrational energy     420162.6 (Joules/Mol)
                                  100.42127 (Kcal/Mol)
 Warning -- explicit consideration of  10 degrees of freedom as
           vibrations may cause significant error
 Vibrational temperatures:    161.14   274.08   326.57   383.08   456.21
          (Kelvin)            471.67   522.51   599.47   624.60   663.75
                              930.42  1028.07  1107.77  1172.44  1238.92
                             1272.83  1349.42  1393.30  1403.56  1437.34
                             1500.25  1503.00  1554.22  1586.15  1594.79
                             1661.58  1684.80  1752.36  1773.38  1803.70
                             1855.36  1873.78  1915.87  1939.78  1965.01
                             2027.32  2038.34  2123.13  2125.51  2148.25
                             2494.04  4236.30  4354.17  4375.78  4408.23
                             4453.71  4459.73  4496.74  4533.04  4539.30
                             5472.99

 Zero-point correction=                           0.160031 (Hartree/Particle)
 Thermal correction to Energy=                    0.168087
 Thermal correction to Enthalpy=                  0.169031
 Thermal correction to Gibbs Free Energy=         0.127736
 Sum of electronic and zero-point Energies=           -422.998847
 Sum of electronic and thermal Energies=              -422.990792
 Sum of electronic and thermal Enthalpies=            -422.989848
 Sum of electronic and thermal Free Energies=         -423.031142

                     E (Thermal)             CV                S
                      KCal/Mol        Cal/Mol-Kelvin    Cal/Mol-Kelvin
 Total                  105.476             31.728             86.912
 Electronic               0.000              0.000              0.000
 Translational            0.889              2.981             40.409
 Rotational               0.889              2.981             28.729
 Vibrational            103.699             25.767             17.774
 Vibration     1          0.607              1.940              3.234
 Vibration     2          0.634              1.853              2.223
 Vibration     3          0.651              1.800              1.903
 Vibration     4          0.672              1.735              1.620
 Vibration     5          0.704              1.641              1.325
 Vibration     6          0.711              1.620              1.271
 Vibration     7          0.737              1.548              1.109
 Vibration     8          0.780              1.434              0.903
 Vibration     9          0.795              1.396              0.845
 Vibration    10          0.819              1.336              0.762

 Optimization completed.
    -- Stationary point found.
 Normal termination of Gaussian 09 at Tue Jan 28 00:51:16 2020.
