 Gaussian 09, Revision D.01,
 Gaussian 09:  ES64L-G09RevD.01 24-Apr-2013

 -----------------------------
 # b3lyp 6-31G(2df,p) opt Freq
 -----------------------------

 -----
 titel
 -----
 Symbolic Z-matrix:
 Charge =  0 Multiplicity = 1

 SCF Done:  E(RB3LYP) =  -423.168502442     A.U. after   13 cycles
 Optimization completed.
    -- Stationary point found.
 Normal termination of Gaussian 09 at Mon Jan 27 17:17:50 2020.

 ----------------------------------------------------------------------
 #N Geom=AllCheck Guess=TCheck SCRF=Check GenChk RB3LYP/6-31G(2df,p) Fr
 eq
 ----------------------------------------------------------------------

 Structure from the checkpoint file:  "/scratch/puck/g09_81bcaf96-be7d-418b-9f01-780c9e7929a4/Gau-86500.chk"
 -----
 titel
 -----
 Charge =  0 Multiplicity = 1

                         Standard orientation:
 ---------------------------------------------------------------------
 Center     Atomic      Atomic             Coordinates (Angstroms)
 Number     Number       Type             X           Y           Z
 ---------------------------------------------------------------------
      1          6           0        1.471542   -1.519552   -0.631255
      2          6           0        0.516987   -0.687974    0.189062
      3          6           0        1.004453    0.145761    1.357779
      4          6           0        0.488520    0.812001    0.089813
      5          8           0        1.443875    1.390274   -0.766303
      6          6           0       -0.855307    1.449535    0.040760
      7          6           0       -1.939036    0.712128   -0.181876
      8          6           0       -1.822987   -0.786383   -0.310649
      9          8           0       -0.724065   -1.318679    0.412905
     10          1           0        1.678345   -2.465649   -0.121230
     11          1           0        1.037419   -1.749099   -1.610335
     12          1           0        2.409921   -0.987056   -0.794377
     13          1           0        0.376041    0.163780    2.240594
     14          1           0        2.075143    0.195764    1.530139
     15          1           0        1.789134    2.177894   -0.331712
     16          1           0       -0.905463    2.530521    0.147240
     17          1           0       -2.926128    1.154728   -0.278333
     18          1           0       -2.709546   -1.279573    0.100957
     19          1           0       -1.768378   -1.067160   -1.377564
 ---------------------------------------------------------------------

 SCF Done:  E(RB3LYP) =  -423.168502442     A.U. after    1 cycles

 The electronic state is 1-A.
 Alpha  occ. eigenvalues --  -19.14547 -19.13750 -10.23928 -10.23481 -10.23151
 Alpha  occ. eigenvalues --  -10.18559 -10.18444 -10.17901 -10.16942  -1.04090
 Alpha  occ. eigenvalues --   -1.02423  -0.84197  -0.79162  -0.70691  -0.68269
 Alpha  occ. eigenvalues --   -0.61598  -0.58173  -0.52719  -0.50445  -0.49165
 Alpha  occ. eigenvalues --   -0.47453  -0.44025  -0.42860  -0.40902  -0.40185
 Alpha  occ. eigenvalues --   -0.38607  -0.38294  -0.36731  -0.34113  -0.33686
 Alpha  occ. eigenvalues --   -0.28310  -0.26856  -0.24367  -0.23306
 Alpha virt. eigenvalues --    0.00985   0.08237   0.10046   0.11198   0.12000
 Alpha virt. eigenvalues --    0.13974   0.15033   0.15588   0.16789   0.17358
 Alpha virt. eigenvalues --    0.18385   0.19521   0.19977   0.22258   0.23202

 Mulliken charges:
               1
     1  C   -0.445901
     2  C    0.365920
     3  C   -0.392350
     4  C    0.290410
     5  O   -0.466468
     6  C   -0.118322
     7  C   -0.080512
     8  C   -0.135807
     9  O   -0.298250
    10  H    0.120523
    11  H    0.118016
    12  H    0.129073
    13  H    0.119060
    14  H    0.107779
    15  H    0.283731
    16  H    0.086633
    17  H    0.096958
    18  H    0.114949
    19  H    0.104559
 Sum of Mulliken charges =   0.00000

 Dipole moment (field-independent basis, Debye):
    X=             -0.1750    Y=              1.4566    Z=              0.3516  Tot=              1.5086
 Quadrupole moment (field-independent basis, Debye-Ang):
   XX=            -48.2289   YY=            -50.8523   ZZ=            -55.2992
   XY=              1.2767   XZ=              2.8386   YZ=              3.0175

  Exact polarizability:  89.613   3.022  78.386   5.206   3.624  62.660
 Approx polarizability: 127.477  13.282 114.695   8.505   3.598  96.579

                      1                      2                      3
                      A                      A                      A
 Frequencies --    140.2721               146.1969               184.9325
 Red. masses --      3.0547                 2.4804                 1.0900
 Frc consts  --      0.0354                 0.0312                 0.0220
 IR Inten    --      2.8602                 1.6721                 4.1974

                      4                      5                      6
                      A                      A                      A
 Frequencies --    233.5083               257.8392               287.3336
 Red. masses --      1.8083                 1.4874                 2.7496
 Frc consts  --      0.0581                 0.0583                 0.1337
 IR Inten    --     46.2539                32.1816                11.2626

                      7                      8                      9
                      A                      A                      A
 Frequencies --    382.8183               423.7538               445.2241
 Red. masses --      3.2073                 3.2470                 4.0008
 Frc consts  --      0.2769                 0.3435                 0.4673
 IR Inten    --      2.8276                 7.4258                 1.0457

                     10                     11                     12
                      A                      A                      A
 Frequencies --    477.7491               521.0005               532.2530
 Red. masses --      2.3304                 4.0591                 3.1611
 Frc consts  --      0.3134                 0.6492                 0.5276
 IR Inten    --      1.9448                 1.0844                 6.3411

                     13                     14                     15
                      A                      A                      A
 Frequencies --    683.3469               699.3127               735.1978
 Red. masses --      4.1886                 2.2826                 2.2501
 Frc consts  --      1.1524                 0.6577                 0.7166
 IR Inten    --      1.1688                23.6706                 9.4733

                     16                     17                     18
                      A                      A                      A
 Frequencies --    837.5035               908.4447               918.2984
 Red. masses --      2.4437                 2.2435                 1.7371
 Frc consts  --      1.0099                 1.0909                 0.8631
 IR Inten    --      3.6579                 4.7048                 8.3258

                     19                     20                     21
                      A                      A                      A
 Frequencies --    928.9623               944.2093               954.4644
 Red. masses --      1.6832                 2.8043                 1.9432
 Frc consts  --      0.8558                 1.4730                 1.0430
 IR Inten    --      0.9181                13.6554                 5.6382

                     22                     23                     24
                      A                      A                      A
 Frequencies --    981.8073              1028.9944              1045.6281
 Red. masses --      1.2747                 1.3275                 1.8838
 Frc consts  --      0.7240                 0.8282                 1.2135
 IR Inten    --      1.5344                 6.1127                 3.7292

                     25                     26                     27
                      A                      A                      A
 Frequencies --   1104.7365              1126.4398              1147.0808
 Red. masses --      2.4708                 2.0670                 4.1781
 Frc consts  --      1.7766                 1.5453                 3.2390
 IR Inten    --     52.8412                36.6541                93.9739

                     28                     29                     30
                      A                      A                      A
 Frequencies --   1179.0071              1219.5074              1253.3448
 Red. masses --      1.5860                 2.1101                 2.8531
 Frc consts  --      1.2989                 1.8489                 2.6406
 IR Inten    --     45.6131                56.8650                26.7371

                     31                     32                     33
                      A                      A                      A
 Frequencies --   1272.5053              1298.4150              1392.0708
 Red. masses --      1.1383                 1.5123                 1.3901
 Frc consts  --      1.0860                 1.5021                 1.5872
 IR Inten    --      3.1996                31.2701                 3.7193

                     34                     35                     36
                      A                      A                      A
 Frequencies --   1398.6046              1405.5715              1421.6251
 Red. masses --      1.3810                 1.4833                 1.7073
 Frc consts  --      1.5916                 1.7266                 2.0329
 IR Inten    --      4.8459                 3.4277                 6.0536

                     37                     38                     39
                      A                      A                      A
 Frequencies --   1471.3025              1483.1711              1492.7503
 Red. masses --      1.5387                 1.0546                 1.0840
 Frc consts  --      1.9624                 1.3669                 1.4232
 IR Inten    --      8.7834                 2.4220                 0.6984

                     40                     41                     42
                      A                      A                      A
 Frequencies --   1500.4732              1717.0590              2947.6232
 Red. masses --      1.2424                 7.0594                 1.0724
 Frc consts  --      1.6481                12.2627                 5.4895
 IR Inten    --      4.2214                 1.2698                54.1811

                     43                     44                     45
                      A                      A                      A
 Frequencies --   3039.2402              3068.9197              3100.1509
 Red. masses --      1.0372                 1.0881                 1.1011
 Frc consts  --      5.6446                 6.0380                 6.2349
 IR Inten    --     25.7700                31.3654                21.3189

                     46                     47                     48
                      A                      A                      A
 Frequencies --   3126.5975              3140.7240              3149.0472
 Red. masses --      1.0544                 1.0982                 1.0849
 Frc consts  --      6.0730                 6.3825                 6.3384
 IR Inten    --      7.2561                11.2123                12.1163

                     49                     50                     51
                      A                      A                      A
 Frequencies --   3178.2511              3228.4545              3796.1405
 Red. masses --      1.0976                 1.1177                 1.0663
 Frc consts  --      6.5324                 6.8638                 9.0536
 IR Inten    --     24.2545                 4.6729                22.8958

 - Thermochemistry -
 -------------------
 Temperature   298.150 Kelvin.  Pressure   1.00000 Atm.
 Atom     1 has atomic number  6 and mass  12.00000

 Molecular mass:   126.06808 amu.
 Principal axes and moments of inertia in atomic units:
                           1         2         3
     Eigenvalues --   779.11313 968.511311364.33519
           X            0.99651  -0.08238   0.01376
           Y            0.08166   0.99559   0.04621
           Z           -0.01751  -0.04492   0.99884
 This molecule is an asymmetric top.
 Rotational symmetry number  1.
 Warning -- assumption of classical behavior for rotation
           may cause significant error
 Rotational temperatures (Kelvin)      0.11117     0.08943     0.06348
 Rotational constants (GHZ):           2.31640     1.86342     1.32280
 Zero-point vibrational energy     414852.2 (Joules/Mol)
                                   99.15204 (Kcal/Mol)
 Warning -- explicit consideration of  12 degrees of freedom as
           vibrations may cause significant error
 Vibrational temperatures:    201.82   210.34   266.08   335.97   370.97
          (Kelvin)            413.41   550.79   609.69   640.58   687.37
                              749.60   765.79   983.18  1006.15  1057.78
                             1204.98  1307.05  1321.22  1336.57  1358.50
                             1373.26  1412.60  1480.49  1504.42  1589.47
                             1620.69  1650.39  1696.33  1754.60  1803.28
                             1830.85  1868.13  2002.88  2012.28  2022.30
                             2045.40  2116.87  2133.95  2147.73  2158.84
                             2470.46  4240.97  4372.78  4415.49  4460.42
                             4498.47  4518.80  4530.77  4572.79  4645.02
                             5461.79

 Zero-point correction=                           0.158009 (Hartree/Particle)
 Thermal correction to Energy=                    0.166626
 Thermal correction to Enthalpy=                  0.167570
 Thermal correction to Gibbs Free Energy=         0.125426
 Sum of electronic and zero-point Energies=           -423.010494
 Sum of electronic and thermal Energies=              -423.001877
 Sum of electronic and thermal Enthalpies=            -423.000933
 Sum of electronic and thermal Free Energies=         -423.043077

                     E (Thermal)             CV                S
                      KCal/Mol        Cal/Mol-Kelvin    Cal/Mol-Kelvin
 Total                  104.559             33.713             88.700
 Electronic               0.000              0.000              0.000
 Translational            0.889              2.981             40.409
 Rotational               0.889              2.981             28.423
 Vibrational            102.782             27.751             19.868
 Vibration     1          0.615              1.913              2.800
 Vibration     2          0.617              1.907              2.721
 Vibration     3          0.631              1.860              2.278
 Vibration     4          0.654              1.790              1.852
 Vibration     5          0.667              1.750              1.676
 Vibration     6          0.685              1.697              1.490
 Vibration     7          0.752              1.507              1.028
 Vibration     8          0.786              1.419              0.879
 Vibration     9          0.805              1.371              0.810
 Vibration    10          0.834              1.299              0.716
 Vibration    11          0.876              1.203              0.608
 Vibration    12          0.887              1.179              0.582

 Optimization completed.
    -- Stationary point found.
 Normal termination of Gaussian 09 at Mon Jan 27 18:02:53 2020.
