 Gaussian 09, Revision D.01,
 Gaussian 09:  ES64L-G09RevD.01 24-Apr-2013

 -----------------------------
 # b3lyp 6-31G(2df,p) opt Freq
 -----------------------------

 -----
 titel
 -----
 Symbolic Z-matrix:
 Charge =  0 Multiplicity = 1

 SCF Done:  E(RB3LYP) =  -423.197837810     A.U. after   13 cycles
 Optimization completed.
    -- Stationary point found.
 Normal termination of Gaussian 09 at Mon Jan 27 22:04:32 2020.

 ----------------------------------------------------------------------
 #N Geom=AllCheck Guess=TCheck SCRF=Check GenChk RB3LYP/6-31G(2df,p) Fr
 eq
 ----------------------------------------------------------------------

 Structure from the checkpoint file:  "/scratch/puck/g09_fc280512-4678-4d31-b673-31c560bce04a/Gau-14906.chk"
 -----
 titel
 -----
 Charge =  0 Multiplicity = 1

                         Standard orientation:
 ---------------------------------------------------------------------
 Center     Atomic      Atomic             Coordinates (Angstroms)
 Number     Number       Type             X           Y           Z
 ---------------------------------------------------------------------
      1          6           0        2.682922    0.063008   -0.000007
      2          6           0        1.196020    0.210889   -0.000099
      3          6           0        0.477623    1.336503   -0.000093
      4          6           0       -1.008140    1.071545    0.000008
      5          6           0       -1.315577    0.192361   -1.231917
      6          8           0       -0.527121   -1.000493   -1.163795
      7          6           0        0.287701   -1.007841   -0.000008
      8          8           0       -0.527042   -1.000451    1.163832
      9          6           0       -1.315432    0.192443    1.232021
     10          1           0        3.180805    1.036688   -0.001800
     11          1           0        3.025845   -0.494156    0.880979
     12          1           0        3.025665   -0.497381   -0.878997
     13          1           0        0.894246    2.338248   -0.000221
     14          1           0       -1.620209    1.975593    0.000010
     15          1           0       -2.375579   -0.094662   -1.243264
     16          1           0       -1.085773    0.722357   -2.164624
     17          1           0        0.818507   -1.960538   -0.000013
     18          1           0       -2.375443   -0.094536    1.243554
     19          1           0       -1.085462    0.722483    2.164664
 ---------------------------------------------------------------------

 SCF Done:  E(RB3LYP) =  -423.197837810     A.U. after    1 cycles

 The electronic state is 1-A.
 Alpha  occ. eigenvalues --  -19.13682 -19.13681 -10.27274 -10.22942 -10.22942
 Alpha  occ. eigenvalues --  -10.19879 -10.18635 -10.18601 -10.17959  -1.06709
 Alpha  occ. eigenvalues --   -0.99371  -0.82084  -0.78802  -0.70354  -0.66890
 Alpha  occ. eigenvalues --   -0.64152  -0.59102  -0.53164  -0.49873  -0.49578
 Alpha  occ. eigenvalues --   -0.46580  -0.43451  -0.43237  -0.41270  -0.40969
 Alpha  occ. eigenvalues --   -0.39830  -0.39056  -0.38282  -0.35048  -0.32496
 Alpha  occ. eigenvalues --   -0.32235  -0.26330  -0.24936  -0.23318
 Alpha virt. eigenvalues --    0.01465   0.09141   0.11179   0.11901   0.13410
 Alpha virt. eigenvalues --    0.13964   0.14988   0.15512   0.16241   0.16319
 Alpha virt. eigenvalues --    0.18144   0.19304   0.19476   0.19637   0.21124

 Mulliken charges:
               1
     1  C   -0.508815
     2  C    0.362645
     3  C   -0.209624
     4  C   -0.127369
     5  C   -0.056595
     6  O   -0.264760
     7  C    0.091142
     8  O   -0.264761
     9  C   -0.056596
    10  H    0.124717
    11  H    0.133682
    12  H    0.133640
    13  H    0.088708
    14  H    0.074445
    15  H    0.100185
    16  H    0.098371
    17  H    0.082433
    18  H    0.100185
    19  H    0.098366
 Sum of Mulliken charges =   0.00000

 Dipole moment (field-independent basis, Debye):
    X=              0.2882    Y=              2.0505    Z=              0.0002  Tot=              2.0706
 Quadrupole moment (field-independent basis, Debye-Ang):
   XX=            -48.4319   YY=            -53.2621   ZZ=            -55.9648
   XY=             -3.1485   XZ=              0.0004   YZ=             -0.0001

  Exact polarizability:  88.475  -6.204  73.896   0.002  -0.001  64.568
 Approx polarizability: 119.297 -14.185 121.176   0.003  -0.002  96.536

                      1                      2                      3
                      A                      A                      A
 Frequencies --    142.5653               186.5257               191.2903
 Red. masses --      2.5328                 1.1308                 2.9033
 Frc consts  --      0.0303                 0.0232                 0.0626
 IR Inten    --      2.3254                 0.2334                 0.4143

                      4                      5                      6
                      A                      A                      A
 Frequencies --    286.2874               333.6802               416.1790
 Red. masses --      2.5947                 2.1022                 3.3195
 Frc consts  --      0.1253                 0.1379                 0.3388
 IR Inten    --      1.8118                 1.3384                 0.0571

                      7                      8                      9
                      A                      A                      A
 Frequencies --    457.8271               497.8251               530.9084
 Red. masses --      5.9787                 4.0296                 3.7060
 Frc consts  --      0.7383                 0.5884                 0.6154
 IR Inten    --      8.0157                 3.1243                 2.9847

                     10                     11                     12
                      A                      A                      A
 Frequencies --    667.4468               676.0165               821.2672
 Red. masses --      3.5684                 8.4703                 1.5201
 Frc consts  --      0.9366                 2.2807                 0.6041
 IR Inten    --      0.0168                 0.4509                 1.3572

                     13                     14                     15
                      A                      A                      A
 Frequencies --    822.5417               840.1437               888.5095
 Red. masses --      6.2315                 2.8839                 2.6386
 Frc consts  --      2.4840                 1.1993                 1.2273
 IR Inten    --      5.6577                 1.9784                31.4052

                     16                     17                     18
                      A                      A                      A
 Frequencies --    917.9879               958.1371               970.1777
 Red. masses --      3.1063                 2.4640                 2.3554
 Frc consts  --      1.5423                 1.3327                 1.3062
 IR Inten    --     32.5966                90.5584                29.9514

                     19                     20                     21
                      A                      A                      A
 Frequencies --    975.9489               988.0456              1066.0145
 Red. masses --      2.0824                 1.9887                 1.9176
 Frc consts  --      1.1686                 1.1439                 1.2839
 IR Inten    --     10.5342                14.1945                49.8252

                     22                     23                     24
                      A                      A                      A
 Frequencies --   1068.6696              1071.1263              1083.9817
 Red. masses --      1.6682                 2.3372                 2.9438
 Frc consts  --      1.1225                 1.5799                 2.0380
 IR Inten    --      2.9309                11.5099                 3.1193

                     25                     26                     27
                      A                      A                      A
 Frequencies --   1134.1072              1196.8340              1218.4309
 Red. masses --      2.7537                 2.0384                 1.1091
 Frc consts  --      2.0868                 1.7203                 0.9701
 IR Inten    --     53.7222                 7.0620                 4.1547

                     28                     29                     30
                      A                      A                      A
 Frequencies --   1233.4212              1281.6399              1303.2756
 Red. masses --      1.3311                 1.6566                 1.3616
 Frc consts  --      1.1931                 1.6033                 1.3626
 IR Inten    --      6.3481                11.3659                 1.0081

                     31                     32                     33
                      A                      A                      A
 Frequencies --   1329.3342              1345.1543              1373.9626
 Red. masses --      1.5672                 1.1582                 1.8665
 Frc consts  --      1.6317                 1.2348                 2.0760
 IR Inten    --      0.2589                 0.1640                 7.4267

                     34                     35                     36
                      A                      A                      A
 Frequencies --   1389.9867              1407.7037              1414.0999
 Red. masses --      1.3015                 1.4095                 1.2742
 Frc consts  --      1.4816                 1.6456                 1.5012
 IR Inten    --      6.2781                 3.3491                 1.2667

                     37                     38                     39
                      A                      A                      A
 Frequencies --   1478.9353              1488.7505              1512.5344
 Red. masses --      1.0440                 1.0619                 1.0834
 Frc consts  --      1.3455                 1.3867                 1.4604
 IR Inten    --      6.5535                 8.2584                 0.2933

                     40                     41                     42
                      A                      A                      A
 Frequencies --   1525.0796              1719.9226              3005.3280
 Red. masses --      1.0916                 6.7955                 1.0561
 Frc consts  --      1.4959                11.8438                 5.6203
 IR Inten    --      0.2601                 0.8313                57.8814

                     43                     44                     45
                      A                      A                      A
 Frequencies --   3007.4581              3017.8261              3045.3833
 Red. masses --      1.0568                 1.0374                 1.1087
 Frc consts  --      5.6317                 5.5666                 6.0582
 IR Inten    --     78.8764                22.7144                35.2868

                     46                     47                     48
                      A                      A                      A
 Frequencies --   3048.7442              3066.4276              3095.9068
 Red. masses --      1.1093                 1.0988                 1.0869
 Frc consts  --      6.0751                 6.0875                 6.1380
 IR Inten    --     48.6387                16.3505                32.4788

                     49                     50                     51
                      A                      A                      A
 Frequencies --   3109.3800              3115.8360              3181.0415
 Red. masses --      1.0992                 1.0909                 1.0938
 Frc consts  --      6.2615                 6.2402                 6.5214
 IR Inten    --     14.7189                31.2541                14.5863

 - Thermochemistry -
 -------------------
 Temperature   298.150 Kelvin.  Pressure   1.00000 Atm.
 Atom     1 has atomic number  6 and mass  12.00000

 Molecular mass:   126.06808 amu.
 Principal axes and moments of inertia in atomic units:
                           1         2         3
     Eigenvalues --   680.404861108.271051118.19508
           X            0.99959  -0.02868   0.00000
           Y            0.02868   0.99959  -0.00002
           Z            0.00000   0.00002   1.00000
 This molecule is an asymmetric top.
 Rotational symmetry number  1.
 Warning -- assumption of classical behavior for rotation
           may cause significant error
 Rotational temperatures (Kelvin)      0.12730     0.07815     0.07746
 Rotational constants (GHZ):           2.65245     1.62843     1.61398
 Zero-point vibrational energy     424109.7 (Joules/Mol)
                                  101.36465 (Kcal/Mol)
 Warning -- explicit consideration of   9 degrees of freedom as
           vibrations may cause significant error
 Vibrational temperatures:    205.12   268.37   275.22   411.90   480.09
          (Kelvin)            598.79   658.71   716.26   763.86   960.31
                              972.64  1181.62  1183.45  1208.78  1278.37
                             1320.78  1378.54  1395.87  1404.17  1421.58
                             1533.76  1537.58  1541.11  1559.61  1631.73
                             1721.98  1753.05  1774.62  1843.99  1875.12
                             1912.61  1935.37  1976.82  1999.88  2025.37
                             2034.57  2127.86  2141.98  2176.20  2194.25
                             2474.58  4323.99  4327.06  4341.97  4381.62
                             4386.46  4411.90  4454.31  4473.70  4482.99
                             4576.80

 Zero-point correction=                           0.161535 (Hartree/Particle)
 Thermal correction to Energy=                    0.168983
 Thermal correction to Enthalpy=                  0.169927
 Thermal correction to Gibbs Free Energy=         0.129942
 Sum of electronic and zero-point Energies=           -423.036303
 Sum of electronic and thermal Energies=              -423.028855
 Sum of electronic and thermal Enthalpies=            -423.027911
 Sum of electronic and thermal Free Energies=         -423.067895

                     E (Thermal)             CV                S
                      KCal/Mol        Cal/Mol-Kelvin    Cal/Mol-Kelvin
 Total                  106.038             29.697             84.155
 Electronic               0.000              0.000              0.000
 Translational            0.889              2.981             40.409
 Rotational               0.889              2.981             28.224
 Vibrational            104.261             23.736             15.522
 Vibration     1          0.616              1.911              2.769
 Vibration     2          0.632              1.858              2.262
 Vibration     3          0.634              1.852              2.215
 Vibration     4          0.684              1.699              1.496
 Vibration     5          0.715              1.608              1.242
 Vibration     6          0.779              1.435              0.905
 Vibration     7          0.816              1.344              0.772
 Vibration     8          0.853              1.255              0.664
 Vibration     9          0.886              1.182              0.585

 Normal termination of Gaussian 09 at Mon Jan 27 22:57:01 2020.
