 Gaussian 09, Revision D.01,
 Gaussian 09:  ES64L-G09RevD.01 24-Apr-2013

 -----------------------------
 # b3lyp 6-31G(2df,p) opt Freq
 -----------------------------

 -----
 titel
 -----
 Symbolic Z-matrix:
 Charge =  0 Multiplicity = 1

 SCF Done:  E(RB3LYP) =  -423.223788717     A.U. after   14 cycles
 Optimization completed.
    -- Stationary point found.
 Normal termination of Gaussian 09 at Mon Jan 27 16:18:13 2020.

 ----------------------------------------------------------------------
 #N Geom=AllCheck Guess=TCheck SCRF=Check GenChk RB3LYP/6-31G(2df,p) Fr
 eq
 ----------------------------------------------------------------------

 Structure from the checkpoint file:  "/scratch/puck/g09_ef4183dd-03f3-4d29-bb04-53fb766c1db3/Gau-11875.chk"
 -----
 titel
 -----
 Charge =  0 Multiplicity = 1

                         Standard orientation:
 ---------------------------------------------------------------------
 Center     Atomic      Atomic             Coordinates (Angstroms)
 Number     Number       Type             X           Y           Z
 ---------------------------------------------------------------------
      1          6           0       -1.252678   -1.095688   -1.183480
      2          6           0       -0.582245   -0.511097    0.066784
      3          6           0       -1.472778   -0.739368    1.305643
      4          6           0        0.836873   -0.990566    0.335538
      5          6           0        1.928168   -0.662020   -0.667868
      6          6           0        1.671067    0.248902    0.493722
      7          8           0        0.873939    1.386269    0.216596
      8          6           0       -0.402178    1.013397   -0.099260
      9          8           0       -1.228670    1.805711   -0.445642
     10          1           0       -0.615300   -1.000303   -2.066830
     11          1           0       -1.471661   -2.157793   -1.036341
     12          1           0       -2.189517   -0.568914   -1.384145
     13          1           0       -1.008454   -0.337833    2.211803
     14          1           0       -2.440819   -0.249894    1.171330
     15          1           0       -1.642139   -1.810728    1.454624
     16          1           0        0.977867   -1.843697    0.988724
     17          1           0        2.821632   -1.275922   -0.638486
     18          1           0        1.657552   -0.302056   -1.655469
     19          1           0        2.391301    0.429939    1.280679
 ---------------------------------------------------------------------

 SCF Done:  E(RB3LYP) =  -423.223788717     A.U. after    1 cycles

 The electronic state is 1-A.
 Alpha  occ. eigenvalues --  -19.18460 -19.12362 -10.30027 -10.25441 -10.21744
 Alpha  occ. eigenvalues --  -10.20743 -10.20299 -10.18849 -10.18339  -1.10392
 Alpha  occ. eigenvalues --   -1.02468  -0.87454  -0.80550  -0.69768  -0.67203
 Alpha  occ. eigenvalues --   -0.63559  -0.59410  -0.55020  -0.52467  -0.47126
 Alpha  occ. eigenvalues --   -0.46360  -0.45365  -0.43304  -0.42148  -0.41197
 Alpha  occ. eigenvalues --   -0.40610  -0.39081  -0.36548  -0.36024  -0.35005
 Alpha  occ. eigenvalues --   -0.33519  -0.29975  -0.27206  -0.26522
 Alpha virt. eigenvalues --    0.01162   0.07929   0.09093   0.10891   0.11493
 Alpha virt. eigenvalues --    0.13422   0.13596   0.14955   0.16054   0.16483
 Alpha virt. eigenvalues --    0.17850   0.18905   0.20034   0.20822   0.21793

 Mulliken charges:
               1
     1  C   -0.417530
     2  C    0.107533
     3  C   -0.429398
     4  C   -0.081761
     5  C   -0.342769
     6  C    0.087612
     7  O   -0.222304
     8  C    0.418600
     9  O   -0.347208
    10  H    0.119071
    11  H    0.114721
    12  H    0.141307
    13  H    0.124002
    14  H    0.141105
    15  H    0.118179
    16  H    0.097939
    17  H    0.124775
    18  H    0.130718
    19  H    0.115408
 Sum of Mulliken charges =   0.00000

 Dipole moment (field-independent basis, Debye):
    X=              1.6652    Y=             -3.5568    Z=              0.9352  Tot=              4.0371
 Quadrupole moment (field-independent basis, Debye-Ang):
   XX=            -51.6961   YY=            -59.3925   ZZ=            -51.3734
   XY=              1.8772   XZ=             -0.2694   YZ=              0.7974

  Exact polarizability:  83.794  -2.403  70.999   0.557  -0.509  67.327
 Approx polarizability: 119.702  -6.208 109.500   3.644  -2.589  99.320

                      1                      2                      3
                      A                      A                      A
 Frequencies --     98.4223               204.8000               213.7224
 Red. masses --      4.9451                 1.8060                 1.7521
 Frc consts  --      0.0282                 0.0446                 0.0472
 IR Inten    --      0.4091                 1.5084                 0.2935

                      4                      5                      6
                      A                      A                      A
 Frequencies --    231.1788               250.6829               296.3019
 Red. masses --      1.9422                 1.1033                 2.8169
 Frc consts  --      0.0612                 0.0409                 0.1457
 IR Inten    --      1.2079                 1.5021                 3.3677

                      7                      8                      9
                      A                      A                      A
 Frequencies --    326.1630               395.2117               476.7180
 Red. masses --      2.5212                 2.8608                 3.0309
 Frc consts  --      0.1580                 0.2633                 0.4058
 IR Inten    --      0.4475                 2.4237                 0.0779

                     10                     11                     12
                      A                      A                      A
 Frequencies --    518.9603               593.8590               700.5276
 Red. masses --      3.5878                 4.3830                 4.6953
 Frc consts  --      0.5693                 0.9107                 1.3576
 IR Inten    --      0.6378                 5.4142                 1.2280

                     13                     14                     15
                      A                      A                      A
 Frequencies --    718.5851               754.9658               790.1691
 Red. masses --      4.4226                 6.2872                 1.9064
 Frc consts  --      1.3455                 2.1114                 0.7013
 IR Inten    --      0.2507                 4.9248                 5.6959

                     16                     17                     18
                      A                      A                      A
 Frequencies --    821.3247               898.7874               948.6975
 Red. masses --      1.4749                 2.6447                 2.2189
 Frc consts  --      0.5862                 1.2588                 1.1766
 IR Inten    --     13.0554                17.8622                 4.2084

                     19                     20                     21
                      A                      A                      A
 Frequencies --    959.0413               986.8141              1022.1134
 Red. masses --      1.5535                 2.5766                 1.6761
 Frc consts  --      0.8419                 1.4783                 1.0317
 IR Inten    --      0.1593                 5.3846                15.0887

                     22                     23                     24
                      A                      A                      A
 Frequencies --   1030.8905              1044.1229              1068.3660
 Red. masses --      1.4420                 1.3475                 1.7671
 Frc consts  --      0.9029                 0.8655                 1.1883
 IR Inten    --      0.8151                12.9676                18.7149

                     25                     26                     27
                      A                      A                      A
 Frequencies --   1087.9563              1118.6262              1148.2136
 Red. masses --      1.6044                 1.9897                 2.5375
 Frc consts  --      1.1189                 1.4669                 1.9711
 IR Inten    --     41.1449                71.3000                77.1955

                     28                     29                     30
                      A                      A                      A
 Frequencies --   1184.7459              1205.0023              1235.6669
 Red. masses --      3.3258                 1.6428                 2.4626
 Frc consts  --      2.7504                 1.4054                 2.2154
 IR Inten    --     16.1912                 7.6693                 6.9535

                     31                     32                     33
                      A                      A                      A
 Frequencies --   1266.8057              1356.7065              1383.0216
 Red. masses --      2.9410                 1.8277                 1.8245
 Frc consts  --      2.7807                 1.9821                 2.0561
 IR Inten    --     49.8253                 7.5419                17.0339

                     34                     35                     36
                      A                      A                      A
 Frequencies --   1395.2449              1419.7059              1473.4962
 Red. masses --      1.2209                 1.2323                 1.2551
 Frc consts  --      1.4003                 1.4634                 1.6056
 IR Inten    --      3.1595                 7.2780                 5.3047

                     37                     38                     39
                      A                      A                      A
 Frequencies --   1483.0633              1487.5384              1501.9002
 Red. masses --      1.0570                 1.0519                 1.0662
 Frc consts  --      1.3698                 1.3714                 1.4169
 IR Inten    --      2.1958                 4.6445                 4.3644

                     40                     41                     42
                      A                      A                      A
 Frequencies --   1508.8222              1875.9486              3035.6255
 Red. masses --      1.0563                12.7158                 1.0345
 Frc consts  --      1.4168                26.3655                 5.6167
 IR Inten    --      8.0192               295.1456                19.4109

                     43                     44                     45
                      A                      A                      A
 Frequencies --   3042.8355              3105.4202              3113.5935
 Red. masses --      1.0350                 1.1022                 1.1013
 Frc consts  --      5.6463                 6.2625                 6.2902
 IR Inten    --     16.8121                17.4451                20.9692

                     46                     47                     48
                      A                      A                      A
 Frequencies --   3122.0995              3125.3734              3130.8618
 Red. masses --      1.1019                 1.1014                 1.0549
 Frc consts  --      6.3280                 6.3385                 6.0925
 IR Inten    --      3.6917                21.1712                 7.9276

                     49                     50                     51
                      A                      A                      A
 Frequencies --   3177.0204              3201.3095              3221.5853
 Red. masses --      1.0907                 1.0952                 1.1148
 Frc consts  --      6.4862                 6.6129                 6.8168
 IR Inten    --      7.2407                 9.8849                 8.6756

 - Thermochemistry -
 -------------------
 Temperature   298.150 Kelvin.  Pressure   1.00000 Atm.
 Atom     1 has atomic number  6 and mass  12.00000

 Molecular mass:   126.06808 amu.
 Principal axes and moments of inertia in atomic units:
                           1         2         3
     Eigenvalues --   798.233791004.360371284.73080
           X            0.99723   0.07283  -0.01529
           Y           -0.07256   0.99721   0.01724
           Z            0.01650  -0.01609   0.99973
 This molecule is an asymmetric top.
 Rotational symmetry number  1.
 Warning -- assumption of classical behavior for rotation
           may cause significant error
 Rotational temperatures (Kelvin)      0.10851     0.08624     0.06742
 Rotational constants (GHZ):           2.26092     1.79691     1.40476
 Zero-point vibrational energy     417249.2 (Joules/Mol)
                                   99.72495 (Kcal/Mol)
 Warning -- explicit consideration of  11 degrees of freedom as
           vibrations may cause significant error
 Vibrational temperatures:    141.61   294.66   307.50   332.61   360.68
          (Kelvin)            426.31   469.28   568.62   685.89   746.67
                              854.43  1007.90  1033.88  1086.23  1136.88
                             1181.70  1293.15  1364.96  1379.84  1419.80
                             1470.59  1483.22  1502.26  1537.14  1565.32
                             1609.45  1652.02  1704.58  1733.73  1777.85
                             1822.65  1952.00  1989.86  2007.44  2042.64
                             2120.03  2133.79  2140.23  2160.90  2170.86
                             2699.07  4367.58  4377.96  4468.00  4479.76
                             4492.00  4496.71  4504.61  4571.02  4605.96
                             4635.14

 Zero-point correction=                           0.158922 (Hartree/Particle)
 Thermal correction to Energy=                    0.167287
 Thermal correction to Enthalpy=                  0.168231
 Thermal correction to Gibbs Free Energy=         0.126423
 Sum of electronic and zero-point Energies=           -423.064867
 Sum of electronic and thermal Energies=              -423.056502
 Sum of electronic and thermal Enthalpies=            -423.055558
 Sum of electronic and thermal Free Energies=         -423.097366

                     E (Thermal)             CV                S
                      KCal/Mol        Cal/Mol-Kelvin    Cal/Mol-Kelvin
 Total                  104.974             32.593             87.993
 Electronic               0.000              0.000              0.000
 Translational            0.889              2.981             40.409
 Rotational               0.889              2.981             28.423
 Vibrational            103.197             26.632             19.161
 Vibration     1          0.604              1.950              3.485
 Vibration     2          0.640              1.833              2.090
 Vibration     3          0.644              1.820              2.012
 Vibration     4          0.653              1.793              1.870
 Vibration     5          0.663              1.762              1.726
 Vibration     6          0.690              1.681              1.438
 Vibration     7          0.710              1.623              1.279
 Vibration     8          0.762              1.480              0.980
 Vibration     9          0.833              1.302              0.719
 Vibration    10          0.874              1.208              0.612
 Vibration    11          0.951              1.045              0.460

 Optimization completed.
    -- Stationary point found.
 Normal termination of Gaussian 09 at Mon Jan 27 18:17:42 2020.
