 Gaussian 09, Revision D.01,
 Gaussian 09:  ES64L-G09RevD.01 24-Apr-2013

 -----------------------------
 # b3lyp 6-31G(2df,p) opt Freq
 -----------------------------

 -----
 titel
 -----
 Symbolic Z-matrix:
 Charge =  0 Multiplicity = 1

 SCF Done:  E(RB3LYP) =  -423.116471482     A.U. after   14 cycles
 SCF Done:  E(RB3LYP) =  -423.116471477     A.U. after    7 cycles
 SCF Done:  E(RB3LYP) =  -423.116471074     A.U. after    7 cycles
 SCF Done:  E(RB3LYP) =  -423.116471621     A.U. after    7 cycles
 SCF Done:  E(RB3LYP) =  -423.116471607     A.U. after    6 cycles
 Optimization completed.
    -- Stationary point found.
 Normal termination of Gaussian 09 at Tue Jan 28 12:25:56 2020.

 ----------------------------------------------------------------------
 #N Geom=AllCheck Guess=TCheck SCRF=Check GenChk RB3LYP/6-31G(2df,p) Fr
 eq
 ----------------------------------------------------------------------

 Structure from the checkpoint file:  "/scratch/puck/g09_f3b01097-9e32-4ec6-b2db-8a616ca5ada0/Gau-138088.chk"
 -----
 titel
 -----
 Charge =  0 Multiplicity = 1

                         Standard orientation:
 ---------------------------------------------------------------------
 Center     Atomic      Atomic             Coordinates (Angstroms)
 Number     Number       Type             X           Y           Z
 ---------------------------------------------------------------------
      1          6           0       -2.883306    0.709803   -0.008552
      2          8           0       -1.549244    0.394537   -0.344743
      3          6           0       -0.707306    0.267959    0.795219
      4          6           0        0.711665    0.057423    0.302155
      5          6           0        1.515997   -1.110613    0.885240
      6          6           0        0.941021   -1.233521   -0.486101
      7          8           0       -0.140488   -2.090364   -0.661664
      8          6           0        1.420815    1.234762   -0.113368
      9          6           0        2.020392    2.219171   -0.458641
     10          1           0       -2.945673    1.669921    0.524974
     11          1           0       -3.445674    0.785991   -0.941896
     12          1           0       -3.341059   -0.067224    0.623018
     13          1           0       -0.768913    1.174460    1.414544
     14          1           0       -1.032689   -0.586375    1.404858
     15          1           0        2.584614   -0.969352    0.991054
     16          1           0        1.038467   -1.684507    1.671483
     17          1           0        1.624235   -1.159430   -1.330493
     18          1           0       -0.855831   -1.554869   -1.031965
     19          1           0        2.544718    3.088091   -0.770044
 ---------------------------------------------------------------------

 SCF Done:  E(RB3LYP) =  -423.116471607     A.U. after    1 cycles

 The electronic state is 1-A.
 Alpha  occ. eigenvalues --  -19.15473 -19.13867 -10.24133 -10.23995 -10.23296
 Alpha  occ. eigenvalues --  -10.21872 -10.19497 -10.17869 -10.16836  -1.04624
 Alpha  occ. eigenvalues --   -1.02568  -0.86701  -0.74574  -0.73111  -0.66050
 Alpha  occ. eigenvalues --   -0.61621  -0.59841  -0.53962  -0.51503  -0.50178
 Alpha  occ. eigenvalues --   -0.49037  -0.47163  -0.46288  -0.41904  -0.40222
 Alpha  occ. eigenvalues --   -0.38935  -0.38066  -0.35012  -0.33623  -0.31086
 Alpha  occ. eigenvalues --   -0.28184  -0.26730  -0.25818  -0.23756
 Alpha virt. eigenvalues --    0.04698   0.05274   0.07988   0.10649   0.11591
 Alpha virt. eigenvalues --    0.12274   0.13168   0.13791   0.15417   0.15756
 Alpha virt. eigenvalues --    0.16300   0.17170   0.19419   0.19615   0.20640

 Mulliken charges:
               1
     1  C   -0.229621
     2  O   -0.247040
     3  C   -0.151332
     4  C    0.057676
     5  C   -0.346122
     6  C    0.101054
     7  O   -0.430343
     8  C    0.293214
     9  C   -0.454297
    10  H    0.114189
    11  H    0.132129
    12  H    0.109881
    13  H    0.105346
    14  H    0.101961
    15  H    0.128218
    16  H    0.126273
    17  H    0.102501
    18  H    0.295797
    19  H    0.190515
 Sum of Mulliken charges =   0.00000

 Dipole moment (field-independent basis, Debye):
    X=             -1.0867    Y=              0.9878    Z=              0.8744  Tot=              1.7092
 Quadrupole moment (field-independent basis, Debye-Ang):
   XX=            -46.3273   YY=            -56.1734   ZZ=            -52.1937
   XY=             -0.0564   XZ=             -0.9519   YZ=             -1.5309

  Exact polarizability:  86.029   7.984  88.480  -1.426  -5.952  63.248
 Approx polarizability: 111.376  18.360 136.202  -3.508 -11.379  96.422

                      1                      2                      3
                      A                      A                      A
 Frequencies --     71.1521               120.4605               135.9238
 Red. masses --      3.3791                 2.1620                 4.3590
 Frc consts  --      0.0101                 0.0185                 0.0474
 IR Inten    --      0.4290                 7.7962                 0.1451

                      4                      5                      6
                      A                      A                      A
 Frequencies --    154.7392               184.0103               235.5643
 Red. masses --      4.2887                 2.6161                 1.4201
 Frc consts  --      0.0605                 0.0522                 0.0464
 IR Inten    --      4.2888                 1.5709                 8.5351

                      7                      8                      9
                      A                      A                      A
 Frequencies --    281.6011               339.1113               379.8160
 Red. masses --      2.6849                 3.9637                 3.7732
 Frc consts  --      0.1254                 0.2686                 0.3207
 IR Inten    --      2.0198                 5.5806                 3.2322

                     10                     11                     12
                      A                      A                      A
 Frequencies --    410.6886               484.5653               499.2796
 Red. masses --      2.6236                 2.4150                 1.3951
 Frc consts  --      0.2607                 0.3341                 0.2049
 IR Inten    --     32.6949                53.2365                49.8431

                     13                     14                     15
                      A                      A                      A
 Frequencies --    535.9276               560.9849               583.2902
 Red. masses --      4.4249                 2.2100                 1.7054
 Frc consts  --      0.7488                 0.4098                 0.3419
 IR Inten    --     18.2036                13.1683                35.7092

                     16                     17                     18
                      A                      A                      A
 Frequencies --    649.3666               771.0624               837.8963
 Red. masses --      1.2319                 3.6372                 2.8912
 Frc consts  --      0.3061                 1.2741                 1.1959
 IR Inten    --     40.3423                 1.2533                10.7636

                     19                     20                     21
                      A                      A                      A
 Frequencies --    890.1753               941.9734               962.1316
 Red. masses --      2.5386                 1.5998                 2.2175
 Frc consts  --      1.1852                 0.8364                 1.2094
 IR Inten    --     19.3246                 5.2155                 7.6841

                     22                     23                     24
                      A                      A                      A
 Frequencies --    988.0467              1047.7372              1058.9234
 Red. masses --      2.8857                 1.8337                 1.3047
 Frc consts  --      1.6598                 1.1860                 0.8620
 IR Inten    --     19.4243                 2.7414                 0.8834

                     25                     26                     27
                      A                      A                      A
 Frequencies --   1116.2732              1137.6374              1179.2109
 Red. masses --      1.7693                 6.4248                 1.8383
 Frc consts  --      1.2989                 4.8991                 1.5061
 IR Inten    --      8.1534               181.8442                27.1267

                     28                     29                     30
                      A                      A                      A
 Frequencies --   1185.9432              1223.1015              1240.3164
 Red. masses --      1.6085                 1.5862                 1.5095
 Frc consts  --      1.3329                 1.3981                 1.3682
 IR Inten    --     22.6111                26.3693                19.2503

                     31                     32                     33
                      A                      A                      A
 Frequencies --   1293.0060              1307.8668              1362.4129
 Red. masses --      2.5474                 1.4903                 1.1882
 Frc consts  --      2.5092                 1.5019                 1.2995
 IR Inten    --     20.2380                 4.5328                86.9421

                     34                     35                     36
                      A                      A                      A
 Frequencies --   1411.6027              1425.9857              1473.2011
 Red. masses --      1.4012                 1.4335                 1.2709
 Frc consts  --      1.6450                 1.7174                 1.6252
 IR Inten    --     25.1978                 7.5187                17.4470

                     37                     38                     39
                      A                      A                      A
 Frequencies --   1483.4796              1487.1959              1499.5938
 Red. masses --      1.2556                 1.0488                 1.0743
 Frc consts  --      1.6280                 1.3667                 1.4234
 IR Inten    --      3.2629                 5.9725                 5.3459

                     40                     41                     42
                      A                      A                      A
 Frequencies --   1519.2344              2233.5180              2977.8765
 Red. masses --      1.0795                 6.0430                 1.0382
 Frc consts  --      1.4680                17.7615                 5.4241
 IR Inten    --      4.3031                14.1928                48.2664

                     43                     44                     45
                      A                      A                      A
 Frequencies --   2994.8706              3028.5298              3034.7121
 Red. masses --      1.0540                 1.1025                 1.1072
 Frc consts  --      5.5698                 5.9577                 6.0077
 IR Inten    --     49.6231                72.6854                 8.7980

                     46                     47                     48
                      A                      A                      A
 Frequencies --   3119.8385              3120.0526              3144.8260
 Red. masses --      1.0893                 1.0959                 1.0548
 Frc consts  --      6.2469                 6.2857                 6.1466
 IR Inten    --     20.4117                27.4728                 5.7686

                     49                     50                     51
                      A                      A                      A
 Frequencies --   3240.6898              3504.2425              3746.7801
 Red. masses --      1.1179                 1.1598                 1.0656
 Frc consts  --      6.9171                 8.3910                 8.8136
 IR Inten    --      3.5964                79.0263                84.9952

 - Thermochemistry -
 -------------------
 Temperature   298.150 Kelvin.  Pressure   1.00000 Atm.
 Atom     1 has atomic number  6 and mass  12.00000

 Molecular mass:   126.06808 amu.
 Principal axes and moments of inertia in atomic units:
                           1         2         3
     Eigenvalues --   918.540861280.743161876.12682
           X            0.99892  -0.04601  -0.00701
           Y            0.04593   0.99887  -0.01202
           Z            0.00756   0.01168   0.99990
 This molecule is an asymmetric top.
 Rotational symmetry number  1.
 Warning -- assumption of classical behavior for rotation
           may cause significant error
 Rotational temperatures (Kelvin)      0.09430     0.06763     0.04617
 Rotational constants (GHZ):           1.96479     1.40914     0.96195
 Zero-point vibrational energy     410417.4 (Joules/Mol)
                                   98.09210 (Kcal/Mol)
 Warning -- explicit consideration of  15 degrees of freedom as
           vibrations may cause significant error
 Vibrational temperatures:    102.37   173.32   195.56   222.63   264.75
          (Kelvin)            338.92   405.16   487.90   546.47   590.89
                              697.18   718.35   771.08   807.13   839.22
                              934.29  1109.39  1205.54  1280.76  1355.29
                             1384.29  1421.58  1507.46  1523.55  1606.07
                             1636.80  1696.62  1706.31  1759.77  1784.54
                             1860.34  1881.73  1960.21  2030.98  2051.67
                             2119.61  2134.39  2139.74  2157.58  2185.84
                             3213.53  4284.49  4308.95  4357.37  4366.27
                             4488.75  4489.05  4524.70  4662.62  5041.82
                             5390.77

 Zero-point correction=                           0.156320 (Hartree/Particle)
 Thermal correction to Energy=                    0.166208
 Thermal correction to Enthalpy=                  0.167152
 Thermal correction to Gibbs Free Energy=         0.121594
 Sum of electronic and zero-point Energies=           -422.960152
 Sum of electronic and thermal Energies=              -422.950264
 Sum of electronic and thermal Enthalpies=            -422.949320
 Sum of electronic and thermal Free Energies=         -422.994878

                     E (Thermal)             CV                S
                      KCal/Mol        Cal/Mol-Kelvin    Cal/Mol-Kelvin
 Total                  104.297             36.438             95.885
 Electronic               0.000              0.000              0.000
 Translational            0.889              2.981             40.409
 Rotational               0.889              2.981             29.180
 Vibrational            102.519             30.476             26.296
 Vibration     1          0.598              1.968              4.121
 Vibration     2          0.609              1.932              3.093
 Vibration     3          0.614              1.917              2.860
 Vibration     4          0.620              1.897              2.613
 Vibration     5          0.631              1.862              2.287
 Vibration     6          0.655              1.786              1.836
 Vibration     7          0.681              1.708              1.524
 Vibration     8          0.719              1.597              1.216
 Vibration     9          0.750              1.513              1.040
 Vibration    10          0.775              1.447              0.924
 Vibration    11          0.841              1.284              0.698
 Vibration    12          0.855              1.252              0.660
 Vibration    13          0.891              1.171              0.574
 Vibration    14          0.917              1.116              0.522
 Vibration    15          0.940              1.067              0.479

 Optimization completed.
    -- Stationary point found.
 Normal termination of Gaussian 09 at Tue Jan 28 13:07:05 2020.
