 Gaussian 09, Revision D.01,
 Gaussian 09:  ES64L-G09RevD.01 24-Apr-2013

 -----------------------------
 # b3lyp 6-31G(2df,p) opt Freq
 -----------------------------

 -----
 titel
 -----
 Symbolic Z-matrix:
 Charge =  0 Multiplicity = 1

 SCF Done:  E(RB3LYP) =  -423.165074425     A.U. after   15 cycles
 Optimization completed.
    -- Stationary point found.
 Normal termination of Gaussian 09 at Tue Jan 28 08:20:10 2020.

 ----------------------------------------------------------------------
 #N Geom=AllCheck Guess=TCheck SCRF=Check GenChk RB3LYP/6-31G(2df,p) Fr
 eq
 ----------------------------------------------------------------------

 Structure from the checkpoint file:  "/scratch/puck/g09_18c44af5-6d68-4343-aad4-ae2fc3938f10/Gau-60308.chk"
 -----
 titel
 -----
 Charge =  0 Multiplicity = 1

                         Standard orientation:
 ---------------------------------------------------------------------
 Center     Atomic      Atomic             Coordinates (Angstroms)
 Number     Number       Type             X           Y           Z
 ---------------------------------------------------------------------
      1          6           0       -3.515835   -0.389400   -0.191357
      2          6           0       -2.073998   -0.273276   -0.022603
      3          6           0       -0.880611   -0.185316    0.126939
      4          6           0        0.573204   -0.076660    0.275210
      5          6           0        0.944699    0.272606    1.738529
      6          6           0        1.121650    0.996599   -0.698340
      7          8           0        0.562344    2.270501   -0.451848
      8          6           0        1.180375   -1.447719   -0.046610
      9          8           0        2.065259   -1.629696   -0.839628
     10          1           0       -3.803220   -0.292891   -1.243825
     11          1           0       -3.874626   -1.361770    0.162889
     12          1           0       -4.046197    0.385203    0.373003
     13          1           0        0.518476   -0.449599    2.439655
     14          1           0        2.032555    0.284167    1.858890
     15          1           0        0.557630    1.265678    1.973900
     16          1           0        2.200623    1.092487   -0.554730
     17          1           0        0.951624    0.664934   -1.730916
     18          1           0       -0.390844    2.188392   -0.575382
     19          1           0        0.736253   -2.284052    0.537712
 ---------------------------------------------------------------------

 SCF Done:  E(RB3LYP) =  -423.165074425     A.U. after    1 cycles

 The electronic state is 1-A.
 Alpha  occ. eigenvalues --  -19.14874 -19.13729 -10.27796 -10.23030 -10.22582
 Alpha  occ. eigenvalues --  -10.21612 -10.19319 -10.19100 -10.18476  -1.05666
 Alpha  occ. eigenvalues --   -1.02016  -0.83088  -0.78163  -0.70756  -0.68706
 Alpha  occ. eigenvalues --   -0.65037  -0.57999  -0.51903  -0.49289  -0.47328
 Alpha  occ. eigenvalues --   -0.46600  -0.44862  -0.43934  -0.43819  -0.41702
 Alpha  occ. eigenvalues --   -0.41600  -0.38795  -0.38048  -0.37080  -0.33416
 Alpha  occ. eigenvalues --   -0.28540  -0.27944  -0.26092  -0.24679
 Alpha virt. eigenvalues --   -0.03005   0.03998   0.05357   0.08555   0.10320
 Alpha virt. eigenvalues --    0.11412   0.12841   0.15123   0.15521   0.16529
 Alpha virt. eigenvalues --    0.16949   0.17388   0.19014   0.19572   0.21408

 Mulliken charges:
               1
     1  C   -0.498747
     2  C    0.001131
     3  C    0.085128
     4  C   -0.041619
     5  C   -0.417354
     6  C   -0.070813
     7  O   -0.425832
     8  C    0.153747
     9  O   -0.251638
    10  H    0.154486
    11  H    0.156155
    12  H    0.153845
    13  H    0.124324
    14  H    0.128014
    15  H    0.147664
    16  H    0.121753
    17  H    0.105672
    18  H    0.284324
    19  H    0.089761
 Sum of Mulliken charges =   0.00000

 Dipole moment (field-independent basis, Debye):
    X=             -3.1947    Y=             -0.3793    Z=              1.2133  Tot=              3.4384
 Quadrupole moment (field-independent basis, Debye-Ang):
   XX=            -48.9405   YY=            -58.6745   ZZ=            -53.2358
   XY=              1.3564   XZ=              4.4800   YZ=             -2.3105

  Exact polarizability: 107.704   0.764  70.098   0.570  -0.083  66.415
 Approx polarizability: 159.600   0.160  98.821  -2.591   1.882  97.518

                      1                      2                      3
                      A                      A                      A
 Frequencies --     25.4231                58.7782                82.4415
 Red. masses --      1.0180                 5.6812                 4.2099
 Frc consts  --      0.0004                 0.0116                 0.0169
 IR Inten    --      0.0005                 2.0370                 2.2720

                      4                      5                      6
                      A                      A                      A
 Frequencies --    119.2501               150.1175               192.8572
 Red. masses --      2.6361                 2.6675                 6.0012
 Frc consts  --      0.0221                 0.0354                 0.1315
 IR Inten    --      2.3976                 3.2687                 2.3458

                      7                      8                      9
                      A                      A                      A
 Frequencies --    224.9735               282.1064               295.0524
 Red. masses --      1.0825                 3.2686                 2.3601
 Frc consts  --      0.0323                 0.1533                 0.1211
 IR Inten    --      0.0266                13.9971                 4.0444

                     10                     11                     12
                      A                      A                      A
 Frequencies --    296.0323               330.8713               389.3656
 Red. masses --      3.5344                 2.1189                 1.8322
 Frc consts  --      0.1825                 0.1367                 0.1637
 IR Inten    --      2.7704                 9.8416                47.8397

                     13                     14                     15
                      A                      A                      A
 Frequencies --    424.5044               490.6229               544.8510
 Red. masses --      2.0466                 7.0828                 4.5507
 Frc consts  --      0.2173                 1.0045                 0.7959
 IR Inten    --     63.6084                 1.1000                 0.5132

                     16                     17                     18
                      A                      A                      A
 Frequencies --    606.3897               692.6771               853.2419
 Red. masses --      4.0628                 4.1608                 2.7971
 Frc consts  --      0.8802                 1.1762                 1.1998
 IR Inten    --     20.7117                18.7837                 2.3482

                     19                     20                     21
                      A                      A                      A
 Frequencies --    914.5883               949.5830              1017.1712
 Red. masses --      1.8121                 1.5768                 1.7881
 Frc consts  --      0.8931                 0.8377                 1.0900
 IR Inten    --     23.8027                 2.2792                25.2542

                     22                     23                     24
                      A                      A                      A
 Frequencies --   1050.9302              1053.9508              1063.8127
 Red. masses --      1.4060                 1.3958                 2.4514
 Frc consts  --      0.9149                 0.9135                 1.6346
 IR Inten    --      3.2048                 1.0675                24.3504

                     25                     26                     27
                      A                      A                      A
 Frequencies --   1091.1531              1131.9219              1185.3803
 Red. masses --      4.3552                 2.8969                 1.7184
 Frc consts  --      3.0552                 2.1869                 1.4226
 IR Inten    --     58.7590                 3.0763                 9.7193

                     28                     29                     30
                      A                      A                      A
 Frequencies --   1203.8278              1286.5289              1378.6808
 Red. masses --      2.8810                 2.1269                 1.2257
 Frc consts  --      2.4599                 2.0741                 1.3726
 IR Inten    --      5.7294                19.2466                 1.4132

                     31                     32                     33
                      A                      A                      A
 Frequencies --   1394.8363              1411.9218              1414.3263
 Red. masses --      1.2080                 1.2127                 1.2211
 Frc consts  --      1.3847                 1.4244                 1.4392
 IR Inten    --      5.9175                41.3096                 5.8349

                     34                     35                     36
                      A                      A                      A
 Frequencies --   1425.3963              1476.4421              1478.0295
 Red. masses --      1.2255                 1.0390                 1.0397
 Frc consts  --      1.4670                 1.3345                 1.3382
 IR Inten    --     19.8071                 6.4326                 6.3060

                     37                     38                     39
                      A                      A                      A
 Frequencies --   1484.9694              1496.4369              1500.6584
 Red. masses --      1.0590                 1.0521                 1.0810
 Frc consts  --      1.3759                 1.3881                 1.4343
 IR Inten    --      3.3860                 5.9864                 3.4162

                     40                     41                     42
                      A                      A                      A
 Frequencies --   1829.3873              2355.1512              2885.5706
 Red. masses --     10.7865                11.8691                 1.0844
 Frc consts  --     21.2688                38.7888                 5.3198
 IR Inten    --    183.8457                 4.9534                93.3326

                     43                     44                     45
                      A                      A                      A
 Frequencies --   3021.7861              3030.7497              3044.0146
 Red. masses --      1.0671                 1.0347                 1.0347
 Frc consts  --      5.7408                 5.5998                 5.6486
 IR Inten    --     37.8128                25.5338                17.3426

                     46                     47                     48
                      A                      A                      A
 Frequencies --   3093.1691              3094.0676              3105.5632
 Red. masses --      1.1004                 1.1002                 1.0971
 Frc consts  --      6.2029                 6.2057                 6.2343
 IR Inten    --      7.7491                 7.1921                17.4513

                     49                     50                     51
                      A                      A                      A
 Frequencies --   3119.1607              3141.4441              3785.5499
 Red. masses --      1.1021                 1.1017                 1.0655
 Frc consts  --      6.3174                 6.4057                 8.9964
 IR Inten    --     20.8613                 5.9654                21.3195

 - Thermochemistry -
 -------------------
 Temperature   298.150 Kelvin.  Pressure   1.00000 Atm.
 Atom     1 has atomic number  6 and mass  12.00000

 Molecular mass:   126.06808 amu.
 Principal axes and moments of inertia in atomic units:
                           1         2         3
     Eigenvalues --   923.973591655.752102029.18486
           X            0.99932   0.03111   0.02000
           Y           -0.03076   0.99937  -0.01764
           Z           -0.02054   0.01701   0.99964
 This molecule is an asymmetric top.
 Rotational symmetry number  1.
 Warning -- assumption of classical behavior for rotation
           may cause significant error
 Rotational temperatures (Kelvin)      0.09374     0.05231     0.04268
 Rotational constants (GHZ):           1.95324     1.08998     0.88939
 Zero-point vibrational energy     406585.1 (Joules/Mol)
                                   97.17616 (Kcal/Mol)
 Warning -- explicit consideration of  16 degrees of freedom as
           vibrations may cause significant error
 Vibrational temperatures:     36.58    84.57   118.61   171.57   215.99
          (Kelvin)            277.48   323.69   405.89   424.51   425.92
                              476.05   560.21   610.77   705.90   783.92
                              872.46   996.61  1227.62  1315.89  1366.24
                             1463.48  1512.05  1516.40  1530.59  1569.92
                             1628.58  1705.50  1732.04  1851.03  1983.61
                             2006.86  2031.44  2034.90  2050.82  2124.27
                             2126.55  2136.54  2153.04  2159.11  2632.08
                             3388.53  4151.69  4347.67  4360.57  4379.65
                             4450.37  4451.67  4468.21  4487.77  4519.83
                             5446.56

 Zero-point correction=                           0.154860 (Hartree/Particle)
 Thermal correction to Energy=                    0.166023
 Thermal correction to Enthalpy=                  0.166967
 Thermal correction to Gibbs Free Energy=         0.117097
 Sum of electronic and zero-point Energies=           -423.010214
 Sum of electronic and thermal Energies=              -422.999052
 Sum of electronic and thermal Enthalpies=            -422.998108
 Sum of electronic and thermal Free Energies=         -423.047977

                     E (Thermal)             CV                S
                      KCal/Mol        Cal/Mol-Kelvin    Cal/Mol-Kelvin
 Total                  104.181             38.102            104.960
 Electronic               0.000              0.000              0.000
 Translational            0.889              2.981             40.409
 Rotational               0.889              2.981             29.519
 Vibrational            102.403             32.140             35.032
 Vibration     1          0.593              1.985              6.158
 Vibration     2          0.596              1.974              4.498
 Vibration     3          0.600              1.961              3.832
 Vibration     4          0.609              1.933              3.112
 Vibration     5          0.618              1.903              2.671
 Vibration     6          0.635              1.850              2.200
 Vibration     7          0.650              1.803              1.919
 Vibration     8          0.681              1.707              1.521
 Vibration     9          0.689              1.683              1.445
 Vibration    10          0.690              1.681              1.439
 Vibration    11          0.713              1.614              1.256
 Vibration    12          0.757              1.493              1.003
 Vibration    13          0.786              1.417              0.877
 Vibration    14          0.846              1.271              0.682
 Vibration    15          0.900              1.151              0.555
 Vibration    16          0.965              1.018              0.439

 Optimization completed on the basis of negligible forces.
    -- Stationary point found.
 Normal termination of Gaussian 09 at Tue Jan 28 09:59:37 2020.
