 Gaussian 09, Revision D.01,
 Gaussian 09:  ES64L-G09RevD.01 24-Apr-2013

 -----------------------------
 # b3lyp 6-31G(2df,p) opt Freq
 -----------------------------

 -----
 titel
 -----
 Symbolic Z-matrix:
 Charge =  0 Multiplicity = 1

 SCF Done:  E(RB3LYP) =  -423.151102263     A.U. after   14 cycles
 Optimization completed.
    -- Stationary point found.
 Normal termination of Gaussian 09 at Tue Jan 28 08:14:14 2020.

 ----------------------------------------------------------------------
 #N Geom=AllCheck Guess=TCheck SCRF=Check GenChk RB3LYP/6-31G(2df,p) Fr
 eq
 ----------------------------------------------------------------------

 Structure from the checkpoint file:  "/scratch/puck/g09_774bd1c9-7967-486f-8aa9-7197f19834c2/Gau-106382.chk"
 -----
 titel
 -----
 Charge =  0 Multiplicity = 1

                         Standard orientation:
 ---------------------------------------------------------------------
 Center     Atomic      Atomic             Coordinates (Angstroms)
 Number     Number       Type             X           Y           Z
 ---------------------------------------------------------------------
      1          8           0       -2.214546   -1.237379    0.049373
      2          6           0       -1.210358   -0.405709   -0.498626
      3          6           0       -1.433388    1.122191   -0.203662
      4          6           0       -0.036014    1.807501   -0.172198
      5          6           0        0.865637    0.660526    0.214224
      6          6           0        2.229905    0.080095   -0.208295
      7          6           0        1.506411   -1.302277   -0.434608
      8          6           0        0.194998   -0.625499    0.006718
      9          8           0        0.399878   -0.105130    1.333075
     10          1           0       -2.127945   -1.180671    1.008263
     11          1           0       -1.237390   -0.595095   -1.578134
     12          1           0       -2.105672    1.574160   -0.936447
     13          1           0       -1.915094    1.206475    0.774004
     14          1           0        0.251401    2.171110   -1.165645
     15          1           0       -0.003308    2.662617    0.510439
     16          1           0        2.607986    0.508830   -1.139254
     17          1           0        3.012366    0.116845    0.552381
     18          1           0        1.499790   -1.600524   -1.485489
     19          1           0        1.832056   -2.144644    0.178979
 ---------------------------------------------------------------------

 SCF Done:  E(RB3LYP) =  -423.151102264     A.U. after    1 cycles

 The electronic state is 1-A.
 Alpha  occ. eigenvalues --  -19.15265 -19.13320 -10.23912 -10.23172 -10.22455
 Alpha  occ. eigenvalues --  -10.19621 -10.19602 -10.19491 -10.18494  -1.08210
 Alpha  occ. eigenvalues --   -1.01554  -0.81120  -0.78906  -0.71375  -0.64183
 Alpha  occ. eigenvalues --   -0.63541  -0.58494  -0.53995  -0.51414  -0.47364
 Alpha  occ. eigenvalues --   -0.45594  -0.44491  -0.43430  -0.40736  -0.39951
 Alpha  occ. eigenvalues --   -0.38897  -0.36242  -0.34863  -0.34613  -0.33454
 Alpha  occ. eigenvalues --   -0.32633  -0.28503  -0.26042  -0.24735
 Alpha virt. eigenvalues --    0.06786   0.08566   0.10132   0.11108   0.11802
 Alpha virt. eigenvalues --    0.13095   0.13662   0.14509   0.15297   0.17214
 Alpha virt. eigenvalues --    0.18317   0.19116   0.19796   0.20635   0.21071

 Mulliken charges:
               1
     1  O   -0.435530
     2  C    0.046857
     3  C   -0.241344
     4  C   -0.324629
     5  C    0.330052
     6  C   -0.302180
     7  C   -0.309128
     8  C    0.291248
     9  O   -0.317850
    10  H    0.285688
    11  H    0.092071
    12  H    0.106159
    13  H    0.111827
    14  H    0.107331
    15  H    0.111538
    16  H    0.109470
    17  H    0.112911
    18  H    0.111863
    19  H    0.113647
 Sum of Mulliken charges =   0.00000

 Dipole moment (field-independent basis, Debye):
    X=              1.1394    Y=              1.1427    Z=             -1.1184  Tot=              1.9634
 Quadrupole moment (field-independent basis, Debye-Ang):
   XX=            -54.9905   YY=            -53.0609   ZZ=            -52.4618
   XY=             -2.6617   XZ=             -3.0825   YZ=             -1.0880

  Exact polarizability:  81.215  -1.302  75.948  -1.262   0.269  64.878
 Approx polarizability: 108.000   4.549 110.743  -1.834   0.692 108.144

                      1                      2                      3
                      A                      A                      A
 Frequencies --    109.5983               203.5047               239.0808
 Red. masses --      3.3746                 1.9512                 2.3215
 Frc consts  --      0.0239                 0.0476                 0.0782
 IR Inten    --      4.1501                 1.2685                 2.3437

                      4                      5                      6
                      A                      A                      A
 Frequencies --    273.2964               319.3455               384.9966
 Red. masses --      3.2097                 2.1285                 1.2365
 Frc consts  --      0.1412                 0.1279                 0.1080
 IR Inten    --      0.4844                 4.6604                78.2763

                      7                      8                      9
                      A                      A                      A
 Frequencies --    459.4720               474.9800               565.9050
 Red. masses --      3.0396                 4.2453                 4.4708
 Frc consts  --      0.3781                 0.5643                 0.8436
 IR Inten    --     13.9490                 9.8766                 1.9779

                     10                     11                     12
                      A                      A                      A
 Frequencies --    602.8542               666.2063               725.6557
 Red. masses --      3.2522                 4.7630                 2.4153
 Frc consts  --      0.6964                 1.2455                 0.7493
 IR Inten    --      7.0439                 3.5831                 4.8500

                     13                     14                     15
                      A                      A                      A
 Frequencies --    742.6088               766.2672               838.9197
 Red. masses --      4.6621                 1.2519                 1.8569
 Frc consts  --      1.5148                 0.4331                 0.7700
 IR Inten    --      1.3121                 1.5392                 3.4126

                     16                     17                     18
                      A                      A                      A
 Frequencies --    893.3409               924.4521               940.3218
 Red. masses --      3.9401                 2.9519                 2.5066
 Frc consts  --      1.8526                 1.4864                 1.3058
 IR Inten    --     14.6978                14.3919                 5.2546

                     19                     20                     21
                      A                      A                      A
 Frequencies --    951.7232               968.1364              1010.0452
 Red. masses --      4.2598                 2.8427                 1.7116
 Frc consts  --      2.2733                 1.5699                 1.0288
 IR Inten    --      1.6865                 6.3735                 8.8720

                     22                     23                     24
                      A                      A                      A
 Frequencies --   1032.5744              1088.5463              1111.7626
 Red. masses --      1.9480                 4.3255                 1.3700
 Frc consts  --      1.2237                 3.0198                 0.9977
 IR Inten    --      0.9179               142.3398                 5.1539

                     25                     26                     27
                      A                      A                      A
 Frequencies --   1162.7286              1180.8324              1212.2405
 Red. masses --      1.6114                 1.6317                 1.5475
 Frc consts  --      1.2835                 1.3405                 1.3399
 IR Inten    --      0.4521                 6.0072                 5.6442

                     28                     29                     30
                      A                      A                      A
 Frequencies --   1218.9538              1224.4642              1228.7844
 Red. masses --      1.3689                 1.3125                 1.6467
 Frc consts  --      1.1984                 1.1594                 1.4649
 IR Inten    --      3.0271                 1.5961                10.8921

                     31                     32                     33
                      A                      A                      A
 Frequencies --   1267.1106              1279.0263              1323.9861
 Red. masses --      1.3756                 1.4327                 1.4629
 Frc consts  --      1.3012                 1.3809                 1.5109
 IR Inten    --      2.6734                 7.3611                 0.5334

                     34                     35                     36
                      A                      A                      A
 Frequencies --   1337.3554              1346.0904              1424.4348
 Red. masses --      1.6264                 2.0166                 4.0723
 Frc consts  --      1.7138                 2.1529                 4.8682
 IR Inten    --      2.6939                 5.8964                16.0907

                     37                     38                     39
                      A                      A                      A
 Frequencies --   1436.3124              1465.6330              1477.7427
 Red. masses --      1.3169                 1.0874                 1.0849
 Frc consts  --      1.6007                 1.3762                 1.3959
 IR Inten    --     74.7480                 0.1323                 1.6208

                     40                     41                     42
                      A                      A                      A
 Frequencies --   1488.6756              1494.5805              3040.8040
 Red. masses --      1.2296                 1.1148                 1.0599
 Frc consts  --      1.6055                 1.4672                 5.7742
 IR Inten    --      1.5940                 1.4198                31.4622

                     43                     44                     45
                      A                      A                      A
 Frequencies --   3048.1427              3066.8407              3067.9357
 Red. masses --      1.0847                 1.0567                 1.0657
 Frc consts  --      5.9378                 5.8558                 5.9099
 IR Inten    --     19.5905                38.0616                14.6061

                     46                     47                     48
                      A                      A                      A
 Frequencies --   3073.5102              3081.3287              3117.9499
 Red. masses --      1.0595                 1.0976                 1.1062
 Frc consts  --      5.8969                 6.1399                 6.3362
 IR Inten    --     38.3016                27.0742                18.2703

                     49                     50                     51
                      A                      A                      A
 Frequencies --   3118.0832              3134.3464              3793.2844
 Red. masses --      1.1084                 1.1084                 1.0657
 Frc consts  --      6.3494                 6.4159                 9.0349
 IR Inten    --      7.2369                35.5523                19.2613

 - Thermochemistry -
 -------------------
 Temperature   298.150 Kelvin.  Pressure   1.00000 Atm.
 Atom     1 has atomic number  8 and mass  15.99491

 Molecular mass:   126.06808 amu.
 Principal axes and moments of inertia in atomic units:
                           1         2         3
     Eigenvalues --   650.157881078.390961399.80189
           X            0.99845  -0.05347  -0.01523
           Y            0.05340   0.99856  -0.00502
           Z            0.01548   0.00420   0.99987
 This molecule is an asymmetric top.
 Rotational symmetry number  1.
 Warning -- assumption of classical behavior for rotation
           may cause significant error
 Rotational temperatures (Kelvin)      0.13322     0.08032     0.06188
 Rotational constants (GHZ):           2.77585     1.67355     1.28928
 Zero-point vibrational energy     421114.0 (Joules/Mol)
                                  100.64867 (Kcal/Mol)
 Warning -- explicit consideration of  10 degrees of freedom as
           vibrations may cause significant error
 Vibrational temperatures:    157.69   292.80   343.98   393.21   459.47
          (Kelvin)            553.92   661.08   683.39   814.21   867.37
                              958.52  1044.06  1068.45  1102.49  1207.02
                             1285.32  1330.08  1352.91  1369.32  1392.93
                             1453.23  1485.64  1566.17  1599.58  1672.91
                             1698.95  1744.14  1753.80  1761.73  1767.94
                             1823.09  1840.23  1904.92  1924.15  1936.72
                             2049.44  2066.53  2108.72  2126.14  2141.87
                             2150.37  4375.03  4385.59  4412.49  4414.07
                             4422.09  4433.34  4486.03  4486.22  4509.62
                             5457.68

 Zero-point correction=                           0.160394 (Hartree/Particle)
 Thermal correction to Energy=                    0.168038
 Thermal correction to Enthalpy=                  0.168982
 Thermal correction to Gibbs Free Energy=         0.128600
 Sum of electronic and zero-point Energies=           -422.990708
 Sum of electronic and thermal Energies=              -422.983064
 Sum of electronic and thermal Enthalpies=            -422.982120
 Sum of electronic and thermal Free Energies=         -423.022502

                     E (Thermal)             CV                S
                      KCal/Mol        Cal/Mol-Kelvin    Cal/Mol-Kelvin
 Total                  105.445             30.863             84.991
 Electronic               0.000              0.000              0.000
 Translational            0.889              2.981             40.409
 Rotational               0.889              2.981             28.375
 Vibrational            103.668             24.901             16.208
 Vibration     1          0.606              1.942              3.276
 Vibration     2          0.639              1.835              2.101
 Vibration     3          0.657              1.781              1.810
 Vibration     4          0.676              1.723              1.575
 Vibration     5          0.705              1.637              1.313
 Vibration     6          0.754              1.502              1.019
 Vibration     7          0.817              1.340              0.768
 Vibration     8          0.832              1.306              0.724
 Vibration     9          0.922              1.105              0.512
 Vibration    10          0.961              1.026              0.445

 Optimization completed.
    -- Stationary point found.
 Normal termination of Gaussian 09 at Tue Jan 28 09:05:26 2020.
