 Gaussian 09, Revision D.01,
 Gaussian 09:  ES64L-G09RevD.01 24-Apr-2013

 -----------------------------
 # b3lyp 6-31G(2df,p) opt Freq
 -----------------------------

 -----
 titel
 -----
 Symbolic Z-matrix:
 Charge =  0 Multiplicity = 1

 SCF Done:  E(RB3LYP) =  -423.186586711     A.U. after   13 cycles
 Optimization completed.
    -- Stationary point found.
 Normal termination of Gaussian 09 at Mon Jan 27 18:25:54 2020.

 ----------------------------------------------------------------------
 #N Geom=AllCheck Guess=TCheck SCRF=Check GenChk RB3LYP/6-31G(2df,p) Fr
 eq
 ----------------------------------------------------------------------

 Structure from the checkpoint file:  "/scratch/puck/g09_195765b9-65a5-40f4-aea5-bdef84afa3f0/Gau-18296.chk"
 -----
 titel
 -----
 Charge =  0 Multiplicity = 1

                         Standard orientation:
 ---------------------------------------------------------------------
 Center     Atomic      Atomic             Coordinates (Angstroms)
 Number     Number       Type             X           Y           Z
 ---------------------------------------------------------------------
      1          6           0       -2.327856   -0.263740    0.401797
      2          6           0       -0.896637    0.023788    0.035889
      3          6           0       -0.450677    1.430156   -0.420818
      4          6           0        1.021513    0.994407   -0.392552
      5          8           0        1.154491    0.783956    1.024116
      6          6           0        0.274405   -0.349658    1.094106
      7          6           0        1.127265   -1.351960    0.298059
      8          6           0        0.931118   -0.508149   -0.973641
      9          8           0       -0.480333   -0.701796   -1.143516
     10          1           0       -2.992923   -0.029965   -0.435043
     11          1           0       -2.461898   -1.319626    0.656368
     12          1           0       -2.630629    0.340933    1.261767
     13          1           0       -0.878838    1.656780   -1.398349
     14          1           0       -0.613560    2.247739    0.282906
     15          1           0        1.803861    1.650016   -0.768643
     16          1           0       -0.016999   -0.561011    2.121109
     17          1           0        2.136094   -1.398870    0.710267
     18          1           0        0.710566   -2.349377    0.153063
     19          1           0        1.476274   -0.742956   -1.885292
 ---------------------------------------------------------------------

 SCF Done:  E(RB3LYP) =  -423.186586711     A.U. after    1 cycles

 The electronic state is 1-A.
 Alpha  occ. eigenvalues --  -19.13645 -19.13490 -10.23932 -10.23414 -10.23394
 Alpha  occ. eigenvalues --  -10.23289 -10.18143 -10.17908 -10.17750  -1.07131
 Alpha  occ. eigenvalues --   -1.01746  -0.77907  -0.75828  -0.74685  -0.67780
 Alpha  occ. eigenvalues --   -0.59370  -0.58329  -0.54531  -0.51231  -0.50644
 Alpha  occ. eigenvalues --   -0.45600  -0.42778  -0.42635  -0.40748  -0.39713
 Alpha  occ. eigenvalues --   -0.38158  -0.37235  -0.35302  -0.34448  -0.33852
 Alpha  occ. eigenvalues --   -0.32369  -0.29835  -0.27694  -0.23283
 Alpha virt. eigenvalues --    0.09351   0.10505   0.11484   0.12489   0.13958
 Alpha virt. eigenvalues --    0.14426   0.15721   0.15794   0.16618   0.16959
 Alpha virt. eigenvalues --    0.17235   0.17952   0.19064   0.20658   0.21743

 Mulliken charges:
               1
     1  C   -0.501775
     2  C    0.377160
     3  C   -0.227767
     4  C    0.032952
     5  O   -0.267625
     6  C    0.007833
     7  C   -0.203838
     8  C    0.045365
     9  O   -0.298595
    10  H    0.130799
    11  H    0.126026
    12  H    0.124012
    13  H    0.102245
    14  H    0.102496
    15  H    0.081779
    16  H    0.078479
    17  H    0.104491
    18  H    0.104437
    19  H    0.081525
 Sum of Mulliken charges =   0.00000

 Dipole moment (field-independent basis, Debye):
    X=             -0.2652    Y=             -0.0436    Z=              0.0094  Tot=              0.2689
 Quadrupole moment (field-independent basis, Debye-Ang):
   XX=            -51.8891   YY=            -52.8977   ZZ=            -54.0735
   XY=             -1.7771   XZ=             -4.3182   YZ=             -3.2456

  Exact polarizability:  78.164  -1.989  72.981  -2.783  -2.799  68.379
 Approx polarizability: 109.325   0.730 107.561  -0.532   0.010 108.595

                      1                      2                      3
                      A                      A                      A
 Frequencies --    204.4768               251.0363               273.2828
 Red. masses --      1.0259                 2.5932                 2.7026
 Frc consts  --      0.0253                 0.0963                 0.1189
 IR Inten    --      0.0285                 0.7861                 0.4120

                      4                      5                      6
                      A                      A                      A
 Frequencies --    422.5591               494.2279               563.4250
 Red. masses --      2.5456                 1.7670                 4.1633
 Frc consts  --      0.2678                 0.2543                 0.7787
 IR Inten    --      4.9008                 1.3791                 7.4484

                      7                      8                      9
                      A                      A                      A
 Frequencies --    589.5116               593.5036               635.8757
 Red. masses --      5.2164                 5.5670                 2.9077
 Frc consts  --      1.0681                 1.1554                 0.6927
 IR Inten    --     12.9162                 1.6460                 1.9282

                     10                     11                     12
                      A                      A                      A
 Frequencies --    679.2688               762.1682               825.0684
 Red. masses --      4.5050                 3.1161                 4.6037
 Frc consts  --      1.2247                 1.0665                 1.8464
 IR Inten    --      0.2691                 3.5201                 2.2661

                     13                     14                     15
                      A                      A                      A
 Frequencies --    859.8453               872.1808               899.1335
 Red. masses --      4.1887                 2.5127                 2.2808
 Frc consts  --      1.8246                 1.1262                 1.0864
 IR Inten    --     21.4812                 2.0405                16.6281

                     16                     17                     18
                      A                      A                      A
 Frequencies --    917.8518               931.9343               945.0368
 Red. masses --      2.3996                 2.2369                 2.4897
 Frc consts  --      1.1910                 1.1446                 1.3101
 IR Inten    --     12.1161                17.0083                33.4500

                     19                     20                     21
                      A                      A                      A
 Frequencies --    968.5434               983.3557              1004.1763
 Red. masses --      2.5535                 2.3589                 1.8727
 Frc consts  --      1.4113                 1.3440                 1.1126
 IR Inten    --      6.8628                25.2205                 7.7003

                     22                     23                     24
                      A                      A                      A
 Frequencies --   1012.8603              1039.4400              1088.0595
 Red. masses --      1.9862                 2.4235                 1.2192
 Frc consts  --      1.2005                 1.5428                 0.8504
 IR Inten    --     12.3962                29.9673                10.6524

                     25                     26                     27
                      A                      A                      A
 Frequencies --   1113.1679              1142.1885              1168.5024
 Red. masses --      1.6073                 2.1538                 1.6695
 Frc consts  --      1.1735                 1.6555                 1.3430
 IR Inten    --     16.1041                 5.3210                 5.9685

                     28                     29                     30
                      A                      A                      A
 Frequencies --   1181.9859              1220.6789              1245.8795
 Red. masses --      1.7077                 1.7139                 1.2847
 Frc consts  --      1.4057                 1.5047                 1.1749
 IR Inten    --      1.5719                 0.8003                 1.4893

                     31                     32                     33
                      A                      A                      A
 Frequencies --   1259.6529              1270.8048              1278.1778
 Red. masses --      1.5977                 1.6308                 1.5923
 Frc consts  --      1.4936                 1.5517                 1.5327
 IR Inten    --      3.3367                 7.5124                 5.9894

                     34                     35                     36
                      A                      A                      A
 Frequencies --   1304.7023              1324.1222              1349.8943
 Red. masses --      1.4471                 1.8572                 1.9042
 Frc consts  --      1.4514                 1.9185                 2.0444
 IR Inten    --     10.5101                12.7858                 4.7543

                     37                     38                     39
                      A                      A                      A
 Frequencies --   1417.5086              1473.0970              1475.6018
 Red. masses --      1.4608                 1.1167                 1.1249
 Frc consts  --      1.7294                 1.4278                 1.4431
 IR Inten    --      8.4951                 4.9803                 0.4043

                     40                     41                     42
                      A                      A                      A
 Frequencies --   1482.2961              1495.6829              3040.2138
 Red. masses --      1.0485                 1.0487                 1.0352
 Frc consts  --      1.3574                 1.3823                 5.6373
 IR Inten    --      3.9118                 3.4237                18.1531

                     43                     44                     45
                      A                      A                      A
 Frequencies --   3081.3634              3084.0863              3110.2935
 Red. masses --      1.0571                 1.0571                 1.1016
 Frc consts  --      5.9134                 5.9238                 6.2786
 IR Inten    --     15.4391                23.3966                15.5688

                     46                     47                     48
                      A                      A                      A
 Frequencies --   3115.9227              3143.9616              3144.2043
 Red. masses --      1.1013                 1.0911                 1.1071
 Frc consts  --      6.3000                 6.3543                 6.4485
 IR Inten    --     11.3586                45.1106                 7.7787

                     49                     50                     51
                      A                      A                      A
 Frequencies --   3145.2338              3148.4384              3154.1215
 Red. masses --      1.0941                 1.1087                 1.0924
 Frc consts  --      6.3768                 6.4755                 6.4030
 IR Inten    --     15.8121                18.3890                32.7436

 - Thermochemistry -
 -------------------
 Temperature   298.150 Kelvin.  Pressure   1.00000 Atm.
 Atom     1 has atomic number  6 and mass  12.00000

 Molecular mass:   126.06808 amu.
 Principal axes and moments of inertia in atomic units:
                           1         2         3
     Eigenvalues --   663.65794 921.73927 994.64864
           X            0.99724  -0.05748  -0.04696
           Y            0.04611   0.97555  -0.21489
           Z            0.05816   0.21214   0.97551
 This molecule is an asymmetric top.
 Rotational symmetry number  1.
 Warning -- assumption of classical behavior for rotation
           may cause significant error
 Rotational temperatures (Kelvin)      0.13051     0.09397     0.08708
 Rotational constants (GHZ):           2.71938     1.95797     1.81445
 Zero-point vibrational energy     425802.4 (Joules/Mol)
                                  101.76922 (Kcal/Mol)
 Warning -- explicit consideration of   8 degrees of freedom as
           vibrations may cause significant error
 Vibrational temperatures:    294.20   361.18   393.19   607.97   711.08
          (Kelvin)            810.64   848.17   853.92   914.88   977.32
                             1096.59  1187.09  1237.12  1254.87  1293.65
                             1320.58  1340.84  1359.70  1393.52  1414.83
                             1444.78  1457.28  1495.52  1565.47  1601.60
                             1643.35  1681.21  1700.61  1756.28  1792.54
                             1812.36  1828.40  1839.01  1877.17  1905.11
                             1942.19  2039.48  2119.46  2123.06  2132.69
                             2151.95  4374.18  4433.39  4437.31  4475.01
                             4483.11  4523.45  4523.80  4525.28  4529.90
                             4538.07

 Zero-point correction=                           0.162180 (Hartree/Particle)
 Thermal correction to Energy=                    0.168695
 Thermal correction to Enthalpy=                  0.169639
 Thermal correction to Gibbs Free Energy=         0.131759
 Sum of electronic and zero-point Energies=           -423.024407
 Sum of electronic and thermal Energies=              -423.017892
 Sum of electronic and thermal Enthalpies=            -423.016948
 Sum of electronic and thermal Free Energies=         -423.054827

                     E (Thermal)             CV                S
                      KCal/Mol        Cal/Mol-Kelvin    Cal/Mol-Kelvin
 Total                  105.858             28.115             79.725
 Electronic               0.000              0.000              0.000
 Translational            0.889              2.981             40.409
 Rotational               0.889              2.981             27.900
 Vibrational            104.080             22.153             11.416
 Vibration     1          0.640              1.834              2.092
 Vibration     2          0.663              1.761              1.723
 Vibration     3          0.676              1.723              1.575
 Vibration     4          0.785              1.421              0.883
 Vibration     5          0.850              1.263              0.673
 Vibration     6          0.919              1.110              0.517
 Vibration     7          0.947              1.054              0.468
 Vibration     8          0.951              1.046              0.461

 Normal termination of Gaussian 09 at Mon Jan 27 20:20:02 2020.
