 Gaussian 09, Revision D.01,
 Gaussian 09:  ES64L-G09RevD.01 24-Apr-2013

 -----------------------------
 # b3lyp 6-31G(2df,p) opt Freq
 -----------------------------

 -----
 titel
 -----
 Symbolic Z-matrix:
 Charge =  0 Multiplicity = 1

 SCF Done:  E(RB3LYP) =  -423.180334922     A.U. after   14 cycles
 Optimization completed.
    -- Stationary point found.
 Normal termination of Gaussian 09 at Tue Jan 28 03:10:11 2020.

 ----------------------------------------------------------------------
 #N Geom=AllCheck Guess=TCheck SCRF=Check GenChk RB3LYP/6-31G(2df,p) Fr
 eq
 ----------------------------------------------------------------------

 Structure from the checkpoint file:  "/scratch/puck/g09_d8ca5b8a-1ba3-495d-8511-230b1ff23c90/Gau-44873.chk"
 -----
 titel
 -----
 Charge =  0 Multiplicity = 1

                         Standard orientation:
 ---------------------------------------------------------------------
 Center     Atomic      Atomic             Coordinates (Angstroms)
 Number     Number       Type             X           Y           Z
 ---------------------------------------------------------------------
      1          6           0       -1.647292   -1.100286   -1.212333
      2          6           0       -1.326958   -0.453124    0.128905
      3          6           0       -1.560713    1.078456    0.315476
      4          6           0       -0.075646    1.287716    0.674024
      5          6           0        0.836542    1.502148   -0.566491
      6          6           0        1.208812    0.013281   -0.495921
      7          8           0        2.186518   -0.605729   -0.823391
      8          6           0        0.163412   -0.314372    0.559673
      9          8           0        0.546520   -1.221251    1.533428
     10          1           0       -1.284469   -2.132801   -1.245343
     11          1           0       -2.728489   -1.118850   -1.386412
     12          1           0       -1.188747   -0.557005   -2.046050
     13          1           0       -1.815508   -1.011139    0.933139
     14          1           0       -1.893198    1.616902   -0.577287
     15          1           0       -2.251793    1.307942    1.129395
     16          1           0        0.187653    1.853930    1.565624
     17          1           0        0.322989    1.820869   -1.477876
     18          1           0        1.707673    2.145535   -0.415355
     19          1           0        1.490640   -1.392456    1.419876
 ---------------------------------------------------------------------

 SCF Done:  E(RB3LYP) =  -423.180334922     A.U. after    1 cycles

 The electronic state is 1-A.
 Alpha  occ. eigenvalues --  -19.15207 -19.14205 -10.26939 -10.24075 -10.19954
 Alpha  occ. eigenvalues --  -10.19759 -10.19616 -10.18830 -10.18122  -1.05656
 Alpha  occ. eigenvalues --   -1.03099  -0.87302  -0.77258  -0.70977  -0.66964
 Alpha  occ. eigenvalues --   -0.60428  -0.58261  -0.54093  -0.50392  -0.47216
 Alpha  occ. eigenvalues --   -0.46071  -0.43983  -0.43587  -0.42343  -0.40658
 Alpha  occ. eigenvalues --   -0.38426  -0.37309  -0.36403  -0.35340  -0.34119
 Alpha  occ. eigenvalues --   -0.31831  -0.31171  -0.25537  -0.24403
 Alpha virt. eigenvalues --   -0.02668   0.08303   0.08525   0.09961   0.10603
 Alpha virt. eigenvalues --    0.12375   0.13138   0.15391   0.15800   0.16860
 Alpha virt. eigenvalues --    0.17367   0.19079   0.20363   0.21585   0.22748

 Mulliken charges:
               1
     1  C   -0.419338
     2  C   -0.010403
     3  C   -0.251146
     4  C   -0.104120
     5  C   -0.352026
     6  C    0.314939
     7  O   -0.320290
     8  C    0.306308
     9  O   -0.473362
    10  H    0.131360
    11  H    0.119194
    12  H    0.115983
    13  H    0.099670
    14  H    0.097694
    15  H    0.107638
    16  H    0.085174
    17  H    0.125012
    18  H    0.134123
    19  H    0.293589
 Sum of Mulliken charges =   0.00000

 Dipole moment (field-independent basis, Debye):
    X=             -1.4749    Y=              1.6397    Z=              0.1661  Tot=              2.2117
 Quadrupole moment (field-independent basis, Debye-Ang):
   XX=            -55.1004   YY=            -52.7638   ZZ=            -54.7894
   XY=              1.8467   XZ=              3.9444   YZ=             -0.0166

  Exact polarizability:  82.145  -2.074  76.800  -2.108  -0.350  68.016
 Approx polarizability: 119.129  -9.524 114.035  -7.209  -1.734 103.747

                      1                      2                      3
                      A                      A                      A
 Frequencies --     61.4920                96.0166               211.0195
 Red. masses --      3.4648                 3.5958                 2.6066
 Frc consts  --      0.0077                 0.0195                 0.0684
 IR Inten    --      4.1624                 1.5502                 7.7458

                      4                      5                      6
                      A                      A                      A
 Frequencies --    221.2479               231.9039               343.7520
 Red. masses --      1.4589                 1.8856                 2.3682
 Frc consts  --      0.0421                 0.0597                 0.1649
 IR Inten    --     12.2872                 9.1587                 6.3854

                      7                      8                      9
                      A                      A                      A
 Frequencies --    351.2886               379.0952               412.3414
 Red. masses --      1.6585                 3.3159                 1.9468
 Frc consts  --      0.1206                 0.2808                 0.1950
 IR Inten    --     33.7728                 1.8063                15.4021

                     10                     11                     12
                      A                      A                      A
 Frequencies --    493.4235               508.7518               605.3743
 Red. masses --      3.3640                 2.6284                 2.6875
 Frc consts  --      0.4826                 0.4008                 0.5803
 IR Inten    --      2.8084                 2.9049                 2.4538

                     13                     14                     15
                      A                      A                      A
 Frequencies --    678.5183               756.9368               807.4662
 Red. masses --      4.0242                 3.6279                 2.5430
 Frc consts  --      1.0916                 1.2247                 0.9769
 IR Inten    --      2.8999                 1.0192                 7.0778

                     16                     17                     18
                      A                      A                      A
 Frequencies --    825.6015               882.9120               895.1713
 Red. masses --      2.1235                 1.9641                 4.3565
 Frc consts  --      0.8528                 0.9021                 2.0568
 IR Inten    --      3.8368                 4.3194                 7.5110

                     19                     20                     21
                      A                      A                      A
 Frequencies --    944.0939               976.3930              1004.8004
 Red. masses --      1.4123                 1.7622                 2.4050
 Frc consts  --      0.7417                 0.9898                 1.4306
 IR Inten    --      1.4470                 5.6777                16.6454

                     22                     23                     24
                      A                      A                      A
 Frequencies --   1028.9339              1066.8361              1107.6347
 Red. masses --      1.5628                 2.0644                 1.6444
 Frc consts  --      0.9748                 1.3843                 1.1887
 IR Inten    --      8.9860                 1.6070                13.3667

                     25                     26                     27
                      A                      A                      A
 Frequencies --   1116.1869              1126.9046              1159.4184
 Red. masses --      2.1786                 2.1522                 2.2282
 Frc consts  --      1.5992                 1.6103                 1.7648
 IR Inten    --     23.2815                84.7168                30.0977

                     28                     29                     30
                      A                      A                      A
 Frequencies --   1202.7848              1211.9707              1222.2954
 Red. masses --      1.6498                 1.5385                 1.6300
 Frc consts  --      1.4062                 1.3315                 1.4348
 IR Inten    --      4.0371                 2.2500                20.0538

                     31                     32                     33
                      A                      A                      A
 Frequencies --   1272.9331              1291.9962              1329.7552
 Red. masses --      1.6181                 1.4263                 1.9705
 Frc consts  --      1.5448                 1.4028                 2.0529
 IR Inten    --      3.3659                 4.4223                13.5877

                     34                     35                     36
                      A                      A                      A
 Frequencies --   1368.9457              1379.1096              1410.4438
 Red. masses --      1.6780                 1.5616                 1.2470
 Frc consts  --      1.8527                 1.7500                 1.4616
 IR Inten    --      2.9686                71.5504                 2.0432

                     37                     38                     39
                      A                      A                      A
 Frequencies --   1442.9964              1492.0042              1494.7296
 Red. masses --      1.1001                 1.0734                 1.0764
 Frc consts  --      1.3496                 1.4078                 1.4169
 IR Inten    --     12.7475                 2.2527                 2.1545

                     40                     41                     42
                      A                      A                      A
 Frequencies --   1496.9597              1849.6930              3028.6725
 Red. masses --      1.0452                12.6524                 1.0354
 Frc consts  --      1.3799                25.5049                 5.5956
 IR Inten    --      6.5557               273.3037                18.7425

                     43                     44                     45
                      A                      A                      A
 Frequencies --   3053.7601              3059.5643              3061.6429
 Red. masses --      1.0606                 1.0607                 1.0848
 Frc consts  --      5.8274                 5.8502                 5.9910
 IR Inten    --     34.3158                12.0284                 0.5979

                     46                     47                     48
                      A                      A                      A
 Frequencies --   3095.5205              3102.3109              3108.2328
 Red. masses --      1.1010                 1.1015                 1.1034
 Frc consts  --      6.2162                 6.2461                 6.2809
 IR Inten    --     25.5604                17.1569                27.0339

                     49                     50                     51
                      A                      A                      A
 Frequencies --   3111.2392              3133.1532              3764.5812
 Red. masses --      1.1049                 1.0913                 1.0657
 Frc consts  --      6.3013                 6.3119                 8.8983
 IR Inten    --      4.4256                28.4198                33.4541

 - Thermochemistry -
 -------------------
 Temperature   298.150 Kelvin.  Pressure   1.00000 Atm.
 Atom     1 has atomic number  6 and mass  12.00000

 Molecular mass:   126.06808 amu.
 Principal axes and moments of inertia in atomic units:
                           1         2         3
     Eigenvalues --   834.745181137.846811257.82859
           X            0.99737   0.04913   0.05323
           Y           -0.05296   0.99592   0.07311
           Z           -0.04942  -0.07574   0.99590
 This molecule is an asymmetric top.
 Rotational symmetry number  1.
 Warning -- assumption of classical behavior for rotation
           may cause significant error
 Rotational temperatures (Kelvin)      0.10376     0.07612     0.06886
 Rotational constants (GHZ):           2.16203     1.58610     1.43481
 Zero-point vibrational energy     414379.3 (Joules/Mol)
                                   99.03903 (Kcal/Mol)
 Warning -- explicit consideration of  12 degrees of freedom as
           vibrations may cause significant error
 Vibrational temperatures:     88.47   138.15   303.61   318.33   333.66
          (Kelvin)            494.58   505.43   545.43   593.27   709.93
                              731.98   871.00   976.24  1089.06  1161.76
                             1187.85  1270.31  1287.95  1358.34  1404.81
                             1445.68  1480.40  1534.94  1593.64  1605.94
                             1621.36  1668.14  1730.54  1743.75  1758.61
                             1831.46  1858.89  1913.22  1969.61  1984.23
                             2029.31  2076.15  2146.66  2150.58  2153.79
                             2661.29  4357.58  4393.67  4402.03  4405.02
                             4453.76  4463.53  4472.05  4476.37  4507.90
                             5416.39

 Zero-point correction=                           0.157829 (Hartree/Particle)
 Thermal correction to Energy=                    0.166633
 Thermal correction to Enthalpy=                  0.167577
 Thermal correction to Gibbs Free Energy=         0.124294
 Sum of electronic and zero-point Energies=           -423.022506
 Sum of electronic and thermal Energies=              -423.013702
 Sum of electronic and thermal Enthalpies=            -423.012757
 Sum of electronic and thermal Free Energies=         -423.056041

                     E (Thermal)             CV                S
                      KCal/Mol        Cal/Mol-Kelvin    Cal/Mol-Kelvin
 Total                  104.564             33.439             91.098
 Electronic               0.000              0.000              0.000
 Translational            0.889              2.981             40.409
 Rotational               0.889              2.981             28.570
 Vibrational            102.787             27.478             22.119
 Vibration     1          0.597              1.973              4.409
 Vibration     2          0.603              1.952              3.534
 Vibration     3          0.643              1.824              2.035
 Vibration     4          0.648              1.809              1.949
 Vibration     5          0.653              1.792              1.864
 Vibration     6          0.723              1.588              1.195
 Vibration     7          0.728              1.573              1.160
 Vibration     8          0.749              1.515              1.043
 Vibration     9          0.776              1.443              0.918
 Vibration    10          0.849              1.265              0.675
 Vibration    11          0.864              1.231              0.637
 Vibration    12          0.964              1.020              0.441

 Optimization completed.
    -- Stationary point found.
 Normal termination of Gaussian 09 at Tue Jan 28 05:10:28 2020.
