 Gaussian 09, Revision D.01,
 Gaussian 09:  ES64L-G09RevD.01 24-Apr-2013

 -----------------------------
 # b3lyp 6-31G(2df,p) opt Freq
 -----------------------------

 -----
 titel
 -----
 Symbolic Z-matrix:
 Charge =  0 Multiplicity = 1

 SCF Done:  E(RB3LYP) =  -423.182192064     A.U. after   14 cycles
 Optimization completed.
    -- Stationary point found.
 Normal termination of Gaussian 09 at Tue Jan 28 14:12:29 2020.

 ----------------------------------------------------------------------
 #N Geom=AllCheck Guess=TCheck SCRF=Check GenChk RB3LYP/6-31G(2df,p) Fr
 eq
 ----------------------------------------------------------------------

 Structure from the checkpoint file:  "/scratch/puck/g09_046e1c86-5fae-4b96-b5ad-d4f3532e057e/Gau-122954.chk"
 -----
 titel
 -----
 Charge =  0 Multiplicity = 1

                         Standard orientation:
 ---------------------------------------------------------------------
 Center     Atomic      Atomic             Coordinates (Angstroms)
 Number     Number       Type             X           Y           Z
 ---------------------------------------------------------------------
      1          8           0        2.877204   -0.651634    0.259355
      2          6           0        1.929826    0.066793   -0.517026
      3          6           0        0.529274   -0.516082   -0.384550
      4          6           0       -0.705925    0.172208   -1.072501
      5          6           0       -0.721813    1.585687   -0.442157
      6          6           0       -0.416509    1.220166    1.055235
      7          6           0       -0.304418   -0.317709    0.939404
      8          6           0       -1.493192   -0.604583    0.000403
      9          8           0       -2.489994   -1.260806    0.040549
     10          1           0        2.634165   -0.553705    1.185640
     11          1           0        1.949809    1.137958   -0.274155
     12          1           0        2.264742   -0.031667   -1.555198
     13          1           0        0.571469   -1.578038   -0.644306
     14          1           0       -0.914946    0.073387   -2.135759
     15          1           0        0.031963    2.245507   -0.877323
     16          1           0       -1.694471    2.068987   -0.563634
     17          1           0        0.505929    1.680721    1.418401
     18          1           0       -1.221039    1.517689    1.732173
     19          1           0       -0.128763   -0.900187    1.842081
 ---------------------------------------------------------------------

 SCF Done:  E(RB3LYP) =  -423.182192064     A.U. after    1 cycles

 The electronic state is 1-A.
 Alpha  occ. eigenvalues --  -19.14243 -19.13866 -10.27120 -10.23671 -10.20792
 Alpha  occ. eigenvalues --  -10.20447 -10.20406 -10.20191 -10.20092  -1.04949
 Alpha  occ. eigenvalues --   -1.02345  -0.90136  -0.74681  -0.71177  -0.70760
 Alpha  occ. eigenvalues --   -0.59314  -0.57629  -0.53043  -0.52361  -0.49074
 Alpha  occ. eigenvalues --   -0.47442  -0.45417  -0.44643  -0.41982  -0.38264
 Alpha  occ. eigenvalues --   -0.37664  -0.37345  -0.36871  -0.36287  -0.34337
 Alpha  occ. eigenvalues --   -0.32867  -0.32035  -0.27408  -0.23636
 Alpha virt. eigenvalues --   -0.00820   0.05983   0.08870   0.10342   0.12525
 Alpha virt. eigenvalues --    0.12917   0.13493   0.15118   0.15526   0.16467
 Alpha virt. eigenvalues --    0.16545   0.17648   0.19538   0.19686   0.21219

 Mulliken charges:
               1
     1  O   -0.415177
     2  C   -0.112740
     3  C   -0.003912
     4  C   -0.166970
     5  C   -0.227436
     6  C   -0.228700
     7  C   -0.169876
     8  C    0.436538
     9  O   -0.323531
    10  H    0.285303
    11  H    0.092590
    12  H    0.117910
    13  H    0.101042
    14  H    0.084730
    15  H    0.111044
    16  H    0.115642
    17  H    0.104775
    18  H    0.116558
    19  H    0.082211
 Sum of Mulliken charges =   0.00000

 Dipole moment (field-independent basis, Debye):
    X=              1.1988    Y=              2.2819    Z=              0.4660  Tot=              2.6195
 Quadrupole moment (field-independent basis, Debye-Ang):
   XX=            -66.4676   YY=            -54.7133   ZZ=            -48.8336
   XY=             -2.8006   XZ=              1.7551   YZ=             -0.1723

  Exact polarizability:  82.215   1.668  70.972   0.122  -0.903  71.352
 Approx polarizability: 121.022   6.462 106.993   0.113  -1.753 107.867

                      1                      2                      3
                      A                      A                      A
 Frequencies --     81.6288               130.8440               181.8348
 Red. masses --      3.2989                 7.1803                 3.1125
 Frc consts  --      0.0130                 0.0724                 0.0606
 IR Inten    --      2.5033                 3.8603                 5.5474

                      4                      5                      6
                      A                      A                      A
 Frequencies --    243.9781               284.3993               303.4591
 Red. masses --      2.1641                 1.8798                 1.2754
 Frc consts  --      0.0759                 0.0896                 0.0692
 IR Inten    --     10.0463                 1.1260                94.2225

                      7                      8                      9
                      A                      A                      A
 Frequencies --    394.9815               477.3796               504.4961
 Red. masses --      5.9676                 3.4959                 2.9022
 Frc consts  --      0.5485                 0.4694                 0.4352
 IR Inten    --      2.9671                 0.6081                 3.7955

                     10                     11                     12
                      A                      A                      A
 Frequencies --    651.4029               657.4143               727.6082
 Red. masses --      4.5123                 3.4413                 3.0936
 Frc consts  --      1.1281                 0.8763                 0.9650
 IR Inten    --      4.8963                 1.3479                 4.9450

                     13                     14                     15
                      A                      A                      A
 Frequencies --    781.7720               818.1944               860.3850
 Red. masses --      3.1883                 3.3838                 1.4113
 Frc consts  --      1.1481                 1.3346                 0.6155
 IR Inten    --      1.2771                 8.1511                 0.4436

                     16                     17                     18
                      A                      A                      A
 Frequencies --    895.8134               904.1889               954.9257
 Red. masses --      2.9802                 1.9978                 2.1279
 Frc consts  --      1.4091                 0.9623                 1.1433
 IR Inten    --      0.0610                 8.4401                16.5012

                     19                     20                     21
                      A                      A                      A
 Frequencies --    983.3333              1008.4152              1011.1499
 Red. masses --      1.4495                 2.0801                 2.4411
 Frc consts  --      0.8258                 1.2463                 1.4705
 IR Inten    --      0.2365                13.4463                12.4046

                     22                     23                     24
                      A                      A                      A
 Frequencies --   1067.2042              1084.1075              1108.4486
 Red. masses --      4.4537                 2.1246                 1.4897
 Frc consts  --      2.9886                 1.4712                 1.0784
 IR Inten    --     81.4931                15.9319                20.4063

                     25                     26                     27
                      A                      A                      A
 Frequencies --   1131.6660              1136.3866              1152.5793
 Red. masses --      1.8645                 1.5887                 1.7055
 Frc consts  --      1.4068                 1.2088                 1.3349
 IR Inten    --      5.3314                 0.2515                 0.4257

                     28                     29                     30
                      A                      A                      A
 Frequencies --   1183.9459              1228.2708              1243.5962
 Red. masses --      1.4888                 1.4502                 1.5477
 Frc consts  --      1.2295                 1.2891                 1.4102
 IR Inten    --      3.6657                 7.4839                 1.0829

                     31                     32                     33
                      A                      A                      A
 Frequencies --   1248.7107              1257.7796              1314.6745
 Red. masses --      1.1509                 1.4147                 1.5103
 Frc consts  --      1.0573                 1.3186                 1.5380
 IR Inten    --      2.1181                 0.7642                 0.3285

                     34                     35                     36
                      A                      A                      A
 Frequencies --   1327.3828              1357.6551              1403.0429
 Red. masses --      1.4857                 1.3340                 1.1832
 Frc consts  --      1.5423                 1.4487                 1.3723
 IR Inten    --      0.4211                 2.1986                31.9174

                     37                     38                     39
                      A                      A                      A
 Frequencies --   1423.2803              1492.7888              1507.1500
 Red. masses --      1.3435                 1.0828                 1.0814
 Frc consts  --      1.6035                 1.4217                 1.4472
 IR Inten    --     33.1550                 0.9650                 1.7318

                     40                     41                     42
                      A                      A                      A
 Frequencies --   1520.1229              1903.9704              3008.4092
 Red. masses --      1.0931                12.1155                 1.0661
 Frc consts  --      1.4883                25.8768                 5.6850
 IR Inten    --      1.8372               341.6763                34.2647

                     43                     44                     45
                      A                      A                      A
 Frequencies --   3059.9179              3065.1938              3069.5910
 Red. masses --      1.0592                 1.0855                 1.0617
 Frc consts  --      5.8432                 6.0088                 5.8941
 IR Inten    --     24.6449                16.8239                31.6652

                     46                     47                     48
                      A                      A                      A
 Frequencies --   3078.3372              3097.2053              3115.1617
 Red. masses --      1.0937                 1.1068                 1.1065
 Frc consts  --      6.1063                 6.2553                 6.3263
 IR Inten    --     39.4143                 1.3470                34.9379

                     49                     50                     51
                      A                      A                      A
 Frequencies --   3137.8724              3145.0700              3815.8341
 Red. masses --      1.0898                 1.0913                 1.0662
 Frc consts  --      6.3222                 6.3598                 9.1467
 IR Inten    --     27.9392                14.3052                13.2865

 - Thermochemistry -
 -------------------
 Temperature   298.150 Kelvin.  Pressure   1.00000 Atm.
 Atom     1 has atomic number  8 and mass  15.99491

 Molecular mass:   126.06808 amu.
 Principal axes and moments of inertia in atomic units:
                           1         2         3
     Eigenvalues --   619.000681458.091641615.01259
           X            0.99983  -0.01865  -0.00023
           Y            0.01865   0.99982   0.00372
           Z            0.00016  -0.00372   0.99999
 This molecule is an asymmetric top.
 Rotational symmetry number  1.
 Warning -- assumption of classical behavior for rotation
           may cause significant error
 Rotational temperatures (Kelvin)      0.13993     0.05940     0.05363
 Rotational constants (GHZ):           2.91557     1.23774     1.11748
 Zero-point vibrational energy     421940.6 (Joules/Mol)
                                  100.84622 (Kcal/Mol)
 Warning -- explicit consideration of   9 degrees of freedom as
           vibrations may cause significant error
 Vibrational temperatures:    117.45   188.26   261.62   351.03   409.19
          (Kelvin)            436.61   568.29   686.84   725.86   937.22
                              945.87  1046.86  1124.79  1177.20  1237.90
                             1288.87  1300.92  1373.92  1414.80  1450.88
                             1454.82  1535.47  1559.79  1594.81  1628.21
                             1635.00  1658.30  1703.43  1767.21  1789.26
                             1796.61  1809.66  1891.52  1909.81  1953.36
                             2018.66  2047.78  2147.79  2168.45  2187.12
                             2739.39  4328.42  4402.53  4410.12  4416.45
                             4429.04  4456.18  4482.02  4514.69  4525.05
                             5490.13

 Zero-point correction=                           0.160709 (Hartree/Particle)
 Thermal correction to Energy=                    0.168830
 Thermal correction to Enthalpy=                  0.169774
 Thermal correction to Gibbs Free Energy=         0.127853
 Sum of electronic and zero-point Energies=           -423.021483
 Sum of electronic and thermal Energies=              -423.013362
 Sum of electronic and thermal Enthalpies=            -423.012418
 Sum of electronic and thermal Free Energies=         -423.054339

                     E (Thermal)             CV                S
                      KCal/Mol        Cal/Mol-Kelvin    Cal/Mol-Kelvin
 Total                  105.943             31.290             88.231
 Electronic               0.000              0.000              0.000
 Translational            0.889              2.981             40.409
 Rotational               0.889              2.981             28.768
 Vibrational            104.165             25.328             19.054
 Vibration     1          0.600              1.962              3.851
 Vibration     2          0.612              1.922              2.934
 Vibration     3          0.630              1.864              2.309
 Vibration     4          0.659              1.773              1.774
 Vibration     5          0.683              1.703              1.507
 Vibration     6          0.695              1.667              1.398
 Vibration     7          0.762              1.481              0.981
 Vibration     8          0.834              1.300              0.717
 Vibration     9          0.860              1.240              0.647

 Optimization completed.
    -- Stationary point found.
 Normal termination of Gaussian 09 at Tue Jan 28 14:59:53 2020.
