 Gaussian 09, Revision D.01,
 Gaussian 09:  ES64L-G09RevD.01 24-Apr-2013

 -----------------------------
 # b3lyp 6-31G(2df,p) opt Freq
 -----------------------------

 -----
 titel
 -----
 Symbolic Z-matrix:
 Charge =  0 Multiplicity = 1

 SCF Done:  E(RB3LYP) =  -423.186980008     A.U. after   14 cycles
 Optimization completed.
    -- Stationary point found.
 Normal termination of Gaussian 09 at Mon Jan 27 11:30:25 2020.

 ----------------------------------------------------------------------
 #N Geom=AllCheck Guess=TCheck SCRF=Check GenChk RB3LYP/6-31G(2df,p) Fr
 eq
 ----------------------------------------------------------------------

 Structure from the checkpoint file:  "/scratch/puck/g09_455ade9b-53c2-40b2-9145-e5c921d9644d/Gau-61251.chk"
 -----
 titel
 -----
 Charge =  0 Multiplicity = 1

                         Standard orientation:
 ---------------------------------------------------------------------
 Center     Atomic      Atomic             Coordinates (Angstroms)
 Number     Number       Type             X           Y           Z
 ---------------------------------------------------------------------
      1          6           0       -1.376333    0.858059   -0.634552
      2          6           0       -0.375746    1.715087    0.157170
      3          6           0        0.930962    0.975805    0.507716
      4          8           0        0.631920   -0.203809    1.264626
      5          6           0        0.488411   -1.271484    0.336332
      6          6           0       -1.014761   -1.460677   -0.050952
      7          8           0       -1.801271   -0.296802    0.070758
      8          6           0        1.360709   -0.853852   -0.830000
      9          6           0        1.637022    0.440030   -0.718481
     10          1           0       -2.282246    1.449470   -0.807714
     11          1           0       -0.967549    0.585390   -1.618106
     12          1           0       -0.149780    2.621368   -0.421688
     13          1           0       -0.847590    2.032483    1.093126
     14          1           0        1.564433    1.616405    1.131918
     15          1           0        0.842100   -2.193363    0.815008
     16          1           0       -1.071867   -1.876336   -1.071390
     17          1           0       -1.479452   -2.181196    0.628937
     18          1           0        1.649973   -1.526358   -1.627663
     19          1           0        2.195209    1.059215   -1.408903
 ---------------------------------------------------------------------

 SCF Done:  E(RB3LYP) =  -423.186980008     A.U. after    1 cycles

 The electronic state is 1-A.
 Alpha  occ. eigenvalues --  -19.13355 -19.13266 -10.23387 -10.23286 -10.22458
 Alpha  occ. eigenvalues --  -10.22454 -10.18758 -10.18649 -10.18027  -1.04401
 Alpha  occ. eigenvalues --   -1.01617  -0.79592  -0.78586  -0.70874  -0.69530
 Alpha  occ. eigenvalues --   -0.58448  -0.56739  -0.56260  -0.52123  -0.48880
 Alpha  occ. eigenvalues --   -0.47786  -0.45066  -0.42133  -0.41706  -0.41078
 Alpha  occ. eigenvalues --   -0.39152  -0.38607  -0.35315  -0.34280  -0.32297
 Alpha  occ. eigenvalues --   -0.29991  -0.26464  -0.25306  -0.23595
 Alpha virt. eigenvalues --    0.00858   0.08735   0.11542   0.12395   0.12557
 Alpha virt. eigenvalues --    0.14187   0.15132   0.15685   0.16257   0.16779
 Alpha virt. eigenvalues --    0.17100   0.17938   0.18919   0.21209   0.22833

 Mulliken charges:
               1
     1  C   -0.078919
     2  C   -0.207126
     3  C    0.043793
     4  O   -0.249059
     5  C    0.026289
     6  C   -0.094435
     7  O   -0.234730
     8  C   -0.096240
     9  C   -0.086154
    10  H    0.105134
    11  H    0.093045
    12  H    0.089667
    13  H    0.115499
    14  H    0.083000
    15  H    0.085980
    16  H    0.083436
    17  H    0.110909
    18  H    0.104988
    19  H    0.104923
 Sum of Mulliken charges =   0.00000

 Dipole moment (field-independent basis, Debye):
    X=              1.0495    Y=              0.2976    Z=             -1.9083  Tot=              2.1981
 Quadrupole moment (field-independent basis, Debye-Ang):
   XX=            -56.0278   YY=            -47.0661   ZZ=            -54.4825
   XY=              0.0152   XZ=             -0.9049   YZ=              0.3300

  Exact polarizability:  70.888   2.323  89.687  -2.910   1.086  65.031
 Approx polarizability:  99.119   6.472 136.483  -5.409   2.016 101.471

                      1                      2                      3
                      A                      A                      A
 Frequencies --    164.6965               217.4981               304.2135
 Red. masses --      2.5184                 3.1282                 4.4773
 Frc consts  --      0.0402                 0.0872                 0.2441
 IR Inten    --      0.7995                 0.7752                 1.6420

                      4                      5                      6
                      A                      A                      A
 Frequencies --    344.7752               360.2230               369.9195
 Red. masses --      3.9075                 2.5230                 2.2504
 Frc consts  --      0.2737                 0.1929                 0.1814
 IR Inten    --      4.9730                 4.2226                 0.9017

                      7                      8                      9
                      A                      A                      A
 Frequencies --    491.1656               593.0031               665.0393
 Red. masses --      2.5703                 2.9980                 3.5125
 Frc consts  --      0.3653                 0.6211                 0.9153
 IR Inten    --      5.1252                 1.4872                13.7629

                     10                     11                     12
                      A                      A                      A
 Frequencies --    717.1840               794.1125               818.1499
 Red. masses --      1.7984                 2.5425                 4.6007
 Frc consts  --      0.5450                 0.9447                 1.8144
 IR Inten    --     10.6714                22.9680                15.5572

                     13                     14                     15
                      A                      A                      A
 Frequencies --    821.6538               842.7912               900.2963
 Red. masses --      3.0634                 3.4632                 2.8720
 Frc consts  --      1.2185                 1.4493                 1.3715
 IR Inten    --      3.9710                 5.8190                 2.7587

                     16                     17                     18
                      A                      A                      A
 Frequencies --    909.7916               926.8198               946.4205
 Red. masses --      2.6515                 2.3478                 1.7685
 Frc consts  --      1.2931                 1.1882                 0.9333
 IR Inten    --     19.2583                12.3971                 7.4131

                     19                     20                     21
                      A                      A                      A
 Frequencies --    958.5579              1019.4363              1034.6928
 Red. masses --      1.4331                 2.1605                 2.2011
 Frc consts  --      0.7758                 1.3229                 1.3884
 IR Inten    --      3.9039                12.5034                 8.8904

                     22                     23                     24
                      A                      A                      A
 Frequencies --   1062.9004              1092.5790              1104.2670
 Red. masses --      1.6474                 1.7354                 7.0687
 Frc consts  --      1.0966                 1.2205                 5.0785
 IR Inten    --      8.0948                 6.4435                25.5830

                     25                     26                     27
                      A                      A                      A
 Frequencies --   1136.8599              1156.8349              1227.1265
 Red. masses --      1.4632                 4.6018                 1.2126
 Frc consts  --      1.1142                 3.6285                 1.0758
 IR Inten    --      1.2346               119.2176                11.7380

                     28                     29                     30
                      A                      A                      A
 Frequencies --   1264.8394              1282.8142              1303.0949
 Red. masses --      1.2724                 1.4830                 1.2704
 Frc consts  --      1.1994                 1.4379                 1.2710
 IR Inten    --     17.6087                12.1459                 1.3080

                     31                     32                     33
                      A                      A                      A
 Frequencies --   1327.1504              1333.1831              1352.0581
 Red. masses --      1.3604                 1.2189                 1.6640
 Frc consts  --      1.4118                 1.2764                 1.7923
 IR Inten    --      0.1808                 5.9451                 0.7161

                     34                     35                     36
                      A                      A                      A
 Frequencies --   1369.4452              1385.0899              1401.4442
 Red. masses --      1.4116                 1.3812                 1.2647
 Frc consts  --      1.5597                 1.5612                 1.4635
 IR Inten    --      7.1955                 3.2700                 9.1505

                     37                     38                     39
                      A                      A                      A
 Frequencies --   1420.4697              1459.8233              1491.0742
 Red. masses --      1.2949                 1.0939                 1.0765
 Frc consts  --      1.5394                 1.3735                 1.4101
 IR Inten    --     10.3884                 1.7430                 0.3617

                     40                     41                     42
                      A                      A                      A
 Frequencies --   1501.2065              1679.0421              2960.4092
 Red. masses --      1.0987                 6.5333                 1.0704
 Frc consts  --      1.4589                10.8519                 5.5269
 IR Inten    --      5.3302                 0.5036                64.0006

                     43                     44                     45
                      A                      A                      A
 Frequencies --   3003.9677              3020.6069              3025.1907
 Red. masses --      1.0635                 1.0649                 1.0853
 Frc consts  --      5.6543                 5.7248                 5.8519
 IR Inten    --     37.6838                26.4453                44.0793

                     46                     47                     48
                      A                      A                      A
 Frequencies --   3044.6296              3063.7916              3078.6679
 Red. masses --      1.0862                 1.0982                 1.0924
 Frc consts  --      5.9324                 6.0736                 6.1004
 IR Inten    --     50.3484                39.3017                36.4533

                     49                     50                     51
                      A                      A                      A
 Frequencies --   3082.7020              3204.9588              3230.5559
 Red. masses --      1.0990                 1.0853                 1.1074
 Frc consts  --      6.1536                 6.5683                 6.8093
 IR Inten    --     33.5177                 3.3018                 8.5939

 - Thermochemistry -
 -------------------
 Temperature   298.150 Kelvin.  Pressure   1.00000 Atm.
 Atom     1 has atomic number  6 and mass  12.00000

 Molecular mass:   126.06808 amu.
 Principal axes and moments of inertia in atomic units:
                           1         2         3
     Eigenvalues --   746.54526 879.553241179.66209
           X            0.99997  -0.00703  -0.00443
           Y            0.00706   0.99995   0.00744
           Z            0.00438  -0.00747   0.99996
 This molecule is an asymmetric top.
 Rotational symmetry number  1.
 Warning -- assumption of classical behavior for rotation
           may cause significant error
 Rotational temperatures (Kelvin)      0.11602     0.09847     0.07342
 Rotational constants (GHZ):           2.41746     2.05188     1.52988
 Zero-point vibrational energy     426272.7 (Joules/Mol)
                                  101.88161 (Kcal/Mol)
 Warning -- explicit consideration of   8 degrees of freedom as
           vibrations may cause significant error
 Vibrational temperatures:    236.96   312.93   437.69   496.05   518.28
          (Kelvin)            532.23   706.68   853.20   956.84  1031.87
                             1142.55  1177.13  1182.18  1212.59  1295.32
                             1308.99  1333.49  1361.69  1379.15  1466.74
                             1488.69  1529.27  1571.98  1588.79  1635.69
                             1664.43  1765.56  1819.82  1845.68  1874.86
                             1909.47  1918.15  1945.31  1970.32  1992.83
                             2016.36  2043.74  2100.36  2145.32  2159.90
                             2415.76  4259.36  4322.03  4345.97  4352.57
                             4380.54  4408.11  4429.51  4435.32  4611.22
                             4648.04

 Zero-point correction=                           0.162359 (Hartree/Particle)
 Thermal correction to Energy=                    0.169295
 Thermal correction to Enthalpy=                  0.170239
 Thermal correction to Gibbs Free Energy=         0.131390
 Sum of electronic and zero-point Energies=           -423.024621
 Sum of electronic and thermal Energies=              -423.017685
 Sum of electronic and thermal Enthalpies=            -423.016741
 Sum of electronic and thermal Free Energies=         -423.055590

                     E (Thermal)             CV                S
                      KCal/Mol        Cal/Mol-Kelvin    Cal/Mol-Kelvin
 Total                  106.234             28.627             81.765
 Electronic               0.000              0.000              0.000
 Translational            0.889              2.981             40.409
 Rotational               0.889              2.981             28.140
 Vibrational            104.457             22.666             13.217
 Vibration     1          0.623              1.886              2.495
 Vibration     2          0.646              1.814              1.980
 Vibration     3          0.695              1.666              1.394
 Vibration     4          0.723              1.586              1.190
 Vibration     5          0.735              1.554              1.121
 Vibration     6          0.742              1.534              1.080
 Vibration     7          0.847              1.270              0.681
 Vibration     8          0.951              1.047              0.462

 Optimization completed.
    -- Stationary point found.
 Normal termination of Gaussian 09 at Mon Jan 27 13:43:52 2020.
