 Gaussian 09, Revision D.01,
 Gaussian 09:  ES64L-G09RevD.01 24-Apr-2013

 -----------------------------
 # b3lyp 6-31G(2df,p) opt Freq
 -----------------------------

 -----
 titel
 -----
 Symbolic Z-matrix:
 Charge =  0 Multiplicity = 1

 SCF Done:  E(RB3LYP) =  -423.147183816     A.U. after   12 cycles
 Optimization completed.
    -- Stationary point found.
 Normal termination of Gaussian 09 at Mon Jan 27 23:03:00 2020.

 ----------------------------------------------------------------------
 #N Geom=AllCheck Guess=TCheck SCRF=Check GenChk RB3LYP/6-31G(2df,p) Fr
 eq
 ----------------------------------------------------------------------

 Structure from the checkpoint file:  "/scratch/puck/g09_08e2fa5a-8e82-4b7b-8fa2-a03dbc3eac95/Gau-195643.chk"
 -----
 titel
 -----
 Charge =  0 Multiplicity = 1

                         Standard orientation:
 ---------------------------------------------------------------------
 Center     Atomic      Atomic             Coordinates (Angstroms)
 Number     Number       Type             X           Y           Z
 ---------------------------------------------------------------------
      1          8           0        1.342716    1.779791   -0.094766
      2          6           0        1.450608    0.420250   -0.364874
      3          6           0        1.185672   -0.599566    0.773318
      4          6           0        0.886061   -1.636128   -0.331250
      5          6           0        0.256645   -0.381786   -1.014940
      6          6           0       -0.833317   -0.064737   -0.011920
      7          6           0       -1.886274    0.988143   -0.136849
      8          6           0       -2.262195   -0.489262   -0.076936
      9          8           0       -0.123276   -0.188711    1.234354
     10          1           0        0.651924    1.872642    0.573868
     11          1           0        2.390342    0.247869   -0.892258
     12          1           0        1.837398   -0.762873    1.629708
     13          1           0        1.782235   -2.001506   -0.835347
     14          1           0        0.217445   -2.456450   -0.067912
     15          1           0        0.007348   -0.331964   -2.073234
     16          1           0       -2.101614    1.583854    0.744175
     17          1           0       -1.988329    1.516186   -1.079052
     18          1           0       -2.711796   -0.845567    0.843167
     19          1           0       -2.623671   -0.972308   -0.979109
 ---------------------------------------------------------------------

 SCF Done:  E(RB3LYP) =  -423.147183815     A.U. after    1 cycles

 The electronic state is 1-A.
 Alpha  occ. eigenvalues --  -19.14667 -19.13610 -10.24060 -10.23617 -10.23403
 Alpha  occ. eigenvalues --  -10.19720 -10.18967 -10.18663 -10.18575  -1.05780
 Alpha  occ. eigenvalues --   -1.01424  -0.85237  -0.83437  -0.67807  -0.65410
 Alpha  occ. eigenvalues --   -0.60796  -0.58767  -0.54779  -0.53119  -0.50454
 Alpha  occ. eigenvalues --   -0.46384  -0.45091  -0.44265  -0.40679  -0.39123
 Alpha  occ. eigenvalues --   -0.37816  -0.37125  -0.35422  -0.34840  -0.32717
 Alpha  occ. eigenvalues --   -0.30034  -0.29797  -0.26708  -0.22793
 Alpha virt. eigenvalues --    0.08001   0.09297   0.10547   0.11541   0.13476
 Alpha virt. eigenvalues --    0.14665   0.14927   0.15041   0.15549   0.16212
 Alpha virt. eigenvalues --    0.17440   0.19408   0.20580   0.21540   0.21842

 Mulliken charges:
               1
     1  O   -0.447131
     2  C    0.173309
     3  C    0.043014
     4  C   -0.252368
     5  C   -0.197298
     6  C    0.486839
     7  C   -0.357720
     8  C   -0.356012
     9  O   -0.335427
    10  H    0.294920
    11  H    0.090356
    12  H    0.083658
    13  H    0.104768
    14  H    0.111770
    15  H    0.075694
    16  H    0.120999
    17  H    0.121066
    18  H    0.125230
    19  H    0.114334
 Sum of Mulliken charges =   0.00000

 Dipole moment (field-independent basis, Debye):
    X=             -0.3821    Y=             -1.2617    Z=             -0.6896  Tot=              1.4878
 Quadrupole moment (field-independent basis, Debye-Ang):
   XX=            -52.2766   YY=            -54.6752   ZZ=            -52.7726
   XY=             -3.8587   XZ=              0.8874   YZ=              1.9194

  Exact polarizability:  83.847  -3.027  74.523   0.324   0.882  65.713
 Approx polarizability: 113.513  -1.847 110.500  -0.075   1.033 103.671

                      1                      2                      3
                      A                      A                      A
 Frequencies --    129.8082               205.8079               272.1611
 Red. masses --      4.3584                 2.7696                 3.0971
 Frc consts  --      0.0433                 0.0691                 0.1352
 IR Inten    --      0.4979                 3.7379                 4.2678

                      4                      5                      6
                      A                      A                      A
 Frequencies --    290.9004               353.2255               433.0987
 Red. masses --      2.7163                 2.2416                 1.3410
 Frc consts  --      0.1354                 0.1648                 0.1482
 IR Inten    --      1.5741                 6.4010                76.7207

                      7                      8                      9
                      A                      A                      A
 Frequencies --    466.1713               516.8778               565.6761
 Red. masses --      2.3492                 3.9019                 3.5969
 Frc consts  --      0.3008                 0.6142                 0.6781
 IR Inten    --      0.4065                 0.8057                 1.3569

                     10                     11                     12
                      A                      A                      A
 Frequencies --    654.3095               761.3291               765.6183
 Red. masses --      3.9332                 1.9408                 1.4514
 Frc consts  --      0.9921                 0.6628                 0.5013
 IR Inten    --      3.7149                 9.4414                 1.8228

                     13                     14                     15
                      A                      A                      A
 Frequencies --    801.3474               813.3992               838.4645
 Red. masses --      2.3245                 2.7498                 2.4756
 Frc consts  --      0.8795                 1.0719                 1.0254
 IR Inten    --      7.6690                 4.1441                21.6359

                     16                     17                     18
                      A                      A                      A
 Frequencies --    873.9967               891.2861               932.9377
 Red. masses --      2.7886                 1.3176                 1.8730
 Frc consts  --      1.2551                 0.6167                 0.9605
 IR Inten    --     19.5813                 1.7552                 2.6985

                     19                     20                     21
                      A                      A                      A
 Frequencies --    953.6658               971.4994               988.6248
 Red. masses --      2.5016                 2.3256                 3.8985
 Frc consts  --      1.3405                 1.2932                 2.2450
 IR Inten    --     30.2821                 7.3194                28.2226

                     22                     23                     24
                      A                      A                      A
 Frequencies --   1029.2114              1048.2984              1055.6495
 Red. masses --      1.8300                 2.0566                 1.8377
 Frc consts  --      1.1421                 1.3316                 1.2066
 IR Inten    --      4.5819                 3.6848                19.8514

                     25                     26                     27
                      A                      A                      A
 Frequencies --   1073.3029              1082.1230              1100.0564
 Red. masses --      1.4993                 1.5526                 1.4083
 Frc consts  --      1.0176                 1.0712                 1.0041
 IR Inten    --      1.3103                19.9697                34.9190

                     28                     29                     30
                      A                      A                      A
 Frequencies --   1149.7219              1171.6435              1187.3462
 Red. masses --      2.2643                 1.8057                 1.2685
 Frc consts  --      1.7635                 1.4604                 1.0537
 IR Inten    --    110.4570                33.8997                 0.5323

                     31                     32                     33
                      A                      A                      A
 Frequencies --   1206.5595              1220.8738              1239.8982
 Red. masses --      1.5506                 1.6087                 1.6109
 Frc consts  --      1.3300                 1.4128                 1.4591
 IR Inten    --      6.7207                 6.3815                10.6973

                     34                     35                     36
                      A                      A                      A
 Frequencies --   1263.9673              1316.1757              1336.0710
 Red. masses --      1.8987                 1.5137                 1.6888
 Frc consts  --      1.7872                 1.5450                 1.7761
 IR Inten    --     12.0299                10.0148                 7.8228

                     37                     38                     39
                      A                      A                      A
 Frequencies --   1395.1435              1443.1098              1450.0721
 Red. masses --      2.0351                 1.2232                 1.0907
 Frc consts  --      2.3338                 1.5009                 1.3513
 IR Inten    --     15.1703                53.8056                 2.4739

                     40                     41                     42
                      A                      A                      A
 Frequencies --   1488.6975              1508.5533              3081.7084
 Red. masses --      1.1729                 1.7657                 1.0569
 Frc consts  --      1.5316                 2.3675                 5.9137
 IR Inten    --     15.0777                21.3619                16.3416

                     43                     44                     45
                      A                      A                      A
 Frequencies --   3107.4957              3127.3187              3130.0327
 Red. masses --      1.0863                 1.0507                 1.0585
 Frc consts  --      6.1804                 6.0547                 6.1098
 IR Inten    --     23.9663                12.9269                 4.3421

                     46                     47                     48
                      A                      A                      A
 Frequencies --   3138.3904              3144.1453              3148.8324
 Red. masses --      1.0890                 1.0936                 1.1103
 Frc consts  --      6.3195                 6.3694                 6.4863
 IR Inten    --     42.7656                21.4808                21.6906

                     49                     50                     51
                      A                      A                      A
 Frequencies --   3210.9021              3225.2544              3775.5534
 Red. masses --      1.1183                 1.1154                 1.0646
 Frc consts  --      6.7930                 6.8362                 8.9411
 IR Inten    --      0.2552                 9.1168                24.5144

 - Thermochemistry -
 -------------------
 Temperature   298.150 Kelvin.  Pressure   1.00000 Atm.
 Atom     1 has atomic number  8 and mass  15.99491

 Molecular mass:   126.06808 amu.
 Principal axes and moments of inertia in atomic units:
                           1         2         3
     Eigenvalues --   665.335771032.456541273.29193
           X            0.99876  -0.04978   0.00278
           Y            0.04969   0.99836   0.02842
           Z           -0.00419  -0.02825   0.99959
 This molecule is an asymmetric top.
 Rotational symmetry number  1.
 Warning -- assumption of classical behavior for rotation
           may cause significant error
 Rotational temperatures (Kelvin)      0.13018     0.08389     0.06802
 Rotational constants (GHZ):           2.71253     1.74801     1.41738
 Zero-point vibrational energy     420704.6 (Joules/Mol)
                                  100.55081 (Kcal/Mol)
 Warning -- explicit consideration of   9 degrees of freedom as
           vibrations may cause significant error
 Vibrational temperatures:    186.76   296.11   391.58   418.54   508.21
          (Kelvin)            623.13   670.72   743.67   813.88   941.40
                             1095.38  1101.55  1152.96  1170.30  1206.36
                             1257.48  1282.36  1342.29  1372.11  1397.77
                             1422.41  1480.80  1508.27  1518.84  1544.24
                             1556.93  1582.73  1654.19  1685.73  1708.32
                             1735.97  1756.56  1783.93  1818.56  1893.68
                             1922.31  2007.30  2076.31  2086.33  2141.90
                             2170.47  4433.89  4470.99  4499.51  4503.41
                             4515.44  4523.72  4530.46  4619.77  4640.42
                             5432.17

 Zero-point correction=                           0.160238 (Hartree/Particle)
 Thermal correction to Energy=                    0.167625
 Thermal correction to Enthalpy=                  0.168569
 Thermal correction to Gibbs Free Energy=         0.128833
 Sum of electronic and zero-point Energies=           -422.986946
 Sum of electronic and thermal Energies=              -422.979559
 Sum of electronic and thermal Enthalpies=            -422.978615
 Sum of electronic and thermal Free Energies=         -423.018350

                     E (Thermal)             CV                S
                      KCal/Mol        Cal/Mol-Kelvin    Cal/Mol-Kelvin
 Total                  105.186             30.690             83.630
 Electronic               0.000              0.000              0.000
 Translational            0.889              2.981             40.409
 Rotational               0.889              2.981             28.261
 Vibrational            103.409             24.728             14.961
 Vibration     1          0.612              1.923              2.949
 Vibration     2          0.640              1.832              2.081
 Vibration     3          0.675              1.725              1.582
 Vibration     4          0.687              1.691              1.469
 Vibration     5          0.729              1.569              1.152
 Vibration     6          0.794              1.398              0.849
 Vibration     7          0.824              1.325              0.748
 Vibration     8          0.872              1.213              0.617
 Vibration     9          0.922              1.106              0.513

 Optimization completed.
    -- Stationary point found.
 Normal termination of Gaussian 09 at Mon Jan 27 23:47:12 2020.
