 Gaussian 09, Revision D.01,
 Gaussian 09:  ES64L-G09RevD.01 24-Apr-2013

 -----------------------------
 # b3lyp 6-31G(2df,p) opt Freq
 -----------------------------

 -----
 titel
 -----
 Symbolic Z-matrix:
 Charge =  0 Multiplicity = 1

 SCF Done:  E(RB3LYP) =  -423.213401996     A.U. after   14 cycles
 Optimization completed.
    -- Stationary point found.
 Normal termination of Gaussian 09 at Tue Jan 28 09:15:47 2020.

 ----------------------------------------------------------------------
 #N Geom=AllCheck Guess=TCheck SCRF=Check GenChk RB3LYP/6-31G(2df,p) Fr
 eq
 ----------------------------------------------------------------------

 Structure from the checkpoint file:  "/scratch/puck/g09_e8a3095e-2a58-4a51-9c77-deedbc5199b5/Gau-57771.chk"
 -----
 titel
 -----
 Charge =  0 Multiplicity = 1

                         Standard orientation:
 ---------------------------------------------------------------------
 Center     Atomic      Atomic             Coordinates (Angstroms)
 Number     Number       Type             X           Y           Z
 ---------------------------------------------------------------------
      1          6           0       -2.861829   -0.073223   -0.000235
      2          6           0       -1.606063    0.802834    0.000332
      3          6           0       -0.304436    0.034831    0.000131
      4          6           0        0.131358   -1.037179    1.072007
      5          6           0        1.204327   -1.316986   -0.000050
      6          6           0        0.131084   -1.037203   -1.071843
      7          8           0        1.978679   -0.077337   -0.000160
      8          6           0        0.980172    0.865290   -0.000052
      9          8           0        1.159438    2.046038   -0.000120
     10          1           0       -2.903913   -0.716670   -0.885421
     11          1           0       -2.904004   -0.717705    0.884196
     12          1           0       -3.763300    0.546096    0.000085
     13          1           0       -1.611773    1.467205   -0.872342
     14          1           0       -1.611987    1.466347    0.873661
     15          1           0        0.476090   -0.685714    2.047183
     16          1           0       -0.596240   -1.843994    1.178450
     17          1           0        1.883487   -2.165581   -0.000128
     18          1           0        0.475573   -0.685768   -2.047114
     19          1           0       -0.596546   -1.844016   -1.178078
 ---------------------------------------------------------------------

 SCF Done:  E(RB3LYP) =  -423.213401996     A.U. after    1 cycles

 The electronic state is 1-A.
 Alpha  occ. eigenvalues --  -19.17395 -19.12542 -10.29784 -10.25972 -10.22058
 Alpha  occ. eigenvalues --  -10.20726 -10.20726 -10.19188 -10.18480  -1.10035
 Alpha  occ. eigenvalues --   -1.02399  -0.86715  -0.77515  -0.70124  -0.68852
 Alpha  occ. eigenvalues --   -0.63632  -0.59003  -0.52429  -0.50991  -0.49298
 Alpha  occ. eigenvalues --   -0.46887  -0.45742  -0.43372  -0.41695  -0.40037
 Alpha  occ. eigenvalues --   -0.38915  -0.38500  -0.37554  -0.35629  -0.35319
 Alpha  occ. eigenvalues --   -0.32789  -0.32316  -0.28564  -0.25969
 Alpha virt. eigenvalues --    0.01529   0.07715   0.09368   0.10572   0.12037
 Alpha virt. eigenvalues --    0.13148   0.13412   0.13711   0.14754   0.16650
 Alpha virt. eigenvalues --    0.17410   0.17487   0.19713   0.20757   0.20871

 Mulliken charges:
               1
     1  C   -0.398315
     2  C   -0.284986
     3  C    0.141301
     4  C   -0.276387
     5  C    0.096102
     6  C   -0.276390
     7  O   -0.250542
     8  C    0.455214
     9  O   -0.362843
    10  H    0.117797
    11  H    0.117782
    12  H    0.121872
    13  H    0.117328
    14  H    0.117309
    15  H    0.119082
    16  H    0.113686
    17  H    0.099217
    18  H    0.119084
    19  H    0.113689
 Sum of Mulliken charges =   0.00000

 Dipole moment (field-independent basis, Debye):
    X=             -2.3903    Y=             -3.4783    Z=              0.0004  Tot=              4.2204
 Quadrupole moment (field-independent basis, Debye-Ang):
   XX=            -56.8879   YY=            -56.8056   ZZ=            -51.0774
   XY=             -4.9642   XZ=              0.0005   YZ=              0.0004

  Exact polarizability:  78.117  -0.989  79.602   0.000   0.000  65.344
 Approx polarizability: 105.658   0.503 126.178  -0.001  -0.001  99.814

                      1                      2                      3
                      A                      A                      A
 Frequencies --     65.3683               167.1747               174.3213
 Red. masses --      2.0365                 3.6447                 4.0387
 Frc consts  --      0.0051                 0.0600                 0.0723
 IR Inten    --      0.8034                 3.6178                 0.2849

                      4                      5                      6
                      A                      A                      A
 Frequencies --    218.3255               321.1763               327.2816
 Red. masses --      1.2369                 3.9266                 2.0175
 Frc consts  --      0.0347                 0.2386                 0.1273
 IR Inten    --      0.1925                 2.8593                 0.0440

                      7                      8                      9
                      A                      A                      A
 Frequencies --    469.1538               471.5546               572.4151
 Red. masses --      2.9593                 2.2180                 3.5676
 Frc consts  --      0.3838                 0.2906                 0.6887
 IR Inten    --      2.6321                 1.8524                 1.2515

                     10                     11                     12
                      A                      A                      A
 Frequencies --    591.6660               664.3615               750.8392
 Red. masses --      3.8671                 4.1442                 2.7557
 Frc consts  --      0.7976                 1.0777                 0.9153
 IR Inten    --      1.1503                 2.3442                 0.2079

                     13                     14                     15
                      A                      A                      A
 Frequencies --    765.1781               799.3979               867.9985
 Red. masses --      1.7325                 3.6805                 2.1243
 Frc consts  --      0.5977                 1.3857                 0.9430
 IR Inten    --      7.9379                 3.1921                 4.3516

                     16                     17                     18
                      A                      A                      A
 Frequencies --    891.6721               911.3918               928.4700
 Red. masses --      2.1782                 5.5178                 2.4401
 Frc consts  --      1.0204                 2.7004                 1.2394
 IR Inten    --      0.0910                47.4486                 8.4316

                     19                     20                     21
                      A                      A                      A
 Frequencies --    966.5764               986.1548               989.7527
 Red. masses --      3.1421                 1.9689                 1.5379
 Frc consts  --      1.7296                 1.1281                 0.8876
 IR Inten    --     19.1279                13.5511                 0.8986

                     22                     23                     24
                      A                      A                      A
 Frequencies --   1050.8526              1057.6981              1086.2004
 Red. masses --      1.0414                 2.0186                 2.9446
 Frc consts  --      0.6776                 1.3305                 2.0469
 IR Inten    --      1.4949                43.7816                52.4812

                     25                     26                     27
                      A                      A                      A
 Frequencies --   1122.3691              1125.0988              1194.3199
 Red. masses --      1.6165                 1.6970                 1.6352
 Frc consts  --      1.1997                 1.2657                 1.3743
 IR Inten    --     30.2654                 0.5486                 0.4014

                     28                     29                     30
                      A                      A                      A
 Frequencies --   1214.5677              1234.5465              1240.2127
 Red. masses --      1.8936                 2.0527                 1.5866
 Frc consts  --      1.6459                 1.8433                 1.4379
 IR Inten    --      5.6013                 8.4688                 0.0097

                     31                     32                     33
                      A                      A                      A
 Frequencies --   1298.0550              1307.1456              1346.0839
 Red. masses --      1.9264                 1.2016                 1.6911
 Frc consts  --      1.9125                 1.2096                 1.8054
 IR Inten    --     28.3205                 0.0022                18.3781

                     34                     35                     36
                      A                      A                      A
 Frequencies --   1391.7767              1414.2844              1476.1935
 Red. masses --      2.1141                 1.2428                 1.1008
 Frc consts  --      2.4128                 1.4646                 1.4134
 IR Inten    --      4.0715                 2.8797                 1.6642

                     37                     38                     39
                      A                      A                      A
 Frequencies --   1478.2138              1501.4377              1506.2837
 Red. masses --      1.0690                 1.0391                 1.0904
 Frc consts  --      1.3763                 1.3801                 1.4577
 IR Inten    --      2.4905                 6.3675                 1.8055

                     40                     41                     42
                      A                      A                      A
 Frequencies --   1511.7876              1904.7405              3032.5127
 Red. masses --      1.1285                12.9088                 1.0566
 Frc consts  --      1.5197                27.5935                 5.7251
 IR Inten    --      3.2705               349.5185                 8.8693

                     43                     44                     45
                      A                      A                      A
 Frequencies --   3036.3999              3062.8156              3067.5772
 Red. masses --      1.0395                 1.1000                 1.0565
 Frc consts  --      5.6464                 6.0795                 5.8574
 IR Inten    --     26.2555                 7.5658                23.7429

                     46                     47                     48
                      A                      A                      A
 Frequencies --   3072.7076              3102.5344              3109.9001
 Red. masses --      1.0571                 1.1018                 1.1005
 Frc consts  --      5.8806                 6.2485                 6.2711
 IR Inten    --      7.1566                41.1316                29.0513

                     49                     50                     51
                      A                      A                      A
 Frequencies --   3134.9593              3139.3136              3159.3345
 Red. masses --      1.1112                 1.1100                 1.0928
 Frc consts  --      6.4343                 6.4455                 6.4266
 IR Inten    --      8.8845                25.7049                33.3544

 - Thermochemistry -
 -------------------
 Temperature   298.150 Kelvin.  Pressure   1.00000 Atm.
 Atom     1 has atomic number  6 and mass  12.00000

 Molecular mass:   126.06808 amu.
 Principal axes and moments of inertia in atomic units:
                           1         2         3
     Eigenvalues --   679.413611164.887411544.78625
           X            0.99941  -0.03422   0.00001
           Y            0.03422   0.99941   0.00001
           Z           -0.00001  -0.00001   1.00000
 This molecule is an asymmetric top.
 Rotational symmetry number  1.
 Warning -- assumption of classical behavior for rotation
           may cause significant error
 Rotational temperatures (Kelvin)      0.12748     0.07435     0.05607
 Rotational constants (GHZ):           2.65632     1.54928     1.16828
 Zero-point vibrational energy     420368.7 (Joules/Mol)
                                  100.47052 (Kcal/Mol)
 Warning -- explicit consideration of  10 degrees of freedom as
           vibrations may cause significant error
 Vibrational temperatures:     94.05   240.53   250.81   314.12   462.10
          (Kelvin)            470.88   675.01   678.46   823.58   851.27
                              955.87  1080.29  1100.92  1150.15  1248.85
                             1282.92  1311.29  1335.86  1390.69  1418.85
                             1424.03  1511.94  1521.79  1562.80  1614.84
                             1618.76  1718.36  1747.49  1776.23  1784.39
                             1867.61  1880.69  1936.71  2002.45  2034.84
                             2123.91  2126.82  2160.23  2167.20  2175.12
                             2740.49  4363.10  4368.70  4406.70  4413.55
                             4420.94  4463.85  4474.45  4510.50  4516.77
                             4545.57

 Zero-point correction=                           0.160110 (Hartree/Particle)
 Thermal correction to Energy=                    0.168101
 Thermal correction to Enthalpy=                  0.169045
 Thermal correction to Gibbs Free Energy=         0.127375
 Sum of electronic and zero-point Energies=           -423.053292
 Sum of electronic and thermal Energies=              -423.045301
 Sum of electronic and thermal Enthalpies=            -423.044357
 Sum of electronic and thermal Free Energies=         -423.086027

                     E (Thermal)             CV                S
                      KCal/Mol        Cal/Mol-Kelvin    Cal/Mol-Kelvin
 Total                  105.485             30.978             87.701
 Electronic               0.000              0.000              0.000
 Translational            0.889              2.981             40.409
 Rotational               0.889              2.981             28.593
 Vibrational            103.707             25.017             18.699
 Vibration     1          0.597              1.971              4.288
 Vibration     2          0.624              1.883              2.467
 Vibration     3          0.627              1.874              2.388
 Vibration     4          0.646              1.813              1.973
 Vibration     5          0.707              1.633              1.304
 Vibration     6          0.711              1.621              1.273
 Vibration     7          0.826              1.318              0.740
 Vibration     8          0.828              1.313              0.733
 Vibration     9          0.929              1.091              0.500
 Vibration    10          0.949              1.050              0.464

 Optimization completed.
    -- Stationary point found.
 Normal termination of Gaussian 09 at Tue Jan 28 10:02:56 2020.
