 Gaussian 09, Revision D.01,
 Gaussian 09:  ES64L-G09RevD.01 24-Apr-2013

 -----------------------------
 # b3lyp 6-31G(2df,p) opt Freq
 -----------------------------

 -----
 titel
 -----
 Symbolic Z-matrix:
 Charge =  0 Multiplicity = 1

 SCF Done:  E(RB3LYP) =  -423.199101367     A.U. after   14 cycles
 Optimization completed.
    -- Stationary point found.
 Normal termination of Gaussian 09 at Tue Jan 28 13:24:13 2020.

 ----------------------------------------------------------------------
 #N Geom=AllCheck Guess=TCheck SCRF=Check GenChk RB3LYP/6-31G(2df,p) Fr
 eq
 ----------------------------------------------------------------------

 Structure from the checkpoint file:  "/scratch/puck/g09_720722d7-3207-4dbe-9e3b-276b79d8fe7a/Gau-7961.chk"
 -----
 titel
 -----
 Charge =  0 Multiplicity = 1

                         Standard orientation:
 ---------------------------------------------------------------------
 Center     Atomic      Atomic             Coordinates (Angstroms)
 Number     Number       Type             X           Y           Z
 ---------------------------------------------------------------------
      1          6           0       -3.079417   -0.054627   -0.408355
      2          6           0       -1.776382   -0.826757   -0.176931
      3          6           0       -0.721840   -0.062210    0.643230
      4          6           0        0.539578   -0.920614    0.923604
      5          6           0        1.560563   -0.530100   -0.152681
      6          8           0        2.442746   -1.217256   -0.598764
      7          6           0        1.200917    0.859923   -0.610555
      8          8           0        0.965824    1.729269    0.516712
      9          6           0       -0.162902    1.139454   -0.117167
     10          1           0       -3.806284   -0.672360   -0.944031
     11          1           0       -3.534177    0.244761    0.542304
     12          1           0       -2.924550    0.852294   -1.001206
     13          1           0       -2.003341   -1.761065    0.349942
     14          1           0       -1.341116   -1.122595   -1.141279
     15          1           0       -1.181105    0.278764    1.578554
     16          1           0        0.971335   -0.690562    1.902689
     17          1           0        0.351083   -1.995572    0.889031
     18          1           0        1.654343    1.306757   -1.489043
     19          1           0       -0.817842    1.833061   -0.637415
 ---------------------------------------------------------------------

 SCF Done:  E(RB3LYP) =  -423.199101367     A.U. after    1 cycles

 The electronic state is 1-A.
 Alpha  occ. eigenvalues --  -19.17009 -19.13648 -10.27329 -10.25240 -10.24578
 Alpha  occ. eigenvalues --  -10.20683 -10.19668 -10.19428 -10.18675  -1.09217
 Alpha  occ. eigenvalues --   -1.04472  -0.83136  -0.76308  -0.69947  -0.68709
 Alpha  occ. eigenvalues --   -0.63279  -0.57896  -0.55563  -0.51274  -0.47404
 Alpha  occ. eigenvalues --   -0.46389  -0.45327  -0.43337  -0.42260  -0.40867
 Alpha  occ. eigenvalues --   -0.39439  -0.38920  -0.37260  -0.35767  -0.34964
 Alpha  occ. eigenvalues --   -0.33956  -0.31141  -0.29153  -0.24106
 Alpha virt. eigenvalues --   -0.02851   0.07430   0.09703   0.10650   0.11163
 Alpha virt. eigenvalues --    0.12231   0.13893   0.14515   0.14761   0.16572
 Alpha virt. eigenvalues --    0.17240   0.18272   0.19633   0.20246   0.21615

 Mulliken charges:
               1
     1  C   -0.391989
     2  C   -0.183932
     3  C   -0.030560
     4  C   -0.361033
     5  C    0.419602
     6  O   -0.317087
     7  C   -0.087077
     8  O   -0.254472
     9  C    0.058412
    10  H    0.121072
    11  H    0.120905
    12  H    0.120230
    13  H    0.106309
    14  H    0.103198
    15  H    0.087471
    16  H    0.141709
    17  H    0.127256
    18  H    0.113502
    19  H    0.106483
 Sum of Mulliken charges =   0.00000

 Dipole moment (field-independent basis, Debye):
    X=             -3.1705    Y=              0.3453    Z=             -0.0172  Tot=              3.1893
 Quadrupole moment (field-independent basis, Debye-Ang):
   XX=            -58.8288   YY=            -56.4450   ZZ=            -51.8439
   XY=              2.8793   XZ=              1.0104   YZ=             -4.1181

  Exact polarizability:  87.219  -3.892  72.129  -4.224  -1.840  65.156
 Approx polarizability: 118.720  -9.873 110.587  -9.870   5.170 103.129

                      1                      2                      3
                      A                      A                      A
 Frequencies --     64.6222               103.3346               171.4849
 Red. masses --      4.0755                 1.8921                 2.8982
 Frc consts  --      0.0100                 0.0119                 0.0502
 IR Inten    --      2.0463                 0.8526                 3.0340

                      4                      5                      6
                      A                      A                      A
 Frequencies --    214.5906               244.6127               316.0567
 Red. masses --      2.9608                 1.3230                 2.6378
 Frc consts  --      0.0803                 0.0466                 0.1552
 IR Inten    --      1.6938                 0.1808                 6.2014

                      7                      8                      9
                      A                      A                      A
 Frequencies --    380.0476               457.8289               462.6539
 Red. masses --      3.3201                 4.9068                 4.0829
 Frc consts  --      0.2825                 0.6060                 0.5149
 IR Inten    --      3.9576                 5.6273                 2.2801

                     10                     11                     12
                      A                      A                      A
 Frequencies --    547.1953               654.8165               687.7599
 Red. masses --      3.2403                 3.6258                 3.2289
 Frc consts  --      0.5716                 0.9160                 0.8999
 IR Inten    --      8.7382                 0.8508                 2.5527

                     13                     14                     15
                      A                      A                      A
 Frequencies --    776.2290               805.4197               829.7713
 Red. masses --      1.6713                 3.7714                 1.7513
 Frc consts  --      0.5933                 1.4415                 0.7105
 IR Inten    --      1.5616                 9.2442                 1.5743

                     16                     17                     18
                      A                      A                      A
 Frequencies --    851.7867               878.9022               947.2531
 Red. masses --      2.8168                 4.5621                 2.3816
 Frc consts  --      1.2041                 2.0763                 1.2591
 IR Inten    --     18.4825                16.8987                 3.7955

                     19                     20                     21
                      A                      A                      A
 Frequencies --    960.0576               999.7658              1022.8099
 Red. masses --      1.6248                 1.9542                 1.8231
 Frc consts  --      0.8824                 1.1509                 1.1237
 IR Inten    --      4.5821                10.3964                 5.3246

                     22                     23                     24
                      A                      A                      A
 Frequencies --   1061.9090              1087.0650              1104.7482
 Red. masses --      1.8907                 1.4543                 1.6392
 Frc consts  --      1.2562                 1.0125                 1.1787
 IR Inten    --      0.5866                 0.7338                 0.6348

                     25                     26                     27
                      A                      A                      A
 Frequencies --   1144.9316              1182.4942              1202.5239
 Red. masses --      1.6932                 2.8861                 1.4648
 Frc consts  --      1.3078                 2.3777                 1.2480
 IR Inten    --      1.5462                36.7937                 0.5352

                     28                     29                     30
                      A                      A                      A
 Frequencies --   1236.2127              1248.5127              1281.6671
 Red. masses --      1.6010                 1.4184                 1.3712
 Frc consts  --      1.4416                 1.3027                 1.3271
 IR Inten    --      5.8516                 1.3831                 2.9289

                     31                     32                     33
                      A                      A                      A
 Frequencies --   1309.7762              1318.5223              1364.9046
 Red. masses --      1.3080                 1.5895                 1.4448
 Frc consts  --      1.3221                 1.6281                 1.5859
 IR Inten    --      0.6870                 5.1205                 5.4471

                     34                     35                     36
                      A                      A                      A
 Frequencies --   1382.7122              1404.6904              1417.8397
 Red. masses --      1.5076                 2.8118                 1.2421
 Frc consts  --      1.6982                 3.2689                 1.4712
 IR Inten    --      0.9148                10.5474                 2.9668

                     37                     38                     39
                      A                      A                      A
 Frequencies --   1451.2346              1488.2932              1502.0359
 Red. masses --      1.1160                 1.0623                 1.0470
 Frc consts  --      1.3848                 1.3864                 1.3917
 IR Inten    --      9.0324                 0.5528                 4.5095

                     40                     41                     42
                      A                      A                      A
 Frequencies --   1507.2176              1846.4673              3016.7617
 Red. masses --      1.0632                12.2712                 1.0641
 Frc consts  --      1.4230                24.6502                 5.7057
 IR Inten    --      4.5635               235.6453                11.3860

                     43                     44                     45
                      A                      A                      A
 Frequencies --   3035.7836              3038.3663              3057.3361
 Red. masses --      1.0572                 1.0599                 1.0963
 Frc consts  --      5.7407                 5.7647                 6.0376
 IR Inten    --      5.9537                40.7577                16.8403

                     46                     47                     48
                      A                      A                      A
 Frequencies --   3065.7220              3103.5090              3108.6681
 Red. masses --      1.0658                 1.1012                 1.1009
 Frc consts  --      5.9017                 6.2494                 6.2682
 IR Inten    --      8.8474                36.0914                31.1623

                     49                     50                     51
                      A                      A                      A
 Frequencies --   3119.8174              3154.6815              3182.6149
 Red. masses --      1.1009                 1.0891                 1.0946
 Frc consts  --      6.3135                 6.3861                 6.5322
 IR Inten    --      7.6703                18.0106                12.3079

 - Thermochemistry -
 -------------------
 Temperature   298.150 Kelvin.  Pressure   1.00000 Atm.
 Atom     1 has atomic number  6 and mass  12.00000

 Molecular mass:   126.06808 amu.
 Principal axes and moments of inertia in atomic units:
                           1         2         3
     Eigenvalues --   638.365321465.748081779.84461
           X            0.99982   0.01531   0.01110
           Y           -0.01464   0.99821  -0.05802
           Z           -0.01197   0.05785   0.99825
 This molecule is an asymmetric top.
 Rotational symmetry number  1.
 Warning -- assumption of classical behavior for rotation
           may cause significant error
 Rotational temperatures (Kelvin)      0.13568     0.05909     0.04866
 Rotational constants (GHZ):           2.82713     1.23128     1.01399
 Zero-point vibrational energy     417520.7 (Joules/Mol)
                                   99.78985 (Kcal/Mol)
 Warning -- explicit consideration of  10 degrees of freedom as
           vibrations may cause significant error
 Vibrational temperatures:     92.98   148.68   246.73   308.75   351.94
          (Kelvin)            454.73   546.80   658.71   665.65   787.29
                              942.13   989.53  1116.82  1158.82  1193.85
                             1225.53  1264.54  1362.88  1381.31  1438.44
                             1471.59  1527.85  1564.04  1589.48  1647.30
                             1701.34  1730.16  1778.63  1796.33  1844.03
                             1884.47  1897.06  1963.79  1989.41  2021.03
                             2039.95  2088.00  2141.32  2161.09  2168.55
                             2656.65  4340.44  4367.81  4371.53  4398.82
                             4410.88  4465.25  4472.67  4488.72  4538.88
                             4579.07

 Zero-point correction=                           0.159025 (Hartree/Particle)
 Thermal correction to Energy=                    0.167475
 Thermal correction to Enthalpy=                  0.168419
 Thermal correction to Gibbs Free Energy=         0.125518
 Sum of electronic and zero-point Energies=           -423.040076
 Sum of electronic and thermal Energies=              -423.031626
 Sum of electronic and thermal Enthalpies=            -423.030682
 Sum of electronic and thermal Free Energies=         -423.073583

                     E (Thermal)             CV                S
                      KCal/Mol        Cal/Mol-Kelvin    Cal/Mol-Kelvin
 Total                  105.092             31.837             90.293
 Electronic               0.000              0.000              0.000
 Translational            0.889              2.981             40.409
 Rotational               0.889              2.981             28.900
 Vibrational            103.315             25.875             20.984
 Vibration     1          0.597              1.971              4.311
 Vibration     2          0.605              1.947              3.390
 Vibration     3          0.626              1.878              2.419
 Vibration     4          0.645              1.819              2.004
 Vibration     5          0.660              1.772              1.769
 Vibration     6          0.703              1.643              1.330
 Vibration     7          0.750              1.513              1.039
 Vibration     8          0.816              1.344              0.772
 Vibration     9          0.820              1.333              0.758
 Vibration    10          0.902              1.146              0.550

 Optimization completed.
    -- Stationary point found.
 Normal termination of Gaussian 09 at Tue Jan 28 14:13:24 2020.
