 Gaussian 09, Revision D.01,
 Gaussian 09:  ES64L-G09RevD.01 24-Apr-2013

 -----------------------------
 # b3lyp 6-31G(2df,p) opt Freq
 -----------------------------

 -----
 titel
 -----
 Symbolic Z-matrix:
 Charge =  0 Multiplicity = 1

 SCF Done:  E(RB3LYP) =  -423.121910813     A.U. after   14 cycles
 Optimization completed.
    -- Stationary point found.
 Normal termination of Gaussian 09 at Mon Jan 27 17:27:17 2020.

 ----------------------------------------------------------------------
 #N Geom=AllCheck Guess=TCheck SCRF=Check GenChk RB3LYP/6-31G(2df,p) Fr
 eq
 ----------------------------------------------------------------------

 Structure from the checkpoint file:  "/scratch/puck/g09_7f5a2fd4-8fd0-4d95-ba9c-e4267682b312/Gau-39766.chk"
 -----
 titel
 -----
 Charge =  0 Multiplicity = 1

                         Standard orientation:
 ---------------------------------------------------------------------
 Center     Atomic      Atomic             Coordinates (Angstroms)
 Number     Number       Type             X           Y           Z
 ---------------------------------------------------------------------
      1          6           0        2.593168    0.301394   -0.583900
      2          6           0        1.197451    0.094762   -0.094715
      3          8           0        1.005673   -0.308265    1.266225
      4          6           0        0.309853    0.855585    0.815692
      5          6           0       -0.970247    0.400809    0.059421
      6          6           0       -1.920585    1.482535   -0.394958
      7          6           0       -1.504283   -0.998494    0.462318
      8          8           0       -0.611244   -1.659830   -0.471894
      9          6           0       -0.052981   -0.408642   -0.891230
     10          1           0        3.178133    0.859726    0.152114
     11          1           0        3.087612   -0.661458   -0.754902
     12          1           0        2.597323    0.854490   -1.528760
     13          1           0        0.469905    1.776823    1.368018
     14          1           0       -1.380664    2.315909   -0.858863
     15          1           0       -2.638198    1.099135   -1.127297
     16          1           0       -2.488236    1.889093    0.450659
     17          1           0       -1.322395   -1.311769    1.494020
     18          1           0       -2.553195   -1.171606    0.191469
     19          1           0       -0.019968   -0.273269   -1.976885
 ---------------------------------------------------------------------

 SCF Done:  E(RB3LYP) =  -423.121910813     A.U. after    1 cycles

 The electronic state is 1-A.
 Alpha  occ. eigenvalues --  -19.15269 -19.12945 -10.24090 -10.23696 -10.23198
 Alpha  occ. eigenvalues --  -10.22364 -10.19996 -10.18871 -10.18807  -1.08551
 Alpha  occ. eigenvalues --   -1.02691  -0.80268  -0.75475  -0.70887  -0.67827
 Alpha  occ. eigenvalues --   -0.62731  -0.57560  -0.53599  -0.50063  -0.47731
 Alpha  occ. eigenvalues --   -0.46187  -0.44638  -0.42880  -0.42045  -0.40592
 Alpha  occ. eigenvalues --   -0.39919  -0.39318  -0.37401  -0.34543  -0.33603
 Alpha  occ. eigenvalues --   -0.30390  -0.26615  -0.25718  -0.23825
 Alpha virt. eigenvalues --    0.05849   0.08786   0.10194   0.11338   0.12195
 Alpha virt. eigenvalues --    0.12933   0.14325   0.14826   0.15197   0.16016
 Alpha virt. eigenvalues --    0.16769   0.17595   0.17897   0.19689   0.21643

 Mulliken charges:
               1
     1  C   -0.511856
     2  C    0.414246
     3  O   -0.269791
     4  C   -0.122878
     5  C    0.259274
     6  C   -0.498845
     7  C   -0.120223
     8  O   -0.286928
     9  C   -0.012481
    10  H    0.134732
    11  H    0.139077
    12  H    0.124123
    13  H    0.098142
    14  H    0.120017
    15  H    0.126636
    16  H    0.124031
    17  H    0.114432
    18  H    0.094583
    19  H    0.073708
 Sum of Mulliken charges =   0.00000

 Dipole moment (field-independent basis, Debye):
    X=             -0.3519    Y=              2.7288    Z=             -0.8707  Tot=              2.8858
 Quadrupole moment (field-independent basis, Debye-Ang):
   XX=            -49.4638   YY=            -55.9678   ZZ=            -53.3171
   XY=              0.2338   XZ=             -2.9635   YZ=              0.1858

  Exact polarizability:  86.611   0.156  69.351  -3.567   1.102  68.673
 Approx polarizability: 112.231  -1.953 105.366  -4.936   2.580 109.094

                      1                      2                      3
                      A                      A                      A
 Frequencies --    142.2834               188.3197               204.9686
 Red. masses --      2.8575                 1.0476                 1.0399
 Frc consts  --      0.0341                 0.0219                 0.0257
 IR Inten    --      1.3038                 0.0815                 0.1101

                      4                      5                      6
                      A                      A                      A
 Frequencies --    237.5738               249.7170               284.8599
 Red. masses --      2.9760                 2.7013                 4.6287
 Frc consts  --      0.0990                 0.0992                 0.2213
 IR Inten    --      1.8400                 1.0596                 0.1754

                      7                      8                      9
                      A                      A                      A
 Frequencies --    312.8706               355.1088               505.8455
 Red. masses --      2.3458                 3.0932                 2.6609
 Frc consts  --      0.1353                 0.2298                 0.4012
 IR Inten    --      1.2359                 2.6728                 0.8244

                     10                     11                     12
                      A                      A                      A
 Frequencies --    551.9535               581.6135               694.0246
 Red. masses --      4.8028                 3.8124                 5.2501
 Frc consts  --      0.8621                 0.7598                 1.4899
 IR Inten    --     12.3618                 2.1834                11.9678

                     13                     14                     15
                      A                      A                      A
 Frequencies --    755.1728               828.8988               845.7928
 Red. masses --      5.4358                 2.8078                 2.7362
 Frc consts  --      1.8264                 1.1366                 1.1532
 IR Inten    --      5.3082                 4.5213                11.3520

                     16                     17                     18
                      A                      A                      A
 Frequencies --    863.9257               895.1591               925.3285
 Red. masses --      2.0326                 2.3698                 1.9500
 Frc consts  --      0.8938                 1.1188                 0.9837
 IR Inten    --      6.0692                18.4724                 3.6229

                     19                     20                     21
                      A                      A                      A
 Frequencies --    970.3745               990.4274              1002.1314
 Red. masses --      1.4449                 3.3439                 2.6408
 Frc consts  --      0.8016                 1.9326                 1.5626
 IR Inten    --      2.4395                 8.9873                43.4735

                     22                     23                     24
                      A                      A                      A
 Frequencies --   1021.8231              1039.6505              1097.2457
 Red. masses --      2.7881                 2.6356                 1.7219
 Frc consts  --      1.7152                 1.6785                 1.2214
 IR Inten    --     40.7786                18.8790                 7.5924

                     25                     26                     27
                      A                      A                      A
 Frequencies --   1140.4261              1153.6214              1171.6573
 Red. masses --      1.6791                 1.4933                 1.9011
 Frc consts  --      1.2866                 1.1709                 1.5376
 IR Inten    --      0.0765                 2.6497                 0.5574

                     28                     29                     30
                      A                      A                      A
 Frequencies --   1200.8062              1221.1145              1236.4076
 Red. masses --      1.5777                 2.1014                 2.6160
 Frc consts  --      1.3404                 1.8462                 2.3562
 IR Inten    --      2.1124                15.2114                 4.6004

                     31                     32                     33
                      A                      A                      A
 Frequencies --   1282.5798              1307.2156              1375.0832
 Red. masses --      1.5485                 1.8362                 1.9534
 Frc consts  --      1.5008                 1.8487                 2.1762
 IR Inten    --      7.4734                 2.7356                 0.5112

                     34                     35                     36
                      A                      A                      A
 Frequencies --   1402.7843              1412.9633              1452.9132
 Red. masses --      1.2984                 1.2727                 3.2482
 Frc consts  --      1.5053                 1.4970                 4.0399
 IR Inten    --      2.0604                 1.3139                11.0504

                     37                     38                     39
                      A                      A                      A
 Frequencies --   1480.8225              1490.1182              1492.1000
 Red. masses --      1.0984                 1.0564                 1.0639
 Frc consts  --      1.4192                 1.3820                 1.3955
 IR Inten    --      6.5861                 0.7043                 4.6695

                     40                     41                     42
                      A                      A                      A
 Frequencies --   1494.1006              1504.5864              3019.9175
 Red. masses --      1.0726                 1.1433                 1.0518
 Frc consts  --      1.4107                 1.5250                 5.6515
 IR Inten    --      6.1796                 1.5388                42.3528

                     43                     44                     45
                      A                      A                      A
 Frequencies --   3024.1110              3033.6577              3063.8076
 Red. masses --      1.0448                 1.0359                 1.0888
 Frc consts  --      5.6297                 5.6169                 6.0215
 IR Inten    --     58.3540                18.2852                39.3525

                     46                     47                     48
                      A                      A                      A
 Frequencies --   3083.9660              3092.0919              3097.6214
 Red. masses --      1.1002                 1.1039                 1.1002
 Frc consts  --      6.1651                 6.2187                 6.2200
 IR Inten    --     22.2778                20.1535                15.6550

                     49                     50                     51
                      A                      A                      A
 Frequencies --   3098.8375              3118.6440              3161.4447
 Red. masses --      1.1013                 1.1012                 1.0935
 Frc consts  --      6.2307                 6.3104                 6.4393
 IR Inten    --     24.3642                13.3286                19.9269

 - Thermochemistry -
 -------------------
 Temperature   298.150 Kelvin.  Pressure   1.00000 Atm.
 Atom     1 has atomic number  6 and mass  12.00000

 Molecular mass:   126.06808 amu.
 Principal axes and moments of inertia in atomic units:
                           1         2         3
     Eigenvalues --   659.293851152.864881323.47980
           X            0.99955  -0.01852  -0.02355
           Y            0.01737   0.99869  -0.04813
           Z            0.02441   0.04770   0.99856
 This molecule is an asymmetric top.
 Rotational symmetry number  1.
 Warning -- assumption of classical behavior for rotation
           may cause significant error
 Rotational temperatures (Kelvin)      0.13137     0.07513     0.06544
 Rotational constants (GHZ):           2.73739     1.56544     1.36363
 Zero-point vibrational energy     413659.5 (Joules/Mol)
                                   98.86699 (Kcal/Mol)
 Warning -- explicit consideration of  11 degrees of freedom as
           vibrations may cause significant error
 Vibrational temperatures:    204.71   270.95   294.90   341.82   359.29
          (Kelvin)            409.85   450.15   510.92   727.80   794.14
                              836.81   998.55  1086.52  1192.60  1216.91
                             1242.99  1287.93  1331.34  1396.15  1425.00
                             1441.84  1470.17  1495.82  1578.69  1640.82
                             1659.80  1685.75  1727.69  1756.91  1778.91
                             1845.34  1880.79  1978.44  2018.29  2032.94
                             2090.42  2130.57  2143.95  2146.80  2149.67
                             2164.76  4344.98  4351.02  4364.75  4408.13
                             4437.13  4448.82  4456.78  4458.53  4487.03
                             4548.61

 Zero-point correction=                           0.157555 (Hartree/Particle)
 Thermal correction to Energy=                    0.165846
 Thermal correction to Enthalpy=                  0.166790
 Thermal correction to Gibbs Free Energy=         0.125240
 Sum of electronic and zero-point Energies=           -422.964356
 Sum of electronic and thermal Energies=              -422.956065
 Sum of electronic and thermal Enthalpies=            -422.955121
 Sum of electronic and thermal Free Energies=         -422.996671

                     E (Thermal)             CV                S
                      KCal/Mol        Cal/Mol-Kelvin    Cal/Mol-Kelvin
 Total                  104.070             32.271             87.450
 Electronic               0.000              0.000              0.000
 Translational            0.889              2.981             40.409
 Rotational               0.889              2.981             28.400
 Vibrational            102.292             26.309             18.642
 Vibration     1          0.616              1.911              2.773
 Vibration     2          0.633              1.856              2.244
 Vibration     3          0.640              1.833              2.088
 Vibration     4          0.656              1.783              1.821
 Vibration     5          0.663              1.763              1.733
 Vibration     6          0.683              1.702              1.504
 Vibration     7          0.701              1.649              1.347
 Vibration     8          0.731              1.565              1.143
 Vibration     9          0.861              1.237              0.644
 Vibration    10          0.907              1.135              0.540
 Vibration    11          0.938              1.071              0.482

 Normal termination of Gaussian 09 at Mon Jan 27 18:25:05 2020.
