 Gaussian 09, Revision D.01,
 Gaussian 09:  ES64L-G09RevD.01 24-Apr-2013

 -----------------------------
 # b3lyp 6-31G(2df,p) opt Freq
 -----------------------------

 -----
 titel
 -----
 Symbolic Z-matrix:
 Charge =  0 Multiplicity = 1

 SCF Done:  E(RB3LYP) =  -423.180743936     A.U. after   14 cycles
 Optimization completed.
    -- Stationary point found.
 Normal termination of Gaussian 09 at Mon Jan 27 16:12:13 2020.

 ----------------------------------------------------------------------
 #N Geom=AllCheck Guess=TCheck SCRF=Check GenChk RB3LYP/6-31G(2df,p) Fr
 eq
 ----------------------------------------------------------------------

 Structure from the checkpoint file:  "/scratch/puck/g09_1934818a-b4b5-4ef2-9d6f-430c88f7c7fd/Gau-165127.chk"
 -----
 titel
 -----
 Charge =  0 Multiplicity = 1

                         Standard orientation:
 ---------------------------------------------------------------------
 Center     Atomic      Atomic             Coordinates (Angstroms)
 Number     Number       Type             X           Y           Z
 ---------------------------------------------------------------------
      1          6           0       -1.992179   -0.377738   -0.963196
      2          6           0       -0.972234    0.089374    0.083927
      3          8           0       -1.630975    0.335641    1.339665
      4          6           0       -0.256176    1.333922   -0.385496
      5          6           0        1.060165    1.520793   -0.359471
      6          6           0        2.054965    0.509927    0.137212
      7          6           0        1.445691   -0.840856    0.425943
      8          8           0        0.803998   -1.501871   -0.674072
      9          6           0       -0.007561   -1.040279    0.404923
     10          1           0       -2.701260    0.425905   -1.193677
     11          1           0       -1.485628   -0.666751   -1.887965
     12          1           0       -2.556110   -1.234541   -0.582696
     13          1           0       -2.207477    1.098081    1.222881
     14          1           0       -0.902396    2.124738   -0.764887
     15          1           0        1.471651    2.463846   -0.711731
     16          1           0        2.870213    0.393658   -0.590357
     17          1           0        2.532348    0.883503    1.054778
     18          1           0        2.048289   -1.506649    1.044122
     19          1           0       -0.449838   -1.822801    1.021724
 ---------------------------------------------------------------------

 SCF Done:  E(RB3LYP) =  -423.180743936     A.U. after    1 cycles

 The electronic state is 1-A.
 Alpha  occ. eigenvalues --  -19.14566 -19.13576 -10.24213 -10.23503 -10.22980
 Alpha  occ. eigenvalues --  -10.19406 -10.18950 -10.18138 -10.17307  -1.06873
 Alpha  occ. eigenvalues --   -1.01716  -0.81234  -0.76562  -0.70926  -0.67421
 Alpha  occ. eigenvalues --   -0.61644  -0.59462  -0.52772  -0.51676  -0.47920
 Alpha  occ. eigenvalues --   -0.45775  -0.44830  -0.42934  -0.42155  -0.39843
 Alpha  occ. eigenvalues --   -0.38358  -0.38004  -0.36858  -0.35648  -0.31741
 Alpha  occ. eigenvalues --   -0.29759  -0.27083  -0.26253  -0.25097
 Alpha virt. eigenvalues --    0.01181   0.08045   0.09361   0.10785   0.12211
 Alpha virt. eigenvalues --    0.13278   0.13985   0.15889   0.16420   0.17506
 Alpha virt. eigenvalues --    0.18002   0.19149   0.19614   0.21192   0.22928

 Mulliken charges:
               1
     1  C   -0.426886
     2  C    0.292764
     3  O   -0.471590
     4  C   -0.089349
     5  C   -0.063410
     6  C   -0.308029
     7  C    0.049240
     8  O   -0.269793
     9  C    0.047563
    10  H    0.101086
    11  H    0.140511
    12  H    0.120644
    13  H    0.277337
    14  H    0.079935
    15  H    0.092786
    16  H    0.121951
    17  H    0.119416
    18  H    0.091239
    19  H    0.094583
 Sum of Mulliken charges =   0.00000

 Dipole moment (field-independent basis, Debye):
    X=             -0.0120    Y=              1.7133    Z=              0.2813  Tot=              1.7362
 Quadrupole moment (field-independent basis, Debye-Ang):
   XX=            -47.2365   YY=            -52.0037   ZZ=            -56.5530
   XY=             -0.9973   XZ=              2.5762   YZ=             -2.3991

  Exact polarizability:  96.409   2.436  72.399   2.323  -4.258  60.675
 Approx polarizability: 140.663   3.371 101.920  -0.589  -2.687  96.814

                      1                      2                      3
                      A                      A                      A
 Frequencies --     80.6510               171.5242               210.2910
 Red. masses --      3.0139                 1.1088                 2.8125
 Frc consts  --      0.0116                 0.0192                 0.0733
 IR Inten    --      1.0621                98.8544                10.9375

                      4                      5                      6
                      A                      A                      A
 Frequencies --    244.6625               259.1921               314.3898
 Red. masses --      1.2494                 2.0734                 4.0635
 Frc consts  --      0.0441                 0.0821                 0.2366
 IR Inten    --      1.9189                 1.7433                 2.6331

                      7                      8                      9
                      A                      A                      A
 Frequencies --    362.7516               392.2293               430.3647
 Red. masses --      2.6690                 3.1495                 4.2382
 Frc consts  --      0.2069                 0.2855                 0.4625
 IR Inten    --      3.0611                12.3234                 0.2368

                     10                     11                     12
                      A                      A                      A
 Frequencies --    528.2257               531.9778               576.4915
 Red. masses --      3.4338                 3.4312                 4.7080
 Frc consts  --      0.5645                 0.5721                 0.9219
 IR Inten    --      3.6006                 2.7284                 3.1523

                     13                     14                     15
                      A                      A                      A
 Frequencies --    706.2375               741.0096               803.1398
 Red. masses --      4.0849                 1.5834                 3.4266
 Frc consts  --      1.2004                 0.5123                 1.3023
 IR Inten    --      3.8285                18.2886                 5.6232

                     16                     17                     18
                      A                      A                      A
 Frequencies --    861.1415               905.6800               914.4756
 Red. masses --      3.0720                 2.5895                 2.8891
 Frc consts  --      1.3422                 1.2515                 1.4235
 IR Inten    --     15.4661                13.1712                15.7588

                     19                     20                     21
                      A                      A                      A
 Frequencies --    946.6474               951.7198               996.3074
 Red. masses --      2.2467                 2.7886                 1.5487
 Frc consts  --      1.1863                 1.4882                 0.9057
 IR Inten    --     18.0581                22.2699                 8.8104

                     22                     23                     24
                      A                      A                      A
 Frequencies --   1006.9857              1038.2555              1078.5358
 Red. masses --      1.3825                 2.1717                 1.3787
 Frc consts  --      0.8260                 1.3793                 0.9449
 IR Inten    --      0.5170                19.1788                16.6686

                     25                     26                     27
                      A                      A                      A
 Frequencies --   1113.5238              1122.9514              1153.7804
 Red. masses --      2.8966                 1.8050                 1.4668
 Frc consts  --      2.1161                 1.3411                 1.1505
 IR Inten    --     17.1132                95.1491                 3.0568

                     28                     29                     30
                      A                      A                      A
 Frequencies --   1195.9767              1216.6351              1240.2197
 Red. masses --      1.6231                 1.1632                 1.2395
 Frc consts  --      1.3679                 1.0145                 1.1233
 IR Inten    --      4.6082                12.7293                 2.9346

                     31                     32                     33
                      A                      A                      A
 Frequencies --   1285.4671              1347.8275              1380.2666
 Red. masses --      1.2891                 1.2688                 2.1405
 Frc consts  --      1.2550                 1.3581                 2.4026
 IR Inten    --      2.1162                 7.7307                 4.4647

                     34                     35                     36
                      A                      A                      A
 Frequencies --   1394.9749              1402.2204              1433.3438
 Red. masses --      1.2800                 1.8707                 1.4543
 Frc consts  --      1.4676                 2.1672                 1.7604
 IR Inten    --      8.1380                23.6425                 0.5672

                     37                     38                     39
                      A                      A                      A
 Frequencies --   1462.2874              1480.1710              1487.2018
 Red. masses --      1.1242                 2.2639                 1.0999
 Frc consts  --      1.4163                 2.9224                 1.4333
 IR Inten    --      5.0167                 4.4496                 1.8048

                     40                     41                     42
                      A                      A                      A
 Frequencies --   1498.9019              1733.7509              3006.6398
 Red. masses --      1.2580                 7.1175                 1.0608
 Frc consts  --      1.6653                12.6052                 5.6498
 IR Inten    --     12.7088                 4.6917                27.5498

                     43                     44                     45
                      A                      A                      A
 Frequencies --   3030.1466              3031.7291              3100.7427
 Red. masses --      1.0372                 1.0979                 1.0986
 Frc consts  --      5.6111                 5.9458                 6.2233
 IR Inten    --     19.4995                15.5953                22.5436

                     46                     47                     48
                      A                      A                      A
 Frequencies --   3103.0865              3116.4653              3125.5130
 Red. masses --      1.0856                 1.0915                 1.0952
 Frc consts  --      6.1588                 6.2457                 6.3034
 IR Inten    --     19.5112                41.4973                11.0094

                     49                     50                     51
                      A                      A                      A
 Frequencies --   3126.6073              3158.3131              3813.1188
 Red. masses --      1.0907                 1.0948                 1.0663
 Frc consts  --      6.2823                 6.4340                 9.1346
 IR Inten    --     19.5016                27.8156                19.3358

 - Thermochemistry -
 -------------------
 Temperature   298.150 Kelvin.  Pressure   1.00000 Atm.
 Atom     1 has atomic number  6 and mass  12.00000

 Molecular mass:   126.06808 amu.
 Principal axes and moments of inertia in atomic units:
                           1         2         3
     Eigenvalues --   714.479441112.699891355.39786
           X            0.99872   0.03273   0.03850
           Y           -0.03093   0.99844  -0.04650
           Z           -0.03997   0.04525   0.99818
 This molecule is an asymmetric top.
 Rotational symmetry number  1.
 Warning -- assumption of classical behavior for rotation
           may cause significant error
 Rotational temperatures (Kelvin)      0.12123     0.07784     0.06390
 Rotational constants (GHZ):           2.52595     1.62195     1.33152
 Zero-point vibrational energy     416388.7 (Joules/Mol)
                                   99.51928 (Kcal/Mol)
 Warning -- explicit consideration of  12 degrees of freedom as
           vibrations may cause significant error
 Vibrational temperatures:    116.04   246.78   302.56   352.01   372.92
          (Kelvin)            452.34   521.92   564.33   619.20   760.00
                              765.40   829.44  1016.12  1066.15  1155.54
                             1238.99  1303.07  1315.72  1362.01  1369.31
                             1433.46  1448.83  1493.82  1551.77  1602.11
                             1615.67  1660.03  1720.74  1750.46  1784.40
                             1849.50  1939.22  1985.89  2007.06  2017.48
                             2062.26  2103.90  2129.63  2139.75  2156.58
                             2494.48  4325.88  4359.70  4361.98  4461.27
                             4464.64  4483.89  4496.91  4498.48  4544.10
                             5486.22

 Zero-point correction=                           0.158594 (Hartree/Particle)
 Thermal correction to Energy=                    0.167105
 Thermal correction to Enthalpy=                  0.168049
 Thermal correction to Gibbs Free Energy=         0.125843
 Sum of electronic and zero-point Energies=           -423.022150
 Sum of electronic and thermal Energies=              -423.013639
 Sum of electronic and thermal Enthalpies=            -423.012695
 Sum of electronic and thermal Free Energies=         -423.054901

                     E (Thermal)             CV                S
                      KCal/Mol        Cal/Mol-Kelvin    Cal/Mol-Kelvin
 Total                  104.860             33.087             88.830
 Electronic               0.000              0.000              0.000
 Translational            0.889              2.981             40.409
 Rotational               0.889              2.981             28.468
 Vibrational            103.083             27.125             19.954
 Vibration     1          0.600              1.962              3.875
 Vibration     2          0.626              1.878              2.419
 Vibration     3          0.642              1.825              2.041
 Vibration     4          0.660              1.772              1.769
 Vibration     5          0.668              1.747              1.667
 Vibration     6          0.702              1.646              1.339
 Vibration     7          0.737              1.549              1.110
 Vibration     8          0.760              1.487              0.992
 Vibration     9          0.792              1.404              0.857
 Vibration    10          0.883              1.188              0.591
 Vibration    11          0.887              1.179              0.583
 Vibration    12          0.933              1.082              0.492

 Optimization completed.
    -- Stationary point found.
 Normal termination of Gaussian 09 at Mon Jan 27 16:56:16 2020.
