 Gaussian 09, Revision D.01,
 Gaussian 09:  ES64L-G09RevD.01 24-Apr-2013

 -----------------------------
 # b3lyp 6-31G(2df,p) opt Freq
 -----------------------------

 -----
 titel
 -----
 Symbolic Z-matrix:
 Charge =  0 Multiplicity = 1

 SCF Done:  E(RB3LYP) =  -423.133100395     A.U. after   14 cycles
 Optimization completed.
    -- Stationary point found.
 Normal termination of Gaussian 09 at Mon Jan 27 18:11:05 2020.

 ----------------------------------------------------------------------
 #N Geom=AllCheck Guess=TCheck SCRF=Check GenChk RB3LYP/6-31G(2df,p) Fr
 eq
 ----------------------------------------------------------------------

 Structure from the checkpoint file:  "/scratch/puck/g09_2307807c-f62c-4005-9bd9-a12cb31eaef3/Gau-181886.chk"
 -----
 titel
 -----
 Charge =  0 Multiplicity = 1

                         Standard orientation:
 ---------------------------------------------------------------------
 Center     Atomic      Atomic             Coordinates (Angstroms)
 Number     Number       Type             X           Y           Z
 ---------------------------------------------------------------------
      1          6           0       -1.865157    1.442917   -0.267760
      2          6           0       -1.002819    0.245057   -0.031449
      3          8           0       -1.646557   -1.071395    0.194940
      4          6           0       -0.207040   -1.352945    0.289920
      5          6           0       -0.018365   -0.062161    1.137531
      6          6           0        1.340082    0.635725    1.094824
      7          6           0        2.087377    0.186367   -0.164153
      8          8           0        1.222802    0.103539   -1.292995
      9          6           0       -0.009950   -0.484845   -0.990981
     10          1           0       -1.240099    2.320162   -0.463731
     11          1           0       -2.512187    1.283252   -1.135777
     12          1           0       -2.494756    1.651935    0.602703
     13          1           0        0.084104   -2.381950    0.502204
     14          1           0       -0.497403   -0.095126    2.118939
     15          1           0        1.196194    1.723287    1.099437
     16          1           0        1.938352    0.389173    1.978933
     17          1           0        2.890980    0.874293   -0.438465
     18          1           0        2.536933   -0.802577    0.017155
     19          1           0       -0.456851   -0.880293   -1.904552
 ---------------------------------------------------------------------

 SCF Done:  E(RB3LYP) =  -423.133100395     A.U. after    1 cycles

 The electronic state is 1-A.
 Alpha  occ. eigenvalues --  -19.14494 -19.13094 -10.24149 -10.24095 -10.23518
 Alpha  occ. eigenvalues --  -10.23348 -10.19631 -10.19078 -10.18359  -1.06419
 Alpha  occ. eigenvalues --   -1.03032  -0.80160  -0.76278  -0.73982  -0.64432
 Alpha  occ. eigenvalues --   -0.64002  -0.61208  -0.51897  -0.49576  -0.47798
 Alpha  occ. eigenvalues --   -0.46955  -0.45376  -0.43099  -0.42761  -0.39501
 Alpha  occ. eigenvalues --   -0.38427  -0.37784  -0.37366  -0.34446  -0.33285
 Alpha  occ. eigenvalues --   -0.30435  -0.30256  -0.25079  -0.23071
 Alpha virt. eigenvalues --    0.07495   0.10331   0.10500   0.12379   0.13207
 Alpha virt. eigenvalues --    0.13782   0.14089   0.14271   0.15207   0.16179
 Alpha virt. eigenvalues --    0.16552   0.17986   0.18860   0.19969   0.20993

 Mulliken charges:
               1
     1  C   -0.527652
     2  C    0.387980
     3  O   -0.341261
     4  C   -0.019297
     5  C   -0.056824
     6  C   -0.268313
     7  C   -0.068205
     8  O   -0.269271
     9  C    0.083113
    10  H    0.131550
    11  H    0.135648
    12  H    0.131352
    13  H    0.089540
    14  H    0.076696
    15  H    0.108060
    16  H    0.106075
    17  H    0.110471
    18  H    0.097271
    19  H    0.093066
 Sum of Mulliken charges =   0.00000

 Dipole moment (field-independent basis, Debye):
    X=              1.3377    Y=              0.9439    Z=              1.1338  Tot=              1.9914
 Quadrupole moment (field-independent basis, Debye-Ang):
   XX=            -54.3942   YY=            -51.7031   ZZ=            -54.1167
   XY=             -3.4644   XZ=              3.2901   YZ=              0.5620

  Exact polarizability:  80.983  -1.488  72.869   2.881   0.462  69.378
 Approx polarizability: 113.490   1.311 109.663   2.007  -1.137 105.338

                      1                      2                      3
                      A                      A                      A
 Frequencies --    167.7887               177.3684               200.7857
 Red. masses --      1.3141                 2.1899                 1.9827
 Frc consts  --      0.0218                 0.0406                 0.0471
 IR Inten    --      0.4067                 1.2958                 0.9660

                      4                      5                      6
                      A                      A                      A
 Frequencies --    256.1958               349.9852               443.6807
 Red. masses --      2.3026                 2.3102                 6.2486
 Frc consts  --      0.0890                 0.1667                 0.7247
 IR Inten    --      0.6537                 0.3629                 6.2317

                      7                      8                      9
                      A                      A                      A
 Frequencies --    451.3172               496.1612               577.9125
 Red. masses --      3.6186                 3.8695                 6.5379
 Frc consts  --      0.4343                 0.5612                 1.2865
 IR Inten    --      5.2518                 3.1092                 1.6773

                     10                     11                     12
                      A                      A                      A
 Frequencies --    651.8386               697.2626               741.7372
 Red. masses --      3.1341                 2.6689                 4.2500
 Frc consts  --      0.7846                 0.7645                 1.3776
 IR Inten    --      1.1157                 1.5151                19.3892

                     13                     14                     15
                      A                      A                      A
 Frequencies --    809.4347               857.0146               876.8360
 Red. masses --      2.4545                 2.8274                 2.4406
 Frc consts  --      0.9475                 1.2235                 1.1056
 IR Inten    --      4.3050                 3.1162                 6.7856

                     16                     17                     18
                      A                      A                      A
 Frequencies --    888.2821               921.1737               965.2688
 Red. masses --      2.1107                 3.0423                 2.5793
 Frc consts  --      0.9812                 1.5210                 1.4159
 IR Inten    --      8.7225                 8.8498                11.1839

                     19                     20                     21
                      A                      A                      A
 Frequencies --    976.9417              1024.6824              1057.2094
 Red. masses --      2.0808                 1.3391                 2.9752
 Frc consts  --      1.1701                 0.8284                 1.9593
 IR Inten    --     15.4630                 8.2762                12.8570

                     22                     23                     24
                      A                      A                      A
 Frequencies --   1083.2407              1095.3333              1110.9612
 Red. masses --      1.8815                 1.7786                 1.9945
 Frc consts  --      1.3008                 1.2573                 1.4504
 IR Inten    --      4.2971                 0.5016                 0.6878

                     25                     26                     27
                      A                      A                      A
 Frequencies --   1145.5387              1182.0996              1199.2291
 Red. masses --      5.2667                 1.4960                 1.5757
 Frc consts  --      4.0720                 1.2317                 1.3351
 IR Inten    --    159.6727                 1.0628                 3.6998

                     28                     29                     30
                      A                      A                      A
 Frequencies --   1224.1153              1241.8295              1256.3959
 Red. masses --      1.6877                 1.7512                 1.3322
 Frc consts  --      1.4900                 1.5912                 1.2390
 IR Inten    --      8.1089                 3.6244                 0.9435

                     31                     32                     33
                      A                      A                      A
 Frequencies --   1275.9657              1307.6885              1331.8436
 Red. masses --      1.5649                 1.9758                 1.3131
 Frc consts  --      1.5011                 1.9907                 1.3723
 IR Inten    --     43.7595                17.4301                 6.6069

                     34                     35                     36
                      A                      A                      A
 Frequencies --   1355.6229              1397.6839              1415.0476
 Red. masses --      1.5462                 1.2997                 1.3753
 Frc consts  --      1.6741                 1.4959                 1.6225
 IR Inten    --      3.3905                 7.9631                 5.8757

                     37                     38                     39
                      A                      A                      A
 Frequencies --   1429.4670              1476.0385              1485.5996
 Red. masses --      2.4924                 1.0508                 1.0781
 Frc consts  --      3.0007                 1.3489                 1.4019
 IR Inten    --     21.7421                 5.8852                 1.0415

                     40                     41                     42
                      A                      A                      A
 Frequencies --   1489.5922              1509.8767              2980.7746
 Red. masses --      1.0566                 1.0951                 1.0718
 Frc consts  --      1.3814                 1.4709                 5.6107
 IR Inten    --      7.0855                 1.2224                48.9828

                     43                     44                     45
                      A                      A                      A
 Frequencies --   3029.2435              3037.1187              3071.1919
 Red. masses --      1.0610                 1.0347                 1.1001
 Frc consts  --      5.7361                 5.6233                 6.1137
 IR Inten    --     24.6245                16.7602                31.1143

                     46                     47                     48
                      A                      A                      A
 Frequencies --   3089.6576              3095.6075              3108.5259
 Red. masses --      1.0867                 1.0936                 1.0879
 Frc consts  --      6.1122                 6.1745                 6.1936
 IR Inten    --     33.6913                34.8465                38.2414

                     49                     50                     51
                      A                      A                      A
 Frequencies --   3110.7190              3112.1817              3119.3213
 Red. masses --      1.1008                 1.1012                 1.0946
 Frc consts  --      6.2759                 6.2843                 6.2751
 IR Inten    --     12.8415                13.8210                43.6589

 - Thermochemistry -
 -------------------
 Temperature   298.150 Kelvin.  Pressure   1.00000 Atm.
 Atom     1 has atomic number  6 and mass  12.00000

 Molecular mass:   126.06808 amu.
 Principal axes and moments of inertia in atomic units:
                           1         2         3
     Eigenvalues --   647.972601133.253141162.88588
           X            0.99803  -0.05221   0.03485
           Y            0.04856   0.99396   0.09839
           Z           -0.03978  -0.09651   0.99454
 This molecule is an asymmetric top.
 Rotational symmetry number  1.
 Warning -- assumption of classical behavior for rotation
           may cause significant error
 Rotational temperatures (Kelvin)      0.13367     0.07643     0.07448
 Rotational constants (GHZ):           2.78521     1.59253     1.55195
 Zero-point vibrational energy     420824.7 (Joules/Mol)
                                  100.57951 (Kcal/Mol)
 Warning -- explicit consideration of   9 degrees of freedom as
           vibrations may cause significant error
 Vibrational temperatures:    241.41   255.19   288.89   368.61   503.55
          (Kelvin)            638.36   649.34   713.86   831.49   937.85
                             1003.20  1067.19  1164.59  1233.05  1261.57
                             1278.04  1325.36  1388.80  1405.60  1474.29
                             1521.09  1558.54  1575.94  1598.42  1648.17
                             1700.78  1725.42  1761.23  1786.71  1807.67
                             1835.83  1881.47  1916.22  1950.44  2010.95
                             2035.94  2056.68  2123.69  2137.44  2143.19
                             2172.37  4288.66  4358.40  4369.73  4418.75
                             4445.32  4453.88  4472.47  4475.63  4477.73
                             4488.00

 Zero-point correction=                           0.160284 (Hartree/Particle)
 Thermal correction to Energy=                    0.167708
 Thermal correction to Enthalpy=                  0.168652
 Thermal correction to Gibbs Free Energy=         0.128770
 Sum of electronic and zero-point Energies=           -422.972817
 Sum of electronic and thermal Energies=              -422.965392
 Sum of electronic and thermal Enthalpies=            -422.964448
 Sum of electronic and thermal Free Energies=         -423.004331

                     E (Thermal)             CV                S
                      KCal/Mol        Cal/Mol-Kelvin    Cal/Mol-Kelvin
 Total                  105.238             29.897             83.940
 Electronic               0.000              0.000              0.000
 Translational            0.889              2.981             40.409
 Rotational               0.889              2.981             28.237
 Vibrational            103.461             23.936             15.295
 Vibration     1          0.625              1.882              2.460
 Vibration     2          0.628              1.870              2.356
 Vibration     3          0.638              1.839              2.126
 Vibration     4          0.666              1.752              1.688
 Vibration     5          0.727              1.575              1.166
 Vibration     6          0.803              1.375              0.815
 Vibration     7          0.810              1.358              0.792
 Vibration     8          0.852              1.259              0.668
 Vibration     9          0.934              1.079              0.489

 Optimization completed.
    -- Stationary point found.
 Normal termination of Gaussian 09 at Mon Jan 27 19:00:49 2020.
