 Gaussian 09, Revision D.01,
 Gaussian 09:  ES64L-G09RevD.01 24-Apr-2013

 -----------------------------
 # b3lyp 6-31G(2df,p) opt Freq
 -----------------------------

 -----
 titel
 -----
 Symbolic Z-matrix:
 Charge =  0 Multiplicity = 1

 SCF Done:  E(RB3LYP) =  -423.142735531     A.U. after   13 cycles
 Optimization completed.
    -- Stationary point found.
 Normal termination of Gaussian 09 at Tue Jan 28 12:11:55 2020.

 ----------------------------------------------------------------------
 #N Geom=AllCheck Guess=TCheck SCRF=Check GenChk RB3LYP/6-31G(2df,p) Fr
 eq
 ----------------------------------------------------------------------

 Structure from the checkpoint file:  "/scratch/puck/g09_db5e8693-4f1c-4481-b3e8-d003c86ca844/Gau-115459.chk"
 -----
 titel
 -----
 Charge =  0 Multiplicity = 1

                         Standard orientation:
 ---------------------------------------------------------------------
 Center     Atomic      Atomic             Coordinates (Angstroms)
 Number     Number       Type             X           Y           Z
 ---------------------------------------------------------------------
      1          8           0        2.623713   -0.086187    0.589548
      2          6           0        1.807957    0.486927   -0.420314
      3          6           0        0.380097    0.057742   -0.256378
      4          8           0        0.165475   -1.354498   -0.432439
      5          6           0       -1.248726   -0.986556   -0.476283
      6          6           0       -1.501153   -0.632071    1.001398
      7          6           0       -0.528365    0.565199    0.973569
      8          6           0       -1.239566    1.511076   -0.030790
      9          6           0       -0.881837    0.433749   -1.068109
     10          1           0        2.465173   -1.036857    0.562586
     11          1           0        1.893344    1.573691   -0.318083
     12          1           0        2.159949    0.212551   -1.426862
     13          1           0       -1.874496   -1.714016   -0.990692
     14          1           0       -2.527995   -0.338234    1.236548
     15          1           0       -1.195372   -1.456830    1.647805
     16          1           0       -0.095106    0.921271    1.905481
     17          1           0       -2.290364    1.749297    0.156495
     18          1           0       -0.683442    2.433495   -0.219654
     19          1           0       -0.895628    0.564708   -2.149062
 ---------------------------------------------------------------------

 SCF Done:  E(RB3LYP) =  -423.142735531     A.U. after    1 cycles

 The electronic state is 1-A.
 Alpha  occ. eigenvalues --  -19.13554 -19.13393 -10.24123 -10.23704 -10.22903
 Alpha  occ. eigenvalues --  -10.19466 -10.19184 -10.18785 -10.18354  -1.05658
 Alpha  occ. eigenvalues --   -1.01350  -0.85713  -0.74531  -0.70139  -0.67490
 Alpha  occ. eigenvalues --   -0.62531  -0.56658  -0.52489  -0.52030  -0.48926
 Alpha  occ. eigenvalues --   -0.47428  -0.45110  -0.44359  -0.42500  -0.39354
 Alpha  occ. eigenvalues --   -0.37385  -0.35290  -0.34368  -0.33689  -0.32055
 Alpha  occ. eigenvalues --   -0.30580  -0.29251  -0.26523  -0.24481
 Alpha virt. eigenvalues --    0.06917   0.09940   0.10627   0.12370   0.12668
 Alpha virt. eigenvalues --    0.13325   0.14076   0.14583   0.15953   0.16827
 Alpha virt. eigenvalues --    0.17419   0.18068   0.19137   0.20460   0.22033

 Mulliken charges:
               1
     1  O   -0.417770
     2  C   -0.193495
     3  C    0.467138
     4  O   -0.347451
     5  C    0.066449
     6  C   -0.207892
     7  C   -0.119196
     8  C   -0.250488
     9  C   -0.140134
    10  H    0.295476
    11  H    0.112913
    12  H    0.095565
    13  H    0.081229
    14  H    0.096090
    15  H    0.106726
    16  H    0.079139
    17  H    0.095439
    18  H    0.103536
    19  H    0.076727
 Sum of Mulliken charges =   0.00000

 Dipole moment (field-independent basis, Debye):
    X=             -1.7978    Y=              0.5153    Z=             -0.6150  Tot=              1.9687
 Quadrupole moment (field-independent basis, Debye-Ang):
   XX=            -55.4798   YY=            -52.3369   ZZ=            -52.8440
   XY=             -0.2211   XZ=             -1.7093   YZ=             -1.5060

  Exact polarizability:  78.821   1.222  73.107  -1.247  -1.001  69.450
 Approx polarizability: 110.712  -0.368 111.526   0.884   0.644 105.234

                      1                      2                      3
                      A                      A                      A
 Frequencies --     79.9339               142.4764               274.3696
 Red. masses --      3.8659                 4.0414                 2.0663
 Frc consts  --      0.0146                 0.0483                 0.0916
 IR Inten    --      4.3886                 0.3269                 4.5030

                      4                      5                      6
                      A                      A                      A
 Frequencies --    326.7908               408.7463               453.2773
 Red. masses --      2.2121                 1.3839                 2.0927
 Frc consts  --      0.1392                 0.1362                 0.2533
 IR Inten    --     19.9288               110.4562                 0.8942

                      7                      8                      9
                      A                      A                      A
 Frequencies --    474.3730               543.0220               626.4691
 Red. masses --      2.2585                 4.0372                 3.9735
 Frc consts  --      0.2994                 0.7014                 0.9188
 IR Inten    --      2.9975                 4.4470                 7.1515

                     10                     11                     12
                      A                      A                      A
 Frequencies --    695.0087               732.7078               799.2887
 Red. masses --      4.0360                 3.5242                 3.3115
 Frc consts  --      1.1486                 1.1147                 1.2465
 IR Inten    --      2.3945                 8.4170                 7.4730

                     13                     14                     15
                      A                      A                      A
 Frequencies --    832.3929               875.2315               896.5494
 Red. masses --      2.6384                 2.7363                 2.5917
 Frc consts  --      1.0771                 1.2350                 1.2274
 IR Inten    --     12.7657                21.9536                23.7351

                     16                     17                     18
                      A                      A                      A
 Frequencies --    916.3194               943.9609               957.5504
 Red. masses --      2.0596                 2.0178                 1.6887
 Frc consts  --      1.0189                 1.0594                 0.9123
 IR Inten    --      6.4009                 8.5276                 7.1684

                     19                     20                     21
                      A                      A                      A
 Frequencies --    976.4914               988.0261              1017.6073
 Red. masses --      3.1090                 1.7105                 2.6704
 Frc consts  --      1.7467                 0.9838                 1.6292
 IR Inten    --      2.6696                15.0351                32.1303

                     22                     23                     24
                      A                      A                      A
 Frequencies --   1031.0701              1058.5099              1083.8554
 Red. masses --      1.5527                 4.0571                 1.2431
 Frc consts  --      0.9725                 2.6783                 0.8604
 IR Inten    --      0.5837                66.6680                 2.2854

                     25                     26                     27
                      A                      A                      A
 Frequencies --   1096.5955              1105.2228              1140.2807
 Red. masses --      1.9730                 1.4129                 1.8511
 Frc consts  --      1.3979                 1.0169                 1.4181
 IR Inten    --     12.2188                 2.4544                 8.1713

                     28                     29                     30
                      A                      A                      A
 Frequencies --   1178.6912              1215.3403              1226.1258
 Red. masses --      1.7099                 1.7120                 1.2784
 Frc consts  --      1.3997                 1.4898                 1.1324
 IR Inten    --      1.6569                 2.1759                 7.0423

                     31                     32                     33
                      A                      A                      A
 Frequencies --   1232.8795              1249.8693              1284.8175
 Red. masses --      1.6025                 1.4262                 1.6852
 Frc consts  --      1.4351                 1.3127                 1.6390
 IR Inten    --      5.1204                 3.8312                 9.5722

                     34                     35                     36
                      A                      A                      A
 Frequencies --   1303.0718              1318.4116              1341.9206
 Red. masses --      1.5867                 1.6866                 2.0650
 Frc consts  --      1.5874                 1.7273                 2.1909
 IR Inten    --     19.7220                 2.3520                12.0589

                     37                     38                     39
                      A                      A                      A
 Frequencies --   1382.9724              1439.0749              1481.8983
 Red. masses --      1.4234                 1.4863                 1.1030
 Frc consts  --      1.6040                 1.8136                 1.4271
 IR Inten    --      9.9599                46.5780                 2.0644

                     40                     41                     42
                      A                      A                      A
 Frequencies --   1494.6870              1505.7439              2987.1510
 Red. masses --      1.1013                 1.1106                 1.0691
 Frc consts  --      1.4496                 1.4836                 5.6208
 IR Inten    --      1.7726                 2.2876                52.6874

                     43                     44                     45
                      A                      A                      A
 Frequencies --   3052.9980              3064.0724              3078.0681
 Red. masses --      1.0574                 1.0599                 1.0931
 Frc consts  --      5.8067                 5.8629                 6.1018
 IR Inten    --     30.7647                28.0205                23.1316

                     46                     47                     48
                      A                      A                      A
 Frequencies --   3106.5839              3122.7632              3128.1570
 Red. masses --      1.1079                 1.1057                 1.0900
 Frc consts  --      6.2997                 6.3526                 6.2840
 IR Inten    --     27.1851                19.5175                23.6456

                     49                     50                     51
                      A                      A                      A
 Frequencies --   3139.0292              3146.2601              3801.2252
 Red. masses --      1.0917                 1.0919                 1.0660
 Frc consts  --      6.3378                 6.3680                 9.0749
 IR Inten    --     62.7225                12.5472                25.6459

 - Thermochemistry -
 -------------------
 Temperature   298.150 Kelvin.  Pressure   1.00000 Atm.
 Atom     1 has atomic number  8 and mass  15.99491

 Molecular mass:   126.06808 amu.
 Principal axes and moments of inertia in atomic units:
                           1         2         3
     Eigenvalues --   602.264511171.364021293.73460
           X            0.99979   0.00061  -0.02059
           Y           -0.00194   0.99792  -0.06446
           Z            0.02051   0.06449   0.99771
 This molecule is an asymmetric top.
 Rotational symmetry number  1.
 Warning -- assumption of classical behavior for rotation
           may cause significant error
 Rotational temperatures (Kelvin)      0.14381     0.07394     0.06695
 Rotational constants (GHZ):           2.99659     1.54072     1.39499
 Zero-point vibrational energy     423226.5 (Joules/Mol)
                                  101.15355 (Kcal/Mol)
 Warning -- explicit consideration of   8 degrees of freedom as
           vibrations may cause significant error
 Vibrational temperatures:    115.01   204.99   394.76   470.18   588.09
          (Kelvin)            652.16   682.52   781.29   901.35   999.96
                             1054.20  1150.00  1197.63  1259.26  1289.93
                             1318.38  1358.15  1377.70  1404.95  1421.55
                             1464.11  1483.48  1522.96  1559.42  1577.75
                             1590.17  1640.61  1695.87  1748.60  1764.12
                             1773.84  1798.28  1848.56  1874.83  1896.90
                             1930.72  1989.79  2070.51  2132.12  2150.52
                             2166.43  4297.84  4392.58  4408.51  4428.65
                             4469.68  4492.95  4500.71  4516.36  4526.76
                             5469.11

 Zero-point correction=                           0.161198 (Hartree/Particle)
 Thermal correction to Energy=                    0.168488
 Thermal correction to Enthalpy=                  0.169432
 Thermal correction to Gibbs Free Energy=         0.129375
 Sum of electronic and zero-point Energies=           -422.981537
 Sum of electronic and thermal Energies=              -422.974248
 Sum of electronic and thermal Enthalpies=            -422.973304
 Sum of electronic and thermal Free Energies=         -423.013361

                     E (Thermal)             CV                S
                      KCal/Mol        Cal/Mol-Kelvin    Cal/Mol-Kelvin
 Total                  105.728             29.546             84.307
 Electronic               0.000              0.000              0.000
 Translational            0.889              2.981             40.409
 Rotational               0.889              2.981             28.303
 Vibrational            103.950             23.584             15.596
 Vibration     1          0.600              1.963              3.893
 Vibration     2          0.616              1.911              2.770
 Vibration     3          0.677              1.721              1.569
 Vibration     4          0.710              1.622              1.276
 Vibration     5          0.773              1.451              0.931
 Vibration     6          0.812              1.354              0.786
 Vibration     7          0.831              1.307              0.725
 Vibration     8          0.898              1.155              0.559

 Optimization completed.
    -- Stationary point found.
 Normal termination of Gaussian 09 at Tue Jan 28 12:56:27 2020.
