 Gaussian 09, Revision D.01,
 Gaussian 09:  ES64L-G09RevD.01 24-Apr-2013

 -----------------------------
 # b3lyp 6-31G(2df,p) opt Freq
 -----------------------------

 -----
 titel
 -----
 Symbolic Z-matrix:
 Charge =  0 Multiplicity = 1

 SCF Done:  E(RB3LYP) =  -423.147434552     A.U. after   13 cycles
 Optimization completed.
    -- Stationary point found.
 Normal termination of Gaussian 09 at Mon Jan 27 18:10:03 2020.

 ----------------------------------------------------------------------
 #N Geom=AllCheck Guess=TCheck SCRF=Check GenChk RB3LYP/6-31G(2df,p) Fr
 eq
 ----------------------------------------------------------------------

 Structure from the checkpoint file:  "/scratch/puck/g09_67f85af6-f04c-4e41-ba9e-67ce6e359c7d/Gau-47295.chk"
 -----
 titel
 -----
 Charge =  0 Multiplicity = 1

                         Standard orientation:
 ---------------------------------------------------------------------
 Center     Atomic      Atomic             Coordinates (Angstroms)
 Number     Number       Type             X           Y           Z
 ---------------------------------------------------------------------
      1          8           0       -2.193918   -1.146875   -0.186920
      2          6           0       -1.090335   -0.322512    0.034626
      3          6           0       -1.303871    1.159388    0.418402
      4          6           0       -0.010810    1.540705   -0.348724
      5          6           0        1.290698    1.172044    0.407934
      6          6           0        1.101754   -0.305212    0.024074
      7          8           0        2.297439   -0.972815   -0.234112
      8          6           0        0.011419   -1.014651    0.860814
      9          6           0       -0.004179    0.124944   -1.030226
     10          1           0       -2.841018   -0.655016   -0.703675
     11          1           0       -2.181603    1.555866   -0.106867
     12          1           0       -1.385063    1.416171    1.480114
     13          1           0       -0.018346    2.480785   -0.898244
     14          1           0        2.164335    1.564685   -0.119805
     15          1           0        1.369060    1.422465    1.471102
     16          1           0        2.097171   -1.895017   -0.427015
     17          1           0       -0.008527   -2.084243    0.619901
     18          1           0        0.014813   -0.890125    1.948232
     19          1           0       -0.007038   -0.086282   -2.096883
 ---------------------------------------------------------------------

 SCF Done:  E(RB3LYP) =  -423.147434552     A.U. after    1 cycles

 The electronic state is 1-A.
 Alpha  occ. eigenvalues --  -19.14143 -19.13874 -10.23569 -10.23370 -10.18808
 Alpha  occ. eigenvalues --  -10.18092 -10.17667 -10.17534 -10.17415  -1.02816
 Alpha  occ. eigenvalues --   -1.02228  -0.88829  -0.73961  -0.73013  -0.64911
 Alpha  occ. eigenvalues --   -0.59248  -0.58271  -0.53747  -0.51024  -0.48436
 Alpha  occ. eigenvalues --   -0.46343  -0.43581  -0.43100  -0.41332  -0.39866
 Alpha  occ. eigenvalues --   -0.37970  -0.35958  -0.35314  -0.31599  -0.30738
 Alpha  occ. eigenvalues --   -0.30005  -0.28185  -0.25252  -0.23472
 Alpha virt. eigenvalues --    0.07483   0.07915   0.09107   0.11456   0.11944
 Alpha virt. eigenvalues --    0.12193   0.15543   0.16148   0.16854   0.16986
 Alpha virt. eigenvalues --    0.18665   0.19299   0.20377   0.22094   0.22737

 Mulliken charges:
               1
     1  O   -0.483726
     2  C    0.432315
     3  C   -0.294871
     4  C   -0.036824
     5  C   -0.264700
     6  C    0.441976
     7  O   -0.484635
     8  C   -0.342275
     9  C   -0.229155
    10  H    0.275393
    11  H    0.086552
    12  H    0.094777
    13  H    0.070344
    14  H    0.110873
    15  H    0.090023
    16  H    0.275793
    17  H    0.098199
    18  H    0.095616
    19  H    0.064324
 Sum of Mulliken charges =   0.00000

 Dipole moment (field-independent basis, Debye):
    X=             -1.1566    Y=              0.4902    Z=             -0.6921  Tot=              1.4342
 Quadrupole moment (field-independent basis, Debye-Ang):
   XX=            -55.6762   YY=            -51.3638   ZZ=            -51.7795
   XY=             -3.8165   XZ=              2.2169   YZ=              0.7270

  Exact polarizability:  80.111  -1.249  76.339   1.122  -0.150  66.812
 Approx polarizability: 112.747  -0.867 110.474   1.642   0.196 103.283

                      1                      2                      3
                      A                      A                      A
 Frequencies --    208.6636               232.3534               281.6922
 Red. masses --      3.1506                 2.0779                 1.7724
 Frc consts  --      0.0808                 0.0661                 0.0829
 IR Inten    --      1.4057                 5.3102                41.9846

                      4                      5                      6
                      A                      A                      A
 Frequencies --    314.8540               343.5040               389.6399
 Red. masses --      1.2546                 1.7872                 2.5344
 Frc consts  --      0.0733                 0.1242                 0.2267
 IR Inten    --     31.5278               107.2841                 4.4332

                      7                      8                      9
                      A                      A                      A
 Frequencies --    395.6674               419.2089               432.2665
 Red. masses --      3.1533                 1.7012                 3.3087
 Frc consts  --      0.2909                 0.1761                 0.3643
 IR Inten    --     10.0822                 0.3997                 5.1300

                     10                     11                     12
                      A                      A                      A
 Frequencies --    568.0881               595.1633               686.0821
 Red. masses --      3.7324                 3.2487                 3.7317
 Frc consts  --      0.7097                 0.6780                 1.0349
 IR Inten    --      6.2502                 5.4162                 1.0652

                     13                     14                     15
                      A                      A                      A
 Frequencies --    738.1047               826.8790               837.4152
 Red. masses --      2.2885                 2.2744                 1.7057
 Frc consts  --      0.7346                 0.9162                 0.7047
 IR Inten    --      0.6404                 1.8442                 1.0729

                     16                     17                     18
                      A                      A                      A
 Frequencies --    876.3266               912.2532               913.1391
 Red. masses --      2.2930                 1.6957                 2.6982
 Frc consts  --      1.0375                 0.8314                 1.3256
 IR Inten    --      0.4909                 2.1064                 3.1287

                     19                     20                     21
                      A                      A                      A
 Frequencies --    944.4209               958.9997               975.8953
 Red. masses --      2.1599                 2.0844                 3.1816
 Frc consts  --      1.1350                 1.1294                 1.7853
 IR Inten    --      0.2445                 0.4628                12.4696

                     22                     23                     24
                      A                      A                      A
 Frequencies --   1010.9852              1050.8659              1086.8646
 Red. masses --      1.9542                 1.7840                 2.1095
 Frc consts  --      1.1768                 1.1607                 1.4682
 IR Inten    --     38.3033                 5.5394                 7.1110

                     25                     26                     27
                      A                      A                      A
 Frequencies --   1092.3190              1107.7187              1114.0968
 Red. masses --      1.7990                 1.5314                 1.5173
 Frc consts  --      1.2647                 1.1072                 1.1096
 IR Inten    --     42.7172                41.3721                 6.4168

                     28                     29                     30
                      A                      A                      A
 Frequencies --   1124.3049              1181.0112              1208.7171
 Red. masses --      1.5212                 1.4382                 1.7558
 Frc consts  --      1.1330                 1.1819                 1.5114
 IR Inten    --     56.1190                20.0303                23.0050

                     31                     32                     33
                      A                      A                      A
 Frequencies --   1225.2235              1233.8904              1265.1661
 Red. masses --      1.6597                 1.6491                 2.0377
 Frc consts  --      1.4680                 1.4793                 1.9217
 IR Inten    --      2.0918                 4.4530                13.7803

                     34                     35                     36
                      A                      A                      A
 Frequencies --   1292.3558              1322.7089              1329.9502
 Red. masses --      1.5752                 2.6971                 2.1626
 Frc consts  --      1.5500                 2.7802                 2.2538
 IR Inten    --     48.0073               122.3166               143.2073

                     37                     38                     39
                      A                      A                      A
 Frequencies --   1380.1632              1398.5821              1470.5924
 Red. masses --      1.7901                 1.8430                 1.1165
 Frc consts  --      2.0090                 2.1240                 1.4226
 IR Inten    --      6.1097                15.3372                 1.5178

                     40                     41                     42
                      A                      A                      A
 Frequencies --   1476.8495              1494.4350              3022.9267
 Red. masses --      1.1373                 1.1600                 1.0583
 Frc consts  --      1.4615                 1.5263                 5.6980
 IR Inten    --      0.1381                 2.0633                47.5238

                     43                     44                     45
                      A                      A                      A
 Frequencies --   3032.4392              3043.1480              3076.9364
 Red. masses --      1.0581                 1.0599                 1.1062
 Frc consts  --      5.7326                 5.7833                 6.1706
 IR Inten    --     29.3530                36.5869                24.8004

                     46                     47                     48
                      A                      A                      A
 Frequencies --   3091.2066              3102.6438              3114.7447
 Red. masses --      1.1068                 1.1043                 1.0907
 Frc consts  --      6.2315                 6.2635                 6.2346
 IR Inten    --     29.4765                20.2843                42.0460

                     49                     50                     51
                      A                      A                      A
 Frequencies --   3148.2400              3804.2611              3805.6046
 Red. masses --      1.0932                 1.0657                 1.0657
 Frc consts  --      6.3837                 9.0870                 9.0936
 IR Inten    --     21.1754                15.2820                14.8695

 - Thermochemistry -
 -------------------
 Temperature   298.150 Kelvin.  Pressure   1.00000 Atm.
 Atom     1 has atomic number  8 and mass  15.99491

 Molecular mass:   126.06808 amu.
 Principal axes and moments of inertia in atomic units:
                           1         2         3
     Eigenvalues --   641.606011070.493261403.69549
           X            0.99982  -0.01811   0.00506
           Y            0.01811   0.99984   0.00052
           Z           -0.00506  -0.00042   0.99999
 This molecule is an asymmetric top.
 Rotational symmetry number  1.
 Warning -- assumption of classical behavior for rotation
           may cause significant error
 Rotational temperatures (Kelvin)      0.13500     0.08091     0.06170
 Rotational constants (GHZ):           2.81285     1.68590     1.28571
 Zero-point vibrational energy     418451.1 (Joules/Mol)
                                  100.01222 (Kcal/Mol)
 Warning -- explicit consideration of  11 degrees of freedom as
           vibrations may cause significant error
 Vibrational temperatures:    300.22   334.30   405.29   453.00   494.22
          (Kelvin)            560.60   569.28   603.15   621.93   817.35
                              856.31   987.12  1061.97  1189.69  1204.85
                             1260.84  1312.53  1313.80  1358.81  1379.79
                             1404.09  1454.58  1511.96  1563.75  1571.60
                             1593.76  1602.93  1617.62  1699.21  1739.07
                             1762.82  1775.29  1820.29  1859.41  1903.08
                             1913.50  1985.74  2012.25  2115.85  2124.85
                             2150.16  4349.31  4363.00  4378.41  4427.02
                             4447.55  4464.01  4481.42  4529.61  5473.48
                             5475.41

 Zero-point correction=                           0.159380 (Hartree/Particle)
 Thermal correction to Energy=                    0.167005
 Thermal correction to Enthalpy=                  0.167949
 Thermal correction to Gibbs Free Energy=         0.128064
 Sum of electronic and zero-point Energies=           -422.988055
 Sum of electronic and thermal Energies=              -422.980430
 Sum of electronic and thermal Enthalpies=            -422.979485
 Sum of electronic and thermal Free Energies=         -423.019371

                     E (Thermal)             CV                S
                      KCal/Mol        Cal/Mol-Kelvin    Cal/Mol-Kelvin
 Total                  104.797             31.957             83.946
 Electronic               0.000              0.000              0.000
 Translational            0.889              2.981             40.409
 Rotational               0.889              2.981             28.357
 Vibrational            103.020             25.995             15.180
 Vibration     1          0.642              1.827              2.055
 Vibration     2          0.653              1.791              1.861
 Vibration     3          0.681              1.708              1.523
 Vibration     4          0.702              1.645              1.337
 Vibration     5          0.722              1.588              1.196
 Vibration     6          0.758              1.492              1.002
 Vibration     7          0.762              1.479              0.979
 Vibration     8          0.782              1.429              0.895
 Vibration     9          0.793              1.400              0.851
 Vibration    10          0.924              1.100              0.508
 Vibration    11          0.953              1.042              0.458

 Normal termination of Gaussian 09 at Mon Jan 27 18:56:04 2020.
