 Gaussian 09, Revision D.01,
 Gaussian 09:  ES64L-G09RevD.01 24-Apr-2013

 -----------------------------
 # b3lyp 6-31G(2df,p) opt Freq
 -----------------------------

 -----
 titel
 -----
 Symbolic Z-matrix:
 Charge =  0 Multiplicity = 1

 SCF Done:  E(RB3LYP) =  -423.157690177     A.U. after   14 cycles
 Optimization completed.
    -- Stationary point found.
 Normal termination of Gaussian 09 at Mon Jan 27 13:53:31 2020.

 ----------------------------------------------------------------------
 #N Geom=AllCheck Guess=TCheck SCRF=Check GenChk RB3LYP/6-31G(2df,p) Fr
 eq
 ----------------------------------------------------------------------

 Structure from the checkpoint file:  "/scratch/puck/g09_5736e041-06fa-403f-8797-f11c55c5dc64/Gau-157786.chk"
 -----
 titel
 -----
 Charge =  0 Multiplicity = 1

                         Standard orientation:
 ---------------------------------------------------------------------
 Center     Atomic      Atomic             Coordinates (Angstroms)
 Number     Number       Type             X           Y           Z
 ---------------------------------------------------------------------
      1          8           0       -3.899293    0.481487   -0.066974
      2          6           0       -2.974731   -0.287963   -0.024286
      3          6           0       -1.579483    0.053657    0.442711
      4          6           0       -0.524747   -0.252561   -0.642295
      5          6           0        0.870027   -0.056492   -0.135953
      6          6           0        1.622657    1.258321    0.154953
      7          6           0        2.965977    0.496862   -0.127683
      8          6           0        2.137281   -0.766856   -0.389882
      9          8           0        1.375481   -1.022891    0.800248
     10          1           0       -3.098130   -1.348866   -0.349167
     11          1           0       -1.556793    1.104485    0.744206
     12          1           0       -1.355728   -0.566267    1.321759
     13          1           0       -0.632279   -1.290376   -0.978963
     14          1           0       -0.691503    0.392583   -1.513086
     15          1           0        1.423799    2.041878   -0.580477
     16          1           0        1.483958    1.658137    1.161901
     17          1           0        3.480068    0.869711   -1.016542
     18          1           0        3.674268    0.419995    0.700173
     19          1           0        2.360951   -1.619860   -1.021381
 ---------------------------------------------------------------------

 SCF Done:  E(RB3LYP) =  -423.157690177     A.U. after    1 cycles

 The electronic state is 1-A.
 Alpha  occ. eigenvalues --  -19.15167 -19.14071 -10.27290 -10.24566 -10.23924
 Alpha  occ. eigenvalues --  -10.20755 -10.19906 -10.19462 -10.19421  -1.07879
 Alpha  occ. eigenvalues --   -1.04749  -0.81123  -0.79838  -0.70060  -0.65864
 Alpha  occ. eigenvalues --   -0.61133  -0.57691  -0.55090  -0.50999  -0.48148
 Alpha  occ. eigenvalues --   -0.47039  -0.45782  -0.43331  -0.42730  -0.42241
 Alpha  occ. eigenvalues --   -0.39272  -0.37621  -0.36003  -0.35847  -0.34738
 Alpha  occ. eigenvalues --   -0.33244  -0.29554  -0.25833  -0.24950
 Alpha virt. eigenvalues --   -0.02278   0.08080   0.09740   0.10858   0.11335
 Alpha virt. eigenvalues --    0.11625   0.12086   0.14065   0.14290   0.15244
 Alpha virt. eigenvalues --    0.16138   0.16474   0.18374   0.19669   0.21035

 Mulliken charges:
               1
     1  O   -0.234704
     2  C    0.154988
     3  C   -0.270262
     4  C   -0.341635
     5  C    0.448413
     6  C   -0.290333
     7  C   -0.235882
     8  C   -0.050182
     9  O   -0.293949
    10  H    0.071512
    11  H    0.124583
    12  H    0.139565
    13  H    0.116314
    14  H    0.117436
    15  H    0.108073
    16  H    0.111603
    17  H    0.107966
    18  H    0.114626
    19  H    0.101870
 Sum of Mulliken charges =   0.00000

 Dipole moment (field-independent basis, Debye):
    X=              2.5050    Y=             -0.2678    Z=             -1.3198  Tot=              2.8441
 Quadrupole moment (field-independent basis, Debye-Ang):
   XX=            -64.5674   YY=            -53.0393   ZZ=            -52.7180
   XY=              5.6253   XZ=             -3.0754   YZ=              1.8605

  Exact polarizability:  98.155  -1.827  72.657  -0.448   2.753  60.906
 Approx polarizability: 124.117 -10.551 112.846  -1.310  -0.572  96.850

                      1                      2                      3
                      A                      A                      A
 Frequencies --     46.3975                64.3248                88.1680
 Red. masses --      4.9143                 3.4160                 2.6640
 Frc consts  --      0.0062                 0.0083                 0.0122
 IR Inten    --      4.8912                 5.4509                 1.2456

                      4                      5                      6
                      A                      A                      A
 Frequencies --    122.7408               245.7465               279.7740
 Red. masses --      3.1951                 2.0863                 3.0220
 Frc consts  --      0.0284                 0.0742                 0.1394
 IR Inten    --      1.7320                 0.5488                 2.3796

                      7                      8                      9
                      A                      A                      A
 Frequencies --    321.6157               399.6102               491.8259
 Red. masses --      2.3274                 2.7402                 3.5453
 Frc consts  --      0.1418                 0.2578                 0.5053
 IR Inten    --      0.6024                 3.0443                10.1715

                     10                     11                     12
                      A                      A                      A
 Frequencies --    523.9395               698.5914               728.0782
 Red. masses --      2.5096                 3.8933                 4.9844
 Frc consts  --      0.4059                 1.1195                 1.5568
 IR Inten    --     17.3533                 2.3639                 3.0900

                     13                     14                     15
                      A                      A                      A
 Frequencies --    765.1583               774.7945               844.6864
 Red. masses --      1.3752                 1.3380                 1.7941
 Frc consts  --      0.4744                 0.4732                 0.7542
 IR Inten    --      1.7396                 0.4024                 5.3426

                     16                     17                     18
                      A                      A                      A
 Frequencies --    885.7986               920.4410               928.8665
 Red. masses --      2.1678                 2.2588                 3.2025
 Frc consts  --      1.0022                 1.1275                 1.6280
 IR Inten    --     14.4504                 2.8465                10.2185

                     19                     20                     21
                      A                      A                      A
 Frequencies --    954.9590               982.4928              1013.0843
 Red. masses --      3.0220                 1.8197                 2.0838
 Frc consts  --      1.6237                 1.0349                 1.2601
 IR Inten    --      5.7829                 3.7321                17.0022

                     22                     23                     24
                      A                      A                      A
 Frequencies --   1041.1002              1070.2488              1091.3098
 Red. masses --      1.6616                 2.6961                 2.3184
 Frc consts  --      1.0611                 1.8195                 1.6268
 IR Inten    --      4.1519                28.8059                 2.8890

                     25                     26                     27
                      A                      A                      A
 Frequencies --   1150.8373              1173.9873              1212.4314
 Red. masses --      1.5795                 1.9677                 1.1821
 Frc consts  --      1.2325                 1.5979                 1.0238
 IR Inten    --      4.8930                 4.7600                 0.3963

                     28                     29                     30
                      A                      A                      A
 Frequencies --   1217.2222              1224.9783              1253.1192
 Red. masses --      1.3878                 1.3856                 1.4361
 Frc consts  --      1.2115                 1.2250                 1.3287
 IR Inten    --      1.9222                16.1487                 6.6031

                     31                     32                     33
                      A                      A                      A
 Frequencies --   1270.7173              1283.1698              1329.9089
 Red. masses --      1.4263                 1.5804                 1.3035
 Frc consts  --      1.3569                 1.5332                 1.3583
 IR Inten    --     19.1308                 2.4167                 5.0097

                     34                     35                     36
                      A                      A                      A
 Frequencies --   1363.4410              1429.0921              1449.6285
 Red. masses --      1.5345                 1.2033                 2.1111
 Frc consts  --      1.6807                 1.4479                 2.6138
 IR Inten    --      9.3418                 6.4459                 7.3410

                     37                     38                     39
                      A                      A                      A
 Frequencies --   1462.8292              1463.6612              1481.0985
 Red. masses --      1.1459                 1.0991                 1.1206
 Frc consts  --      1.4447                 1.3873                 1.4483
 IR Inten    --      0.8754                 0.1888                 7.5975

                     40                     41                     42
                      A                      A                      A
 Frequencies --   1493.8526              1837.1116              2847.5581
 Red. masses --      1.4881                10.1018                 1.0815
 Frc consts  --      1.9566                20.0872                 5.1668
 IR Inten    --      6.1082               202.5602               112.5363

                     43                     44                     45
                      A                      A                      A
 Frequencies --   3024.4476              3033.5880              3064.2055
 Red. masses --      1.0615                 1.0600                 1.0567
 Frc consts  --      5.7210                 5.7475                 5.8455
 IR Inten    --      2.0697                21.5248                28.5669

                     46                     47                     48
                      A                      A                      A
 Frequencies --   3072.1933              3073.3486              3106.9809
 Red. masses --      1.0636                 1.0969                 1.0999
 Frc consts  --      5.9146                 6.1046                 6.2558
 IR Inten    --     21.9447                17.4088                18.1249

                     49                     50                     51
                      A                      A                      A
 Frequencies --   3116.2366              3132.6122              3178.7948
 Red. masses --      1.1090                 1.1082                 1.0941
 Frc consts  --      6.3450                 6.4076                 6.5136
 IR Inten    --      1.0397                31.4865                20.5098

 - Thermochemistry -
 -------------------
 Temperature   298.150 Kelvin.  Pressure   1.00000 Atm.
 Atom     1 has atomic number  8 and mass  15.99491

 Molecular mass:   126.06808 amu.
 Principal axes and moments of inertia in atomic units:
                           1         2         3
     Eigenvalues --   346.448812479.597532612.53760
           X            0.99985   0.01681  -0.00304
           Y           -0.01652   0.99674   0.07892
           Z            0.00436  -0.07886   0.99688
 This molecule is an asymmetric top.
 Rotational symmetry number  1.
 Rotational temperatures (Kelvin)      0.25000     0.03493     0.03315
 Rotational constants (GHZ):           5.20926     0.72784     0.69080
 Zero-point vibrational energy     412895.9 (Joules/Mol)
                                   98.68449 (Kcal/Mol)
 Warning -- explicit consideration of  10 degrees of freedom as
           vibrations may cause significant error
 Vibrational temperatures:     66.76    92.55   126.85   176.60   353.57
          (Kelvin)            402.53   462.73   574.95   707.63   753.83
                             1005.12  1047.54  1100.89  1114.76  1215.31
                             1274.47  1324.31  1336.43  1373.97  1413.59
                             1457.60  1497.91  1539.85  1570.15  1655.80
                             1689.10  1744.42  1751.31  1762.47  1802.96
                             1828.28  1846.19  1913.44  1961.69  2056.14
                             2085.69  2104.68  2105.88  2130.97  2149.32
                             2643.19  4097.00  4351.50  4364.65  4408.70
                             4420.20  4421.86  4470.25  4483.56  4507.12
                             4573.57

 Zero-point correction=                           0.157264 (Hartree/Particle)
 Thermal correction to Energy=                    0.166266
 Thermal correction to Enthalpy=                  0.167210
 Thermal correction to Gibbs Free Energy=         0.122042
 Sum of electronic and zero-point Energies=           -423.000426
 Sum of electronic and thermal Energies=              -422.991424
 Sum of electronic and thermal Enthalpies=            -422.990480
 Sum of electronic and thermal Free Energies=         -423.035648

                     E (Thermal)             CV                S
                      KCal/Mol        Cal/Mol-Kelvin    Cal/Mol-Kelvin
 Total                  104.334             32.335             95.064
 Electronic               0.000              0.000              0.000
 Translational            0.889              2.981             40.409
 Rotational               0.889              2.981             29.197
 Vibrational            102.556             26.373             25.459
 Vibration     1          0.595              1.979              4.965
 Vibration     2          0.597              1.971              4.320
 Vibration     3          0.601              1.957              3.700
 Vibration     4          0.610              1.930              3.057
 Vibration     5          0.660              1.770              1.761
 Vibration     6          0.680              1.711              1.535
 Vibration     7          0.707              1.632              1.302
 Vibration     8          0.766              1.471              0.964
 Vibration     9          0.848              1.268              0.679
 Vibration    10          0.879              1.197              0.601

 Optimization completed.
    -- Stationary point found.
 Normal termination of Gaussian 09 at Mon Jan 27 14:30:12 2020.
