 Gaussian 09, Revision D.01,
 Gaussian 09:  ES64L-G09RevD.01 24-Apr-2013

 -----------------------------
 # b3lyp 6-31G(2df,p) opt Freq
 -----------------------------

 -----
 titel
 -----
 Symbolic Z-matrix:
 Charge =  0 Multiplicity = 1

 SCF Done:  E(RB3LYP) =  -423.137730220     A.U. after   14 cycles
 Optimization completed.
    -- Stationary point found.
 Normal termination of Gaussian 09 at Mon Jan 27 15:30:36 2020.

 ----------------------------------------------------------------------
 #N Geom=AllCheck Guess=TCheck SCRF=Check GenChk RB3LYP/6-31G(2df,p) Fr
 eq
 ----------------------------------------------------------------------

 Structure from the checkpoint file:  "/scratch/puck/g09_410319cd-1c07-4d62-8f18-8f9c75662f23/Gau-57516.chk"
 -----
 titel
 -----
 Charge =  0 Multiplicity = 1

                         Standard orientation:
 ---------------------------------------------------------------------
 Center     Atomic      Atomic             Coordinates (Angstroms)
 Number     Number       Type             X           Y           Z
 ---------------------------------------------------------------------
      1          6           0       -2.055519   -0.448506   -1.166716
      2          6           0       -1.398188   -0.436566    0.223032
      3          6           0       -1.904299    0.726319    1.090312
      4          6           0        0.093387   -0.367251    0.074726
      5          6           0        1.114628   -1.372321   -0.529063
      6          6           0        1.958841   -0.315859    0.216398
      7          8           0        0.952346   -0.337954    1.308974
      8          6           0        1.044614    0.778569   -0.392151
      9          8           0        1.044727    1.887828   -0.815731
     10          1           0       -1.827459    0.472187   -1.714042
     11          1           0       -1.713581   -1.296131   -1.769037
     12          1           0       -3.142526   -0.522009   -1.070043
     13          1           0       -1.633489   -1.382406    0.729655
     14          1           0       -1.420225    0.722675    2.070105
     15          1           0       -1.691571    1.687551    0.611316
     16          1           0       -2.985687    0.650224    1.238003
     17          1           0        1.105710   -2.340159   -0.024372
     18          1           0        1.202783   -1.449653   -1.615918
     19          1           0        3.008673   -0.327588    0.499159
 ---------------------------------------------------------------------

 SCF Done:  E(RB3LYP) =  -423.137730220     A.U. after    1 cycles

 The electronic state is 1-A.
 Alpha  occ. eigenvalues --  -19.15967 -19.14998 -10.28221 -10.25831 -10.25807
 Alpha  occ. eigenvalues --  -10.20968 -10.20387 -10.18549 -10.17705  -1.08165
 Alpha  occ. eigenvalues --   -1.05030  -0.81516  -0.78947  -0.69106  -0.67092
 Alpha  occ. eigenvalues --   -0.65503  -0.59574  -0.50848  -0.50189  -0.46439
 Alpha  occ. eigenvalues --   -0.45889  -0.44531  -0.43559  -0.42712  -0.40513
 Alpha  occ. eigenvalues --   -0.39067  -0.38012  -0.37565  -0.35502  -0.34917
 Alpha  occ. eigenvalues --   -0.33788  -0.32567  -0.26535  -0.25067
 Alpha virt. eigenvalues --   -0.00779   0.07623   0.09233   0.11798   0.11992
 Alpha virt. eigenvalues --    0.12437   0.12704   0.14713   0.14976   0.16145
 Alpha virt. eigenvalues --    0.16451   0.17135   0.17603   0.19185   0.20120

 Mulliken charges:
               1
     1  C   -0.401321
     2  C   -0.128525
     3  C   -0.402210
     4  C    0.314589
     5  C   -0.283062
     6  C   -0.076462
     7  O   -0.344900
     8  C    0.443611
     9  O   -0.322699
    10  H    0.137077
    11  H    0.117619
    12  H    0.120964
    13  H    0.090183
    14  H    0.136547
    15  H    0.137165
    16  H    0.112255
    17  H    0.119920
    18  H    0.113968
    19  H    0.115282
 Sum of Mulliken charges =   0.00000

 Dipole moment (field-independent basis, Debye):
    X=             -0.5536    Y=             -2.5158    Z=             -0.6404  Tot=              2.6544
 Quadrupole moment (field-independent basis, Debye-Ang):
   XX=            -48.7591   YY=            -57.1650   ZZ=            -55.8209
   XY=             -2.6493   XZ=             -0.4224   YZ=              2.9816

  Exact polarizability:  84.022  -1.518  74.888   0.283  -0.413  68.359
 Approx polarizability: 111.951  -0.147 118.533   0.388  -8.722 111.629

                      1                      2                      3
                      A                      A                      A
 Frequencies --     50.8423               127.7178               170.6517
 Red. masses --      3.1631                 4.0874                 3.1957
 Frc consts  --      0.0048                 0.0393                 0.0548
 IR Inten    --      0.6907                 1.1943                 1.6955

                      4                      5                      6
                      A                      A                      A
 Frequencies --    184.7344               220.6447               246.3969
 Red. masses --      5.2500                 1.0469                 1.0959
 Frc consts  --      0.1056                 0.0300                 0.0392
 IR Inten    --      6.1103                 0.1775                 0.0344

                      7                      8                      9
                      A                      A                      A
 Frequencies --    304.7230               406.7744               423.2649
 Red. masses --      2.6326                 3.0022                 3.8393
 Frc consts  --      0.1440                 0.2927                 0.4053
 IR Inten    --      0.2571                 0.1181                 5.2570

                     10                     11                     12
                      A                      A                      A
 Frequencies --    467.1496               520.3399               633.8376
 Red. masses --      3.0022                 2.6995                 3.5666
 Frc consts  --      0.3860                 0.4306                 0.8442
 IR Inten    --      2.0111                 4.1897                 0.2335

                     13                     14                     15
                      A                      A                      A
 Frequencies --    716.8916               772.7324               809.3916
 Red. masses --      3.0326                 5.9180                 4.5104
 Frc consts  --      0.9183                 2.0820                 1.7409
 IR Inten    --      0.3136                30.3823                31.0303

                     16                     17                     18
                      A                      A                      A
 Frequencies --    831.6854               885.0578               910.8070
 Red. masses --      5.0438                 2.4446                 3.4241
 Frc consts  --      2.0555                 1.1283                 1.6736
 IR Inten    --      6.4075                 5.1565                30.9040

                     19                     20                     21
                      A                      A                      A
 Frequencies --    932.1228               939.7039               972.5442
 Red. masses --      1.4894                 1.6503                 1.5607
 Frc consts  --      0.7624                 0.8586                 0.8697
 IR Inten    --      4.5823                 3.2290                 0.4508

                     22                     23                     24
                      A                      A                      A
 Frequencies --    993.3826              1034.0340              1056.7795
 Red. masses --      2.6938                 1.7844                 1.3374
 Frc consts  --      1.5662                 1.1241                 0.8800
 IR Inten    --      2.6958                 6.8060                 1.8974

                     25                     26                     27
                      A                      A                      A
 Frequencies --   1129.4732              1143.3194              1174.1284
 Red. masses --      2.3171                 1.6523                 1.7253
 Frc consts  --      1.7416                 1.2725                 1.4013
 IR Inten    --      0.7876                18.4211                 0.5024

                     28                     29                     30
                      A                      A                      A
 Frequencies --   1194.9016              1204.4766              1214.2484
 Red. masses --      1.8713                 1.6359                 1.5978
 Frc consts  --      1.5742                 1.3983                 1.3880
 IR Inten    --      0.1471                 3.8070                 1.3822

                     31                     32                     33
                      A                      A                      A
 Frequencies --   1319.7328              1340.9481              1386.1015
 Red. masses --      1.6507                 1.4200                 2.3730
 Frc consts  --      1.6939                 1.5044                 2.6862
 IR Inten    --     10.3281                 1.2443                 0.0225

                     34                     35                     36
                      A                      A                      A
 Frequencies --   1399.2013              1423.9282              1475.3519
 Red. masses --      1.2448                 1.2546                 1.2230
 Frc consts  --      1.4358                 1.4987                 1.5685
 IR Inten    --      4.2211                 4.0748                 1.7430

                     37                     38                     39
                      A                      A                      A
 Frequencies --   1488.5202              1492.3376              1502.1384
 Red. masses --      1.0408                 1.0496                 1.0422
 Frc consts  --      1.3587                 1.3772                 1.3855
 IR Inten    --      1.4470                 1.2217                10.2105

                     40                     41                     42
                      A                      A                      A
 Frequencies --   1516.5937              1924.0467              3015.0981
 Red. masses --      1.0939                12.5230                 1.0827
 Frc consts  --      1.4824                27.3142                 5.7990
 IR Inten    --      8.9543               309.8009                15.3539

                     43                     44                     45
                      A                      A                      A
 Frequencies --   3035.8917              3041.8509              3062.8713
 Red. masses --      1.0347                 1.0352                 1.0556
 Frc consts  --      5.6185                 5.6437                 5.8346
 IR Inten    --     18.7077                16.3498                17.9623

                     46                     47                     48
                      A                      A                      A
 Frequencies --   3105.7993              3110.2335              3114.1257
 Red. masses --      1.1019                 1.1022                 1.1016
 Frc consts  --      6.2624                 6.2821                 6.2940
 IR Inten    --     20.7997                 4.0167                43.9070

                     49                     50                     51
                      A                      A                      A
 Frequencies --   3124.6036              3145.6261              3159.6943
 Red. masses --      1.1015                 1.1102                 1.0948
 Frc consts  --      6.3363                 6.4726                 6.4397
 IR Inten    --     15.0503                10.8568                26.1896

 - Thermochemistry -
 -------------------
 Temperature   298.150 Kelvin.  Pressure   1.00000 Atm.
 Atom     1 has atomic number  6 and mass  12.00000

 Molecular mass:   126.06808 amu.
 Principal axes and moments of inertia in atomic units:
                           1         2         3
     Eigenvalues --   749.631911280.128641383.86729
           X            0.99930  -0.03685  -0.00579
           Y            0.03719   0.97201   0.23198
           Z           -0.00292  -0.23203   0.97270
 This molecule is an asymmetric top.
 Rotational symmetry number  1.
 Warning -- assumption of classical behavior for rotation
           may cause significant error
 Rotational temperatures (Kelvin)      0.11554     0.06766     0.06259
 Rotational constants (GHZ):           2.40750     1.40981     1.30413
 Zero-point vibrational energy     411859.0 (Joules/Mol)
                                   98.43667 (Kcal/Mol)
 Warning -- explicit consideration of  11 degrees of freedom as
           vibrations may cause significant error
 Vibrational temperatures:     73.15   183.76   245.53   265.79   317.46
          (Kelvin)            354.51   438.43   585.26   608.98   672.12
                              748.65   911.95  1031.45  1111.79  1164.53
                             1196.61  1273.40  1310.45  1341.12  1352.02
                             1399.27  1429.25  1487.74  1520.47  1625.06
                             1644.98  1689.31  1719.19  1732.97  1747.03
                             1898.80  1929.32  1994.29  2013.14  2048.71
                             2122.70  2141.65  2147.14  2161.24  2182.04
                             2768.27  4338.05  4367.97  4376.54  4406.78
                             4468.55  4474.93  4480.53  4495.60  4525.85
                             4546.09

 Zero-point correction=                           0.156869 (Hartree/Particle)
 Thermal correction to Energy=                    0.165898
 Thermal correction to Enthalpy=                  0.166842
 Thermal correction to Gibbs Free Energy=         0.122918
 Sum of electronic and zero-point Energies=           -422.980861
 Sum of electronic and thermal Energies=              -422.971832
 Sum of electronic and thermal Enthalpies=            -422.970888
 Sum of electronic and thermal Free Energies=         -423.014812

                     E (Thermal)             CV                S
                      KCal/Mol        Cal/Mol-Kelvin    Cal/Mol-Kelvin
 Total                  104.103             33.616             92.446
 Electronic               0.000              0.000              0.000
 Translational            0.889              2.981             40.409
 Rotational               0.889              2.981             28.675
 Vibrational            102.325             27.654             23.362
 Vibration     1          0.595              1.977              4.784
 Vibration     2          0.611              1.925              2.980
 Vibration     3          0.626              1.879              2.428
 Vibration     4          0.631              1.861              2.280
 Vibration     5          0.647              1.810              1.954
 Vibration     6          0.661              1.769              1.756
 Vibration     7          0.696              1.665              1.391
 Vibration     8          0.772              1.456              0.938
 Vibration     9          0.785              1.420              0.881
 Vibration    10          0.824              1.323              0.746
 Vibration    11          0.875              1.205              0.609

 Optimization completed.
    -- Stationary point found.
 Normal termination of Gaussian 09 at Mon Jan 27 16:11:09 2020.
