 Gaussian 09, Revision D.01,
 Gaussian 09:  ES64L-G09RevD.01 24-Apr-2013

 -----------------------------
 # b3lyp 6-31G(2df,p) opt Freq
 -----------------------------

 -----
 titel
 -----
 Symbolic Z-matrix:
 Charge =  0 Multiplicity = 1

 SCF Done:  E(RB3LYP) =  -423.127077124     A.U. after   14 cycles
 Optimization completed.
    -- Stationary point found.
 Normal termination of Gaussian 09 at Tue Jan 28 09:01:57 2020.

 ----------------------------------------------------------------------
 #N Geom=AllCheck Guess=TCheck SCRF=Check GenChk RB3LYP/6-31G(2df,p) Fr
 eq
 ----------------------------------------------------------------------

 Structure from the checkpoint file:  "/scratch/puck/g09_0c056c6c-e580-4b90-8e58-ba28175ece75/Gau-16372.chk"
 -----
 titel
 -----
 Charge =  0 Multiplicity = 1

                         Standard orientation:
 ---------------------------------------------------------------------
 Center     Atomic      Atomic             Coordinates (Angstroms)
 Number     Number       Type             X           Y           Z
 ---------------------------------------------------------------------
      1          6           0        2.011900   -1.028223   -0.267802
      2          6           0        1.120286    0.167837    0.005671
      3          6           0        1.606444    1.453504   -0.630477
      4          8           0        0.657420    0.305264    1.356047
      5          6           0       -0.328216    0.010470    0.345502
      6          6           0       -0.988260   -1.361681    0.468307
      7          8           0       -1.510934   -1.822937   -0.761703
      8          6           0       -1.259179    1.071580    0.032303
      9          6           0       -2.075777    1.916974   -0.220111
     10          1           0        3.019105   -0.822767    0.110455
     11          1           0        1.658687   -1.940443    0.213510
     12          1           0        2.098085   -1.205155   -1.345545
     13          1           0        1.666072    1.347742   -1.718876
     14          1           0        0.941203    2.284845   -0.396993
     15          1           0        2.609605    1.691440   -0.260743
     16          1           0       -0.275941   -2.063883    0.917958
     17          1           0       -1.841735   -1.280926    1.147769
     18          1           0       -0.778157   -1.920805   -1.378381
     19          1           0       -2.791999    2.668568   -0.444256
 ---------------------------------------------------------------------

 SCF Done:  E(RB3LYP) =  -423.127077124     A.U. after    1 cycles

 The electronic state is 1-A.
 Alpha  occ. eigenvalues --  -19.15596 -19.14409 -10.26117 -10.25540 -10.23641
 Alpha  occ. eigenvalues --  -10.19279 -10.18574 -10.18263 -10.18124  -1.07778
 Alpha  occ. eigenvalues --   -1.02513  -0.77754  -0.77365  -0.72185  -0.70308
 Alpha  occ. eigenvalues --   -0.63953  -0.58124  -0.53990  -0.51300  -0.49006
 Alpha  occ. eigenvalues --   -0.46700  -0.45428  -0.44030  -0.41892  -0.41371
 Alpha  occ. eigenvalues --   -0.39703  -0.37847  -0.36956  -0.34472  -0.31884
 Alpha  occ. eigenvalues --   -0.29188  -0.27299  -0.27156  -0.25736
 Alpha virt. eigenvalues --    0.02087   0.04340   0.06311   0.10467   0.10975
 Alpha virt. eigenvalues --    0.11494   0.12291   0.13984   0.15312   0.16578
 Alpha virt. eigenvalues --    0.18058   0.18548   0.19209   0.20454   0.22672

 Mulliken charges:
               1
     1  C   -0.467258
     2  C    0.345923
     3  C   -0.459430
     4  O   -0.313255
     5  C    0.065447
     6  C   -0.149320
     7  O   -0.405325
     8  C    0.321668
     9  C   -0.432672
    10  H    0.135426
    11  H    0.130918
    12  H    0.121881
    13  H    0.120631
    14  H    0.144891
    15  H    0.124639
    16  H    0.103109
    17  H    0.127681
    18  H    0.286254
    19  H    0.198790
 Sum of Mulliken charges =   0.00000

 Dipole moment (field-independent basis, Debye):
    X=              1.5114    Y=             -0.1300    Z=             -1.5578  Tot=              2.1744
 Quadrupole moment (field-independent basis, Debye-Ang):
   XX=            -51.9438   YY=            -50.9152   ZZ=            -54.7961
   XY=             -5.4468   XZ=             -3.0445   YZ=             -1.6309

  Exact polarizability:  93.263 -11.662  80.560  -0.809  -4.056  61.010
 Approx polarizability: 134.013 -22.382 113.923   5.478  -6.319  99.189

                      1                      2                      3
                      A                      A                      A
 Frequencies --     58.4616               118.4412               141.8321
 Red. masses --      3.7277                 2.7392                 2.1215
 Frc consts  --      0.0075                 0.0226                 0.0251
 IR Inten    --      2.0012                 0.6747                 0.4658

                      4                      5                      6
                      A                      A                      A
 Frequencies --    147.0981               159.3044               204.4105
 Red. masses --      1.5860                 1.8378                 1.3206
 Frc consts  --      0.0202                 0.0275                 0.0325
 IR Inten    --      0.3015                 0.4018                 1.6462

                      7                      8                      9
                      A                      A                      A
 Frequencies --    267.7686               327.5301               353.4638
 Red. masses --      1.7303                 1.5954                 3.8332
 Frc consts  --      0.0731                 0.1008                 0.2822
 IR Inten    --     27.4750                69.5832                 3.4293

                     10                     11                     12
                      A                      A                      A
 Frequencies --    378.0634               388.7202               402.4514
 Red. masses --      2.7378                 3.0587                 2.8885
 Frc consts  --      0.2306                 0.2723                 0.2756
 IR Inten    --      3.6865                 4.7067                 6.4025

                     13                     14                     15
                      A                      A                      A
 Frequencies --    503.4836               552.0325               590.5501
 Red. masses --      5.0299                 4.1494                 9.1355
 Frc consts  --      0.7512                 0.7450                 1.8771
 IR Inten    --      8.2517                 6.7678                 5.1520

                     16                     17                     18
                      A                      A                      A
 Frequencies --    627.7323               657.5191               662.1887
 Red. masses --      1.2456                 1.3505                 3.0212
 Frc consts  --      0.2892                 0.3440                 0.7805
 IR Inten    --     41.7355                30.9642                18.5270

                     19                     20                     21
                      A                      A                      A
 Frequencies --    747.7573               881.9673               918.6051
 Red. masses --      5.0839                 2.6928                 3.7772
 Frc consts  --      1.6748                 1.2341                 1.8779
 IR Inten    --     10.1627                20.1998                10.9191

                     22                     23                     24
                      A                      A                      A
 Frequencies --    947.7009               991.5720               999.5411
 Red. masses --      1.4382                 1.6764                 1.3685
 Frc consts  --      0.7611                 0.9712                 0.8056
 IR Inten    --      0.2567                 5.5720                 3.3815

                     25                     26                     27
                      A                      A                      A
 Frequencies --   1074.9526              1120.5048              1152.9190
 Red. masses --      4.1560                 1.9000                 1.9901
 Frc consts  --      2.8294                 1.4055                 1.5586
 IR Inten    --    104.3495                 8.6109                31.1821

                     28                     29                     30
                      A                      A                      A
 Frequencies --   1183.1339              1218.8546              1261.5269
 Red. masses --      3.1107                 1.8530                 2.6506
 Frc consts  --      2.5656                 1.6219                 2.4854
 IR Inten    --     11.3410                39.0603                 7.0496

                     31                     32                     33
                      A                      A                      A
 Frequencies --   1360.0316              1407.3126              1410.5827
 Red. masses --      1.3179                 1.4217                 1.5722
 Frc consts  --      1.4363                 1.6590                 1.8431
 IR Inten    --      7.9786                12.1874                12.3258

                     34                     35                     36
                      A                      A                      A
 Frequencies --   1420.5469              1421.0225              1474.8232
 Red. masses --      1.7982                 1.2667                 1.0450
 Frc consts  --      2.1380                 1.5071                 1.3392
 IR Inten    --     18.6134                28.3164                 0.6404

                     37                     38                     39
                      A                      A                      A
 Frequencies --   1480.8541              1497.7296              1503.9910
 Red. masses --      1.0494                 1.0523                 1.1731
 Frc consts  --      1.3559                 1.3908                 1.5635
 IR Inten    --      1.1525                 9.2256                 2.9172

                     40                     41                     42
                      A                      A                      A
 Frequencies --   1517.5961              2234.3867              3029.6206
 Red. masses --      1.0923                 5.9608                 1.0623
 Frc consts  --      1.4822                17.5335                 5.7446
 IR Inten    --      3.5439                 0.5369                31.7437

                     43                     44                     45
                      A                      A                      A
 Frequencies --   3037.4188              3043.0878              3093.1386
 Red. masses --      1.0403                 1.0396                 1.0993
 Frc consts  --      5.6548                 5.6722                 6.1970
 IR Inten    --     13.9894                31.0875                22.5769

                     46                     47                     48
                      A                      A                      A
 Frequencies --   3094.8968              3101.9552              3145.4751
 Red. masses --      1.1003                 1.1002                 1.0974
 Frc consts  --      6.2096                 6.2375                 6.3973
 IR Inten    --      2.2128                29.1360                17.3284

                     49                     50                     51
                      A                      A                      A
 Frequencies --   3152.1116              3501.2054              3814.7027
 Red. masses --      1.0987                 1.1617                 1.0661
 Frc consts  --      6.4318                 8.3903                 9.1409
 IR Inten    --      8.2843                70.0968                12.9243

 - Thermochemistry -
 -------------------
 Temperature   298.150 Kelvin.  Pressure   1.00000 Atm.
 Atom     1 has atomic number  6 and mass  12.00000

 Molecular mass:   126.06808 amu.
 Principal axes and moments of inertia in atomic units:
                           1         2         3
     Eigenvalues --   942.269311137.947531666.20604
           X            0.99836  -0.04851  -0.03027
           Y            0.04763   0.99844  -0.02905
           Z            0.03163   0.02756   0.99912
 This molecule is an asymmetric top.
 Rotational symmetry number  1.
 Warning -- assumption of classical behavior for rotation
           may cause significant error
 Rotational temperatures (Kelvin)      0.09192     0.07611     0.05198
 Rotational constants (GHZ):           1.91531     1.58596     1.08314
 Zero-point vibrational energy     405429.8 (Joules/Mol)
                                   96.90006 (Kcal/Mol)
 Warning -- explicit consideration of  15 degrees of freedom as
           vibrations may cause significant error
 Vibrational temperatures:     84.11   170.41   204.06   211.64   229.20
          (Kelvin)            294.10   385.26   471.24   508.55   543.95
                              559.28   579.04   724.40   794.25   849.67
                              903.17   946.02   952.74  1075.85  1268.95
                             1321.67  1363.53  1426.65  1438.11  1546.62
                             1612.15  1658.79  1702.26  1753.66  1815.05
                             1956.78  2024.81  2029.51  2043.85  2044.53
                             2121.94  2130.62  2154.90  2163.90  2183.48
                             3214.78  4358.94  4370.16  4378.32  4450.33
                             4452.86  4463.02  4525.63  4535.18  5037.45
                             5488.50

 Zero-point correction=                           0.154420 (Hartree/Particle)
 Thermal correction to Energy=                    0.164905
 Thermal correction to Enthalpy=                  0.165849
 Thermal correction to Gibbs Free Energy=         0.119169
 Sum of electronic and zero-point Energies=           -422.972657
 Sum of electronic and thermal Energies=              -422.962172
 Sum of electronic and thermal Enthalpies=            -422.961228
 Sum of electronic and thermal Free Energies=         -423.007908

                     E (Thermal)             CV                S
                      KCal/Mol        Cal/Mol-Kelvin    Cal/Mol-Kelvin
 Total                  103.479             38.263             98.247
 Electronic               0.000              0.000              0.000
 Translational            0.889              2.981             40.409
 Rotational               0.889              2.981             28.970
 Vibrational            101.702             32.301             28.868
 Vibration     1          0.596              1.974              4.508
 Vibration     2          0.609              1.934              3.126
 Vibration     3          0.615              1.911              2.779
 Vibration     4          0.617              1.906              2.709
 Vibration     5          0.621              1.892              2.558
 Vibration     6          0.640              1.834              2.093
 Vibration     7          0.673              1.732              1.611
 Vibration     8          0.711              1.620              1.272
 Vibration     9          0.730              1.568              1.151
 Vibration    10          0.748              1.517              1.047
 Vibration    11          0.757              1.494              1.005
 Vibration    12          0.768              1.465              0.954
 Vibration    13          0.859              1.242              0.649
 Vibration    14          0.907              1.135              0.540
 Vibration    15          0.948              1.052              0.466

 Normal termination of Gaussian 09 at Tue Jan 28 09:42:27 2020.
