 Gaussian 09, Revision D.01,
 Gaussian 09:  ES64L-G09RevD.01 24-Apr-2013

 -----------------------------
 # b3lyp 6-31G(2df,p) opt Freq
 -----------------------------

 -----
 titel
 -----
 Symbolic Z-matrix:
 Charge =  0 Multiplicity = 1

 SCF Done:  E(RB3LYP) =  -423.225122727     A.U. after   14 cycles
 Optimization completed.
    -- Stationary point found.
 Normal termination of Gaussian 09 at Mon Jan 27 10:21:31 2020.

 ----------------------------------------------------------------------
 #N Geom=AllCheck Guess=TCheck SCRF=Check GenChk RB3LYP/6-31G(2df,p) Fr
 eq
 ----------------------------------------------------------------------

 Structure from the checkpoint file:  "/scratch/puck/g09_9adb41fc-9b46-45c6-bab7-b1a288183292/Gau-14501.chk"
 -----
 titel
 -----
 Charge =  0 Multiplicity = 1

                         Standard orientation:
 ---------------------------------------------------------------------
 Center     Atomic      Atomic             Coordinates (Angstroms)
 Number     Number       Type             X           Y           Z
 ---------------------------------------------------------------------
      1          6           0       -2.317911   -0.557134    1.159245
      2          6           0       -1.827688    0.246720   -0.052031
      3          8           0       -2.202822   -0.392352   -1.274240
      4          6           0       -0.357959    0.514865   -0.003297
      5          6           0        0.405439    1.636788    0.037139
      6          6           0        1.772162    1.200550    0.053513
      7          6           0        1.748711   -0.158290    0.014958
      8          6           0        2.804562   -1.203982   -0.001175
      9          8           0        0.451820   -0.591321   -0.015333
     10          1           0       -1.791885   -1.515338    1.220665
     11          1           0       -2.136465   -0.012062    2.090885
     12          1           0       -3.389284   -0.751562    1.063153
     13          1           0       -2.333724    1.217437   -0.071795
     14          1           0       -1.659879   -1.184456   -1.355208
     15          1           0        0.041398    2.652440    0.050143
     16          1           0        2.656020    1.818693    0.085270
     17          1           0        3.790005   -0.734308    0.032549
     18          1           0        2.717669   -1.879454    0.857728
     19          1           0        2.750260   -1.819115   -0.906914
 ---------------------------------------------------------------------

 SCF Done:  E(RB3LYP) =  -423.225122727     A.U. after    1 cycles

 The electronic state is 1-A.
 Alpha  occ. eigenvalues --  -19.19714 -19.12990 -10.23855 -10.23164 -10.22262
 Alpha  occ. eigenvalues --  -10.19297 -10.17579 -10.17475 -10.17384  -1.10037
 Alpha  occ. eigenvalues --   -1.01188  -0.79244  -0.78850  -0.74534  -0.68318
 Alpha  occ. eigenvalues --   -0.61867  -0.59619  -0.54326  -0.51940  -0.46328
 Alpha  occ. eigenvalues --   -0.45501  -0.44917  -0.43032  -0.40991  -0.40605
 Alpha  occ. eigenvalues --   -0.39960  -0.38293  -0.37801  -0.36956  -0.35631
 Alpha  occ. eigenvalues --   -0.32835  -0.27245  -0.26752  -0.21153
 Alpha virt. eigenvalues --    0.01646   0.07475   0.08878   0.11152   0.11671
 Alpha virt. eigenvalues --    0.13484   0.14909   0.15894   0.16934   0.17091
 Alpha virt. eigenvalues --    0.17744   0.18401   0.19190   0.20853   0.23109

 Mulliken charges:
               1
     1  C   -0.398069
     2  C    0.010765
     3  O   -0.429393
     4  C    0.363613
     5  C   -0.282074
     6  C   -0.256520
     7  C    0.347572
     8  C   -0.492765
     9  O   -0.233421
    10  H    0.119949
    11  H    0.118319
    12  H    0.121855
    13  H    0.099748
    14  H    0.283423
    15  H    0.109484
    16  H    0.106882
    17  H    0.136719
    18  H    0.137121
    19  H    0.136792
 Sum of Mulliken charges =   0.00000

 Dipole moment (field-independent basis, Debye):
    X=              1.5410    Y=             -0.3435    Z=              0.9668  Tot=              1.8513
 Quadrupole moment (field-independent basis, Debye-Ang):
   XX=            -51.5923   YY=            -48.9326   ZZ=            -56.2611
   XY=             -1.0768   XZ=             -3.3438   YZ=              1.3442

  Exact polarizability: 100.733  -2.175  83.144  -1.062   1.240  55.435
 Approx polarizability: 135.168  -1.023 135.160   2.183   3.665  82.601

                      1                      2                      3
                      A                      A                      A
 Frequencies --     47.4142               112.8994               134.5142
 Red. masses --      3.4800                 2.1950                 1.3719
 Frc consts  --      0.0046                 0.0165                 0.0146
 IR Inten    --      0.9486                 0.4424                 0.4118

                      4                      5                      6
                      A                      A                      A
 Frequencies --    154.3308               233.4251               246.1553
 Red. masses --      2.9887                 2.9571                 1.0901
 Frc consts  --      0.0419                 0.0949                 0.0389
 IR Inten    --      1.5288                 2.7063                 0.1875

                      7                      8                      9
                      A                      A                      A
 Frequencies --    289.1312               331.6066               365.3762
 Red. masses --      1.1650                 2.9129                 2.8912
 Frc consts  --      0.0574                 0.1887                 0.2274
 IR Inten    --     96.6523                19.6039                 3.2434

                     10                     11                     12
                      A                      A                      A
 Frequencies --    420.7848               511.7073               627.2095
 Red. masses --      5.1693                 3.0990                 3.2892
 Frc consts  --      0.5393                 0.4781                 0.7624
 IR Inten    --     12.6918                 8.1713                 2.5562

                     13                     14                     15
                      A                      A                      A
 Frequencies --    635.3076               697.6879               725.8691
 Red. masses --      3.8307                 3.9558                 4.4719
 Frc consts  --      0.9110                 1.1345                 1.3882
 IR Inten    --      0.1291                 1.3596                 6.7244

                     16                     17                     18
                      A                      A                      A
 Frequencies --    800.5940               833.0391               894.7225
 Red. masses --      1.1983                 1.3434                 2.5216
 Frc consts  --      0.4525                 0.5493                 1.1893
 IR Inten    --     37.0903                 1.0744                17.6717

                     19                     20                     21
                      A                      A                      A
 Frequencies --    955.6249               977.4625              1001.7249
 Red. masses --      2.6745                 2.9850                 2.0955
 Frc consts  --      1.4390                 1.6803                 1.2389
 IR Inten    --      9.7065                12.8654                 7.0261

                     22                     23                     24
                      A                      A                      A
 Frequencies --   1033.7440              1042.3542              1064.4829
 Red. masses --      1.9953                 1.4386                 1.4757
 Frc consts  --      1.2563                 0.9209                 0.9852
 IR Inten    --     42.1424                31.6757                 2.3509

                     25                     26                     27
                      A                      A                      A
 Frequencies --   1084.1738              1094.7590              1212.2318
 Red. masses --      2.0545                 2.4067                 1.3444
 Frc consts  --      1.4229                 1.6995                 1.1640
 IR Inten    --     12.0979                85.9687                 2.4720

                     28                     29                     30
                      A                      A                      A
 Frequencies --   1234.6527              1253.7514              1286.6352
 Red. masses --      6.3980                 4.2332                 1.4293
 Frc consts  --      5.7462                 3.9205                 1.3941
 IR Inten    --      5.6656                19.5724                 6.8488

                     31                     32                     33
                      A                      A                      A
 Frequencies --   1338.6422              1390.6417              1399.4073
 Red. masses --      1.5019                 1.8896                 1.4410
 Frc consts  --      1.5857                 2.1530                 1.6627
 IR Inten    --     24.1924                 7.4153                10.2688

                     34                     35                     36
                      A                      A                      A
 Frequencies --   1416.0364              1420.7379              1472.5406
 Red. masses --      1.2786                 1.2566                 1.0427
 Frc consts  --      1.5105                 1.4944                 1.3321
 IR Inten    --      9.7121                46.4726                 5.6736

                     37                     38                     39
                      A                      A                      A
 Frequencies --   1488.4274              1491.0351              1494.3865
 Red. masses --      1.0487                 1.0994                 1.0715
 Frc consts  --      1.3689                 1.4401                 1.4098
 IR Inten    --      7.5384                 6.0790                 0.3139

                     40                     41                     42
                      A                      A                      A
 Frequencies --   1601.4246              1659.4278              3028.5039
 Red. masses --      7.1284                 6.3067                 1.0384
 Frc consts  --     10.7710                10.2321                 5.6114
 IR Inten    --     18.5920                 5.0041                31.8181

                     43                     44                     45
                      A                      A                      A
 Frequencies --   3037.7313              3064.6697              3077.6002
 Red. masses --      1.0343                 1.0857                 1.1002
 Frc consts  --      5.6233                 6.0079                 6.1395
 IR Inten    --     14.2752                13.3852                15.6223

                     46                     47                     48
                      A                      A                      A
 Frequencies --   3111.4572              3123.5324              3129.5934
 Red. masses --      1.1010                 1.1028                 1.0979
 Frc consts  --      6.2803                 6.3392                 6.3356
 IR Inten    --     25.7754                26.5722                 9.4613

                     49                     50                     51
                      A                      A                      A
 Frequencies --   3248.1584              3261.5366              3806.1306
 Red. masses --      1.0926                 1.1014                 1.0660
 Frc consts  --      6.7919                 6.9032                 9.0982
 IR Inten    --      6.7407                 1.1297                16.9511

 - Thermochemistry -
 -------------------
 Temperature   298.150 Kelvin.  Pressure   1.00000 Atm.
 Atom     1 has atomic number  6 and mass  12.00000

 Molecular mass:   126.06808 amu.
 Principal axes and moments of inertia in atomic units:
                           1         2         3
     Eigenvalues --   567.266781695.085321887.88487
           X            0.99973  -0.01151  -0.02031
           Y            0.01120   0.99982  -0.01529
           Z            0.02048   0.01506   0.99968
 This molecule is an asymmetric top.
 Rotational symmetry number  1.
 Warning -- assumption of classical behavior for rotation
           may cause significant error
 Rotational temperatures (Kelvin)      0.15269     0.05110     0.04588
 Rotational constants (GHZ):           3.18147     1.06469     0.95596
 Zero-point vibrational energy     414894.8 (Joules/Mol)
                                   99.16223 (Kcal/Mol)
 Warning -- explicit consideration of  11 degrees of freedom as
           vibrations may cause significant error
 Vibrational temperatures:     68.22   162.44   193.54   222.05   335.85
          (Kelvin)            354.16   415.99   477.11   525.69   605.41
                              736.23   902.41   914.06  1003.82  1044.36
                             1151.87  1198.56  1287.30  1374.93  1406.35
                             1441.26  1487.33  1499.71  1531.55  1559.88
                             1575.11  1744.13  1776.39  1803.87  1851.18
                             1926.01  2000.82  2013.43  2037.36  2044.12
                             2118.65  2141.51  2145.26  2150.09  2304.09
                             2387.54  4357.34  4370.61  4409.37  4427.97
                             4476.69  4494.06  4502.78  4673.37  4692.62
                             5476.17

 Zero-point correction=                           0.158025 (Hartree/Particle)
 Thermal correction to Energy=                    0.167474
 Thermal correction to Enthalpy=                  0.168419
 Thermal correction to Gibbs Free Energy=         0.123342
 Sum of electronic and zero-point Energies=           -423.067098
 Sum of electronic and thermal Energies=              -423.057648
 Sum of electronic and thermal Enthalpies=            -423.056704
 Sum of electronic and thermal Free Energies=         -423.101781

                     E (Thermal)             CV                S
                      KCal/Mol        Cal/Mol-Kelvin    Cal/Mol-Kelvin
 Total                  105.092             34.488             94.873
 Electronic               0.000              0.000              0.000
 Translational            0.889              2.981             40.409
 Rotational               0.889              2.981             28.986
 Vibrational            103.314             28.526             25.478
 Vibration     1          0.595              1.979              4.922
 Vibration     2          0.607              1.939              3.218
 Vibration     3          0.613              1.919              2.880
 Vibration     4          0.620              1.898              2.618
 Vibration     5          0.654              1.790              1.852
 Vibration     6          0.661              1.769              1.758
 Vibration     7          0.686              1.694              1.479
 Vibration     8          0.714              1.612              1.252
 Vibration     9          0.739              1.544              1.099
 Vibration    10          0.783              1.425              0.889
 Vibration    11          0.867              1.224              0.629

 Normal termination of Gaussian 09 at Mon Jan 27 11:00:44 2020.
