 Gaussian 09, Revision D.01,
 Gaussian 09:  ES64L-G09RevD.01 24-Apr-2013

 -----------------------------
 # b3lyp 6-31G(2df,p) opt Freq
 -----------------------------

 -----
 titel
 -----
 Symbolic Z-matrix:
 Charge =  0 Multiplicity = 1

 SCF Done:  E(RB3LYP) =  -423.159351398     A.U. after   14 cycles
 SCF Done:  E(RB3LYP) =  -423.159351629     A.U. after    7 cycles
 SCF Done:  E(RB3LYP) =  -423.159350600     A.U. after    7 cycles
 SCF Done:  E(RB3LYP) =  -423.159351786     A.U. after    7 cycles
 Optimization completed.
    -- Stationary point found.
 Normal termination of Gaussian 09 at Mon Jan 27 23:10:52 2020.

 ----------------------------------------------------------------------
 #N Geom=AllCheck Guess=TCheck SCRF=Check GenChk RB3LYP/6-31G(2df,p) Fr
 eq
 ----------------------------------------------------------------------

 Structure from the checkpoint file:  "/scratch/puck/g09_3ac102a2-75b4-409f-b84d-ef700f8a9f85/Gau-65258.chk"
 -----
 titel
 -----
 Charge =  0 Multiplicity = 1

                         Standard orientation:
 ---------------------------------------------------------------------
 Center     Atomic      Atomic             Coordinates (Angstroms)
 Number     Number       Type             X           Y           Z
 ---------------------------------------------------------------------
      1          6           0        1.398482    1.775069   -0.043509
      2          6           0        0.542893    0.557543    0.147883
      3          6           0        0.869682   -0.785238   -0.453163
      4          8           0        2.172759   -0.862498   -0.956734
      5          6           0        0.723642   -0.682913    1.043935
      6          6           0       -0.758381   -0.673295    1.428801
      7          6           0       -0.965793    0.581644    0.529930
      8          6           0       -1.910114    0.493509   -0.636911
      9          8           0       -2.551580   -0.483634   -0.937122
     10          1           0        1.356747    2.432715    0.832179
     11          1           0        2.437396    1.484075   -0.212210
     12          1           0        1.072095    2.357860   -0.913338
     13          1           0        0.122992   -1.329288   -1.035766
     14          1           0        2.504753   -1.748911   -0.781354
     15          1           0        1.558310   -0.919237    1.694089
     16          1           0       -1.341756   -1.551422    1.139604
     17          1           0       -0.933474   -0.457015    2.484174
     18          1           0       -1.194320    1.486440    1.104256
     19          1           0       -1.954637    1.415915   -1.262582
 ---------------------------------------------------------------------

 SCF Done:  E(RB3LYP) =  -423.159351786     A.U. after    1 cycles

 The electronic state is 1-A.
 Alpha  occ. eigenvalues --  -19.14905 -19.13809 -10.26781 -10.23680 -10.20703
 Alpha  occ. eigenvalues --  -10.20130 -10.19266 -10.18927 -10.18020  -1.04388
 Alpha  occ. eigenvalues --   -1.03465  -0.89721  -0.74600  -0.72761  -0.67168
 Alpha  occ. eigenvalues --   -0.59025  -0.58023  -0.52882  -0.51566  -0.49064
 Alpha  occ. eigenvalues --   -0.45804  -0.45522  -0.43692  -0.41372  -0.40634
 Alpha  occ. eigenvalues --   -0.39097  -0.38221  -0.37529  -0.34401  -0.32538
 Alpha  occ. eigenvalues --   -0.31175  -0.27459  -0.26040  -0.23420
 Alpha virt. eigenvalues --   -0.02048   0.07094   0.09325   0.10242   0.11951
 Alpha virt. eigenvalues --    0.13268   0.14186   0.14620   0.15377   0.16689
 Alpha virt. eigenvalues --    0.17991   0.18654   0.19680   0.20409   0.22147

 Mulliken charges:
               1
     1  C   -0.502200
     2  C    0.303295
     3  C    0.048729
     4  O   -0.433946
     5  C   -0.151344
     6  C   -0.265782
     7  C   -0.149942
     8  C    0.149644
     9  O   -0.252750
    10  H    0.113688
    11  H    0.144917
    12  H    0.120219
    13  H    0.099945
    14  H    0.290952
    15  H    0.088008
    16  H    0.120690
    17  H    0.108497
    18  H    0.092987
    19  H    0.074394
 Sum of Mulliken charges =   0.00000

 Dipole moment (field-independent basis, Debye):
    X=              1.5607    Y=              0.5728    Z=              1.6871  Tot=              2.3686
 Quadrupole moment (field-independent basis, Debye-Ang):
   XX=            -58.6907   YY=            -48.6939   ZZ=            -54.1633
   XY=             -6.9322   XZ=             -1.3890   YZ=             -0.5309

  Exact polarizability:  80.798   0.696  77.471   1.082  -2.386  70.099
 Approx polarizability: 112.631   4.262 118.635   3.124  -0.735 105.082

                      1                      2                      3
                      A                      A                      A
 Frequencies --     68.2518               130.2417               184.3249
 Red. masses --      6.4282                 3.1551                 1.1638
 Frc consts  --      0.0176                 0.0315                 0.0233
 IR Inten    --      4.7793                 2.9588                 1.5980

                      4                      5                      6
                      A                      A                      A
 Frequencies --    192.8982               247.6081               265.2505
 Red. masses --      2.1562                 3.4932                 2.9351
 Frc consts  --      0.0473                 0.1262                 0.1217
 IR Inten    --      4.2949                14.8494                 1.8277

                      7                      8                      9
                      A                      A                      A
 Frequencies --    288.4390               294.6495               356.3670
 Red. masses --      2.3140                 1.1783                 3.1666
 Frc consts  --      0.1134                 0.0603                 0.2369
 IR Inten    --      7.8240                81.6640                 3.1649

                     10                     11                     12
                      A                      A                      A
 Frequencies --    424.1465               525.0081               628.2736
 Red. masses --      2.6011                 5.1978                 3.5377
 Frc consts  --      0.2757                 0.8441                 0.8227
 IR Inten    --      3.3007                 6.7318                18.2183

                     13                     14                     15
                      A                      A                      A
 Frequencies --    661.9080               699.8906               795.9830
 Red. masses --      3.4349                 2.7937                 2.7986
 Frc consts  --      0.8867                 0.8063                 1.0447
 IR Inten    --      1.4663                 0.7364                17.2672

                     16                     17                     18
                      A                      A                      A
 Frequencies --    839.9952               917.9487               936.0887
 Red. masses --      3.2855                 1.4260                 1.5957
 Frc consts  --      1.3659                 0.7079                 0.8238
 IR Inten    --      3.2695                10.0018                 0.7324

                     19                     20                     21
                      A                      A                      A
 Frequencies --    960.2583               990.7729              1020.3437
 Red. masses --      2.4529                 1.4702                 1.6936
 Frc consts  --      1.3326                 0.8503                 1.0389
 IR Inten    --      5.9925                 2.4686                12.1588

                     22                     23                     24
                      A                      A                      A
 Frequencies --   1056.8135              1091.7009              1096.2341
 Red. masses --      1.8815                 1.4530                 1.8905
 Frc consts  --      1.2381                 1.0203                 1.3386
 IR Inten    --     13.2449                 4.3202                16.2097

                     25                     26                     27
                      A                      A                      A
 Frequencies --   1109.8261              1135.5959              1175.1875
 Red. masses --      1.8533                 2.3584                 1.9869
 Frc consts  --      1.3450                 1.7919                 1.6167
 IR Inten    --     12.5294                17.3521                44.5308

                     28                     29                     30
                      A                      A                      A
 Frequencies --   1192.0172              1217.3750              1249.0113
 Red. masses --      1.5238                 2.0288                 1.9040
 Frc consts  --      1.2757                 1.7715                 1.7500
 IR Inten    --      3.8194                 0.9517                 7.6713

                     31                     32                     33
                      A                      A                      A
 Frequencies --   1267.7227              1301.5247              1339.6067
 Red. masses --      1.3778                 1.4554                 1.7230
 Frc consts  --      1.3047                 1.4525                 1.8218
 IR Inten    --     24.1462                41.7563                 4.2107

                     34                     35                     36
                      A                      A                      A
 Frequencies --   1363.5787              1413.0737              1425.0929
 Red. masses --      1.5427                 1.3586                 1.2339
 Frc consts  --      1.6900                 1.5983                 1.4764
 IR Inten    --      5.5671                 3.3581                 7.2703

                     37                     38                     39
                      A                      A                      A
 Frequencies --   1457.0059              1488.9199              1491.5471
 Red. masses --      2.2359                 1.0805                 1.0820
 Frc consts  --      2.7965                 1.4113                 1.4183
 IR Inten    --      2.7784                 2.0499                 3.6122

                     40                     41                     42
                      A                      A                      A
 Frequencies --   1498.3702              1816.9410              2855.5562
 Red. masses --      1.1204                10.2924                 1.0820
 Frc consts  --      1.4821                20.0192                 5.1982
 IR Inten    --      8.2547               146.6699               121.5664

                     43                     44                     45
                      A                      A                      A
 Frequencies --   3025.2688              3048.5570              3066.8446
 Red. masses --      1.0389                 1.0840                 1.0591
 Frc consts  --      5.6022                 5.9354                 5.8691
 IR Inten    --     34.2103                19.8524                30.1043

                     46                     47                     48
                      A                      A                      A
 Frequencies --   3074.8752              3078.5701              3121.2845
 Red. masses --      1.0879                 1.1002                 1.1072
 Frc consts  --      6.0603                 6.1435                 6.3553
 IR Inten    --     21.0845                25.9622                14.3629

                     49                     50                     51
                      A                      A                      A
 Frequencies --   3130.0631              3178.4605              3811.0970
 Red. masses --      1.0969                 1.0922                 1.0664
 Frc consts  --      6.3315                 6.5011                 9.1254
 IR Inten    --      7.1201                15.1139                28.4500

 - Thermochemistry -
 -------------------
 Temperature   298.150 Kelvin.  Pressure   1.00000 Atm.
 Atom     1 has atomic number  6 and mass  12.00000

 Molecular mass:   126.06808 amu.
 Principal axes and moments of inertia in atomic units:
                           1         2         3
     Eigenvalues --   723.436401438.997171495.57943
           X            0.99991   0.00576  -0.01200
           Y           -0.00740   0.98986  -0.14182
           Z            0.01106   0.14190   0.98982
 This molecule is an asymmetric top.
 Rotational symmetry number  1.
 Warning -- assumption of classical behavior for rotation
           may cause significant error
 Rotational temperatures (Kelvin)      0.11973     0.06019     0.05791
 Rotational constants (GHZ):           2.49468     1.25417     1.20672
 Zero-point vibrational energy     412749.7 (Joules/Mol)
                                   98.64956 (Kcal/Mol)
 Warning -- explicit consideration of  11 degrees of freedom as
           vibrations may cause significant error
 Vibrational temperatures:     98.20   187.39   265.20   277.54   356.25
          (Kelvin)            381.64   415.00   423.93   512.73   610.25
                              755.37   903.94   952.34  1006.99  1145.24
                             1208.56  1320.72  1346.82  1381.60  1425.50
                             1468.05  1520.52  1570.71  1577.23  1596.79
                             1633.87  1690.83  1715.04  1751.53  1797.05
                             1823.97  1872.60  1927.39  1961.88  2033.10
                             2050.39  2096.30  2142.22  2146.00  2155.82
                             2614.17  4108.50  4352.68  4386.19  4412.50
                             4424.05  4429.37  4490.83  4503.46  4573.09
                             5483.31

 Zero-point correction=                           0.157208 (Hartree/Particle)
 Thermal correction to Energy=                    0.166354
 Thermal correction to Enthalpy=                  0.167298
 Thermal correction to Gibbs Free Energy=         0.123371
 Sum of electronic and zero-point Energies=           -423.002144
 Sum of electronic and thermal Energies=              -422.992998
 Sum of electronic and thermal Enthalpies=            -422.992053
 Sum of electronic and thermal Free Energies=         -423.035981

                     E (Thermal)             CV                S
                      KCal/Mol        Cal/Mol-Kelvin    Cal/Mol-Kelvin
 Total                  104.389             33.981             92.453
 Electronic               0.000              0.000              0.000
 Translational            0.889              2.981             40.409
 Rotational               0.889              2.981             28.833
 Vibrational            102.611             28.020             23.211
 Vibration     1          0.598              1.969              4.203
 Vibration     2          0.612              1.923              2.942
 Vibration     3          0.631              1.861              2.284
 Vibration     4          0.635              1.850              2.200
 Vibration     5          0.661              1.767              1.748
 Vibration     6          0.671              1.737              1.627
 Vibration     7          0.685              1.695              1.483
 Vibration     8          0.689              1.684              1.447
 Vibration     9          0.732              1.562              1.138
 Vibration    10          0.786              1.418              0.878
 Vibration    11          0.880              1.195              0.598

 Normal termination of Gaussian 09 at Mon Jan 27 23:53:24 2020.
