 Gaussian 09, Revision D.01,
 Gaussian 09:  ES64L-G09RevD.01 24-Apr-2013

 -----------------------------
 # b3lyp 6-31G(2df,p) opt Freq
 -----------------------------

 -----
 titel
 -----
 Symbolic Z-matrix:
 Charge =  0 Multiplicity = 1

 SCF Done:  E(RB3LYP) =  -423.207639967     A.U. after   14 cycles
 Optimization completed.
    -- Stationary point found.
 Normal termination of Gaussian 09 at Tue Jan 28 02:54:16 2020.

 ----------------------------------------------------------------------
 #N Geom=AllCheck Guess=TCheck SCRF=Check GenChk RB3LYP/6-31G(2df,p) Fr
 eq
 ----------------------------------------------------------------------

 Structure from the checkpoint file:  "/scratch/puck/g09_363986c9-7b8d-4a74-aa84-8cdf578f8339/Gau-66976.chk"
 -----
 titel
 -----
 Charge =  0 Multiplicity = 1

                         Standard orientation:
 ---------------------------------------------------------------------
 Center     Atomic      Atomic             Coordinates (Angstroms)
 Number     Number       Type             X           Y           Z
 ---------------------------------------------------------------------
      1          6           0       -3.190544    0.046468   -0.000216
      2          6           0       -1.711600    0.393029   -0.000015
      3          6           0       -0.788417   -0.235067    1.083290
      4          6           0        0.309385   -0.386839    0.000260
      5          6           0        1.444150   -1.418439    0.000081
      6          8           0        2.438246   -0.339315   -0.000372
      7          6           0        1.455977    0.621352    0.000117
      8          8           0        1.590571    1.803708    0.000119
      9          6           0       -0.788121   -0.234946   -1.083151
     10          1           0       -3.693427    0.453003    0.884124
     11          1           0       -3.693269    0.453270   -0.884520
     12          1           0       -3.340539   -1.039396   -0.000389
     13          1           0       -1.573543    1.478676    0.000051
     14          1           0       -0.544291    0.361292    1.965160
     15          1           0       -1.154702   -1.216557    1.403536
     16          1           0        1.541412   -2.031787    0.899149
     17          1           0        1.540890   -2.032115   -0.898813
     18          1           0       -0.543736    0.361526   -1.964869
     19          1           0       -1.154308   -1.216402   -1.403612
 ---------------------------------------------------------------------

 SCF Done:  E(RB3LYP) =  -423.207639967     A.U. after    1 cycles

 The electronic state is 1-A.
 Alpha  occ. eigenvalues --  -19.17747 -19.13153 -10.30170 -10.24983 -10.21564
 Alpha  occ. eigenvalues --  -10.19960 -10.19795 -10.19794 -10.18245  -1.10125
 Alpha  occ. eigenvalues --   -1.02868  -0.86645  -0.75320  -0.70050  -0.67772
 Alpha  occ. eigenvalues --   -0.65524  -0.57342  -0.51755  -0.50668  -0.49709
 Alpha  occ. eigenvalues --   -0.47994  -0.45787  -0.42216  -0.42064  -0.41417
 Alpha  occ. eigenvalues --   -0.39007  -0.38937  -0.37188  -0.34686  -0.34218
 Alpha  occ. eigenvalues --   -0.31626  -0.30657  -0.29757  -0.26609
 Alpha virt. eigenvalues --    0.01107   0.07452   0.08338   0.09109   0.10879
 Alpha virt. eigenvalues --    0.12943   0.13033   0.14293   0.14974   0.16313
 Alpha virt. eigenvalues --    0.16432   0.18090   0.18207   0.19804   0.21279

 Mulliken charges:
               1
     1  C   -0.414340
     2  C    0.064085
     3  C   -0.300934
     4  C    0.119704
     5  C   -0.161073
     6  O   -0.250908
     7  C    0.438351
     8  O   -0.335949
     9  C   -0.300865
    10  H    0.120567
    11  H    0.120567
    12  H    0.110240
    13  H    0.099667
    14  H    0.118355
    15  H    0.103440
    16  H    0.123644
    17  H    0.123643
    18  H    0.118369
    19  H    0.103437
 Sum of Mulliken charges =   0.00000

 Dipole moment (field-independent basis, Debye):
    X=             -2.7131    Y=             -3.0271    Z=              0.0005  Tot=              4.0650
 Quadrupole moment (field-independent basis, Debye-Ang):
   XX=            -59.3216   YY=            -55.3307   ZZ=            -51.2234
   XY=             -4.9912   XZ=              0.0017   YZ=             -0.0006

  Exact polarizability:  84.571  -1.710  76.636   0.000   0.000  65.380
 Approx polarizability: 107.500  -0.621 123.879  -0.001   0.002  97.168

                      1                      2                      3
                      A                      A                      A
 Frequencies --     69.4640               120.7619               164.2380
 Red. masses --      3.5386                 5.4235                 2.8262
 Frc consts  --      0.0101                 0.0466                 0.0449
 IR Inten    --      1.9993                 0.5923                 3.2765

                      4                      5                      6
                      A                      A                      A
 Frequencies --    224.4565               233.5850               281.9660
 Red. masses --      1.1226                 3.8828                 1.9488
 Frc consts  --      0.0333                 0.1248                 0.0913
 IR Inten    --      0.0247                 2.1751                 0.2793

                      7                      8                      9
                      A                      A                      A
 Frequencies --    363.7064               399.4059               464.8379
 Red. masses --      2.3014                 2.1503                 3.2467
 Frc consts  --      0.1794                 0.2021                 0.4133
 IR Inten    --      0.5659                 0.2879                 0.8918

                     10                     11                     12
                      A                      A                      A
 Frequencies --    543.0318               712.1527               732.9225
 Red. masses --      3.6369                 3.2726                 3.9952
 Frc consts  --      0.6319                 0.9779                 1.2645
 IR Inten    --      1.4118                 2.5903                 5.0046

                     13                     14                     15
                      A                      A                      A
 Frequencies --    781.1583               828.5680               842.3108
 Red. masses --      6.7176                 1.5534                 2.8595
 Frc consts  --      2.4151                 0.6283                 1.1953
 IR Inten    --      3.5480                 0.1843                 0.3283

                     16                     17                     18
                      A                      A                      A
 Frequencies --    894.4215               907.0988               918.7048
 Red. masses --      2.1228                 1.6298                 3.2416
 Frc consts  --      1.0006                 0.7901                 1.6120
 IR Inten    --      0.0075                 0.1245                13.7695

                     19                     20                     21
                      A                      A                      A
 Frequencies --    952.8064               959.9561              1064.0564
 Red. masses --      1.3721                 5.3404                 1.1649
 Frc consts  --      0.7339                 2.8995                 0.7771
 IR Inten    --      7.7551                67.8618                 0.9290

                     22                     23                     24
                      A                      A                      A
 Frequencies --   1087.8212              1107.7985              1124.0393
 Red. masses --      2.2823                 3.7464                 2.0101
 Frc consts  --      1.5913                 2.7088                 1.4963
 IR Inten    --      2.4297               156.3722                 1.7230

                     25                     26                     27
                      A                      A                      A
 Frequencies --   1149.6308              1177.2618              1195.7720
 Red. masses --      1.2582                 1.9621                 2.6254
 Frc consts  --      0.9797                 1.6022                 2.2118
 IR Inten    --      0.1746                 0.0086                 5.9270

                     28                     29                     30
                      A                      A                      A
 Frequencies --   1218.9932              1236.2998              1260.7377
 Red. masses --      2.0630                 1.3499                 1.5182
 Frc consts  --      1.8061                 1.2156                 1.4217
 IR Inten    --      2.6328                 0.0053                 0.3897

                     31                     32                     33
                      A                      A                      A
 Frequencies --   1294.0299              1297.0543              1350.0082
 Red. masses --      1.3024                 2.0678                 1.8067
 Frc consts  --      1.2849                 2.0497                 1.9400
 IR Inten    --      0.1863                10.4012                17.8653

                     34                     35                     36
                      A                      A                      A
 Frequencies --   1382.9378              1412.8513              1467.8426
 Red. masses --      1.5761                 1.2950                 1.0873
 Frc consts  --      1.7760                 1.5230                 1.3802
 IR Inten    --     18.2671                 2.9943                 1.8892

                     37                     38                     39
                      A                      A                      A
 Frequencies --   1489.8888              1495.0683              1496.3065
 Red. masses --      1.1166                 1.0495                 1.0562
 Frc consts  --      1.4603                 1.3821                 1.3933
 IR Inten    --      0.1498                 2.0171                 6.9797

                     40                     41                     42
                      A                      A                      A
 Frequencies --   1512.2411              1927.0740              3023.9391
 Red. masses --      1.0990                12.6634                 1.0356
 Frc consts  --      1.4807                27.7075                 5.5796
 IR Inten    --      1.5421               353.1566                23.0653

                     43                     44                     45
                      A                      A                      A
 Frequencies --   3043.4184              3046.9370              3060.9546
 Red. masses --      1.0595                 1.0652                 1.0802
 Frc consts  --      5.7821                 5.8264                 5.9633
 IR Inten    --     30.9559                 8.0724                 2.7010

                     46                     47                     48
                      A                      A                      A
 Frequencies --   3062.5743              3092.8913              3095.4852
 Red. masses --      1.0569                 1.1005                 1.1010
 Frc consts  --      5.8409                 6.2028                 6.2160
 IR Inten    --     37.3948                25.8130                23.4516

                     49                     50                     51
                      A                      A                      A
 Frequencies --   3110.7798              3113.8869              3122.5208
 Red. masses --      1.1050                 1.1049                 1.1131
 Frc consts  --      6.2999                 6.3120                 6.3941
 IR Inten    --     17.6223                33.8290                17.1485

 - Thermochemistry -
 -------------------
 Temperature   298.150 Kelvin.  Pressure   1.00000 Atm.
 Atom     1 has atomic number  6 and mass  12.00000

 Molecular mass:   126.06808 amu.
 Principal axes and moments of inertia in atomic units:
                           1         2         3
     Eigenvalues --   520.649801609.418051822.09966
           X            0.99983  -0.01823   0.00001
           Y            0.01823   0.99983  -0.00001
           Z            0.00000   0.00001   1.00000
 This molecule is an asymmetric top.
 Rotational symmetry number  1.
 Warning -- assumption of classical behavior for rotation
           may cause significant error
 Rotational temperatures (Kelvin)      0.16636     0.05382     0.04754
 Rotational constants (GHZ):           3.46632     1.12136     0.99047
 Zero-point vibrational energy     418194.5 (Joules/Mol)
                                   99.95087 (Kcal/Mol)
 Warning -- explicit consideration of  10 degrees of freedom as
           vibrations may cause significant error
 Vibrational temperatures:     99.94   173.75   236.30   322.94   336.08
          (Kelvin)            405.69   523.29   574.66   668.80   781.30
                             1024.63  1054.51  1123.91  1192.12  1211.90
                             1286.87  1305.11  1321.81  1370.87  1381.16
                             1530.94  1565.13  1593.87  1617.24  1654.06
                             1693.82  1720.45  1753.86  1778.76  1813.92
                             1861.82  1866.17  1942.36  1989.74  2032.78
                             2111.90  2143.61  2151.07  2152.85  2175.77
                             2772.63  4350.77  4378.79  4383.86  4404.03
                             4406.36  4449.98  4453.71  4475.71  4480.18
                             4492.61

 Zero-point correction=                           0.159282 (Hartree/Particle)
 Thermal correction to Energy=                    0.167751
 Thermal correction to Enthalpy=                  0.168695
 Thermal correction to Gibbs Free Energy=         0.125881
 Sum of electronic and zero-point Energies=           -423.048358
 Sum of electronic and thermal Energies=              -423.039889
 Sum of electronic and thermal Enthalpies=            -423.038945
 Sum of electronic and thermal Free Energies=         -423.081759

                     E (Thermal)             CV                S
                      KCal/Mol        Cal/Mol-Kelvin    Cal/Mol-Kelvin
 Total                  105.265             31.712             90.110
 Electronic               0.000              0.000              0.000
 Translational            0.889              2.981             40.409
 Rotational               0.889              2.981             28.814
 Vibrational            103.488             25.751             20.887
 Vibration     1          0.598              1.969              4.168
 Vibration     2          0.609              1.932              3.088
 Vibration     3          0.623              1.886              2.500
 Vibration     4          0.649              1.804              1.923
 Vibration     5          0.654              1.790              1.851
 Vibration     6          0.681              1.707              1.522
 Vibration     7          0.737              1.547              1.106
 Vibration     8          0.765              1.471              0.965
 Vibration     9          0.822              1.328              0.752
 Vibration    10          0.898              1.155              0.559

 Optimization completed.
    -- Stationary point found.
 Normal termination of Gaussian 09 at Tue Jan 28 03:38:02 2020.
