 Gaussian 09, Revision D.01,
 Gaussian 09:  ES64L-G09RevD.01 24-Apr-2013

 -----------------------------
 # b3lyp 6-31G(2df,p) opt Freq
 -----------------------------

 -----
 titel
 -----
 Symbolic Z-matrix:
 Charge =  0 Multiplicity = 1

 SCF Done:  E(RB3LYP) =  -423.177793902     A.U. after   13 cycles
 SCF Done:  E(RB3LYP) =  -423.177794094     A.U. after    6 cycles
 Optimization completed.
    -- Stationary point found.
 Normal termination of Gaussian 09 at Mon Jan 27 12:24:18 2020.

 ----------------------------------------------------------------------
 #N Geom=AllCheck Guess=TCheck SCRF=Check GenChk RB3LYP/6-31G(2df,p) Fr
 eq
 ----------------------------------------------------------------------

 Structure from the checkpoint file:  "/scratch/puck/g09_49069468-4abc-4774-8460-bf2f8be0ef7b/Gau-35497.chk"
 -----
 titel
 -----
 Charge =  0 Multiplicity = 1

                         Standard orientation:
 ---------------------------------------------------------------------
 Center     Atomic      Atomic             Coordinates (Angstroms)
 Number     Number       Type             X           Y           Z
 ---------------------------------------------------------------------
      1          6           0        2.024160    0.670466    0.025659
      2          8           0        1.927209   -0.773984    0.050147
      3          6           0        0.643158   -0.745596   -0.611064
      4          6           0        0.618237    0.811484   -0.586396
      5          6           0       -0.569569    1.114053    0.350173
      6          6           0       -1.822928    0.681480   -0.433017
      7          8           0       -1.714571   -0.756783   -0.502175
      8          6           0       -0.557383   -1.114550    0.275497
      9          6           0       -0.514141   -0.046277    1.372166
     10          1           0        2.173425    1.093834    1.026992
     11          1           0        2.841328    1.004693   -0.625617
     12          1           0        0.647252   -1.275010   -1.567761
     13          1           0        0.562439    1.348092   -1.534344
     14          1           0       -0.613983    2.128459    0.749201
     15          1           0       -2.751901    0.954398    0.084947
     16          1           0       -1.857892    1.092444   -1.448850
     17          1           0       -0.639920   -2.159308    0.574709
     18          1           0       -1.387180   -0.084237    2.027688
     19          1           0        0.396141   -0.083591    1.971153
 ---------------------------------------------------------------------

 SCF Done:  E(RB3LYP) =  -423.177794094     A.U. after    1 cycles

 The electronic state is 1-A.
 Alpha  occ. eigenvalues --  -19.13613 -19.13283 -10.23152 -10.22829 -10.22813
 Alpha  occ. eigenvalues --  -10.22793 -10.19834 -10.19392 -10.18314  -1.04463
 Alpha  occ. eigenvalues --   -1.02605  -0.82164  -0.74917  -0.71848  -0.68404
 Alpha  occ. eigenvalues --   -0.59501  -0.58122  -0.52918  -0.52832  -0.50463
 Alpha  occ. eigenvalues --   -0.48735  -0.45226  -0.42579  -0.41371  -0.40187
 Alpha  occ. eigenvalues --   -0.38305  -0.36397  -0.35705  -0.34700  -0.33405
 Alpha  occ. eigenvalues --   -0.29940  -0.29370  -0.26760  -0.23324
 Alpha virt. eigenvalues --    0.07867   0.08972   0.11039   0.11381   0.12788
 Alpha virt. eigenvalues --    0.14449   0.15068   0.15388   0.16317   0.16973
 Alpha virt. eigenvalues --    0.17692   0.18143   0.19050   0.20598   0.21424

 Mulliken charges:
               1
     1  C   -0.114152
     2  O   -0.303079
     3  C    0.129268
     4  C   -0.046881
     5  C   -0.071807
     6  C   -0.069767
     7  O   -0.283298
     8  C    0.078147
     9  C   -0.251057
    10  H    0.101102
    11  H    0.103182
    12  H    0.080451
    13  H    0.079082
    14  H    0.070431
    15  H    0.096597
    16  H    0.099165
    17  H    0.078803
    18  H    0.103406
    19  H    0.120407
 Sum of Mulliken charges =   0.00000

 Dipole moment (field-independent basis, Debye):
    X=             -0.1740    Y=              2.1621    Z=              0.2979  Tot=              2.1895
 Quadrupole moment (field-independent basis, Debye-Ang):
   XX=            -57.3342   YY=            -52.3027   ZZ=            -51.7086
   XY=              0.7252   XZ=             -2.1081   YZ=             -0.7991

  Exact polarizability:  79.577   0.520  70.232  -0.545  -0.629  68.113
 Approx polarizability: 109.496   0.209 107.858   2.478  -0.304 102.683

                      1                      2                      3
                      A                      A                      A
 Frequencies --    176.4612               274.0882               278.8374
 Red. masses --      3.3674                 3.9834                 2.5388
 Frc consts  --      0.0618                 0.1763                 0.1163
 IR Inten    --      1.5149                 6.3264                 7.1635

                      4                      5                      6
                      A                      A                      A
 Frequencies --    366.9596               432.5403               503.0636
 Red. masses --      2.8953                 3.6535                 2.1457
 Frc consts  --      0.2297                 0.4027                 0.3199
 IR Inten    --      0.7364                 0.4141                 0.1167

                      7                      8                      9
                      A                      A                      A
 Frequencies --    576.6002               752.8814               780.7936
 Red. masses --      4.2251                 3.1898                 4.2892
 Frc consts  --      0.8276                 1.0653                 1.5406
 IR Inten    --      2.5973                 2.6392                 1.3458

                     10                     11                     12
                      A                      A                      A
 Frequencies --    827.0438               853.6593               878.0417
 Red. masses --      3.1215                 2.3118                 2.7519
 Frc consts  --      1.2580                 0.9926                 1.2500
 IR Inten    --      5.9895                 5.1657                 9.4534

                     13                     14                     15
                      A                      A                      A
 Frequencies --    902.2705               912.9503               940.9850
 Red. masses --      2.8531                 2.2386                 3.0558
 Frc consts  --      1.3685                 1.0993                 1.5942
 IR Inten    --      8.5099                 8.7453                 0.1785

                     16                     17                     18
                      A                      A                      A
 Frequencies --    951.4206               959.7941               989.8962
 Red. masses --      1.9307                 2.4368                 3.0679
 Frc consts  --      1.0297                 1.3226                 1.7712
 IR Inten    --      6.9138                30.1545                 6.6123

                     19                     20                     21
                      A                      A                      A
 Frequencies --   1006.6079              1018.2636              1027.5921
 Red. masses --      1.6584                 1.9475                 3.1388
 Frc consts  --      0.9901                 1.1897                 1.9528
 IR Inten    --      3.8641                28.0100                65.6645

                     22                     23                     24
                      A                      A                      A
 Frequencies --   1065.5651              1073.2244              1100.6724
 Red. masses --      2.5678                 2.2832                 1.7663
 Frc consts  --      1.7178                 1.5495                 1.2607
 IR Inten    --     43.8711                30.5705                 3.7101

                     25                     26                     27
                      A                      A                      A
 Frequencies --   1132.7703              1161.7949              1182.6591
 Red. masses --      1.1710                 1.1856                 1.3169
 Frc consts  --      0.8853                 0.9428                 1.0853
 IR Inten    --      2.2693                 0.8083                 1.4825

                     28                     29                     30
                      A                      A                      A
 Frequencies --   1204.7158              1225.4054              1251.7970
 Red. masses --      2.3174                 1.6841                 1.3412
 Frc consts  --      1.9816                 1.4899                 1.2382
 IR Inten    --      6.7022                 3.1082                 4.7172

                     31                     32                     33
                      A                      A                      A
 Frequencies --   1272.7990              1282.0672              1291.9887
 Red. masses --      1.4702                 1.3301                 1.3682
 Frc consts  --      1.4033                 1.2881                 1.3456
 IR Inten    --      2.5393                 0.7427                 0.5585

                     34                     35                     36
                      A                      A                      A
 Frequencies --   1312.8788              1335.3466              1349.8872
 Red. masses --      1.6120                 1.4504                 1.6717
 Frc consts  --      1.6370                 1.5238                 1.7947
 IR Inten    --      0.8120                 5.2077                 1.5592

                     37                     38                     39
                      A                      A                      A
 Frequencies --   1364.4454              1381.0466              1490.9535
 Red. masses --      1.5581                 1.3901                 1.1117
 Frc consts  --      1.7091                 1.5621                 1.4560
 IR Inten    --      1.5031                 1.2269                 6.8081

                     40                     41                     42
                      A                      A                      A
 Frequencies --   1524.1827              1527.6297              3009.3359
 Red. masses --      1.0982                 1.0927                 1.0595
 Frc consts  --      1.5032                 1.5025                 5.6533
 IR Inten    --      0.8398                 0.6578                93.2483

                     43                     44                     45
                      A                      A                      A
 Frequencies --   3011.1579              3051.8329              3053.4815
 Red. masses --      1.0554                 1.1105                 1.1058
 Frc consts  --      5.6380                 6.0937                 6.0745
 IR Inten    --     58.3978                37.8728                30.0309

                     46                     47                     48
                      A                      A                      A
 Frequencies --   3074.1829              3080.6067              3100.8260
 Red. masses --      1.0877                 1.0612                 1.0877
 Frc consts  --      6.0566                 5.9333                 6.1622
 IR Inten    --     31.6332                17.5415                41.4460

                     49                     50                     51
                      A                      A                      A
 Frequencies --   3109.3797              3125.4820              3140.4953
 Red. masses --      1.0882                 1.0910                 1.1053
 Frc consts  --      6.1989                 6.2790                 6.4230
 IR Inten    --     44.3440                21.1296                14.1248

 - Thermochemistry -
 -------------------
 Temperature   298.150 Kelvin.  Pressure   1.00000 Atm.
 Atom     1 has atomic number  6 and mass  12.00000

 Molecular mass:   126.06808 amu.
 Principal axes and moments of inertia in atomic units:
                           1         2         3
     Eigenvalues --   529.754751073.871521194.78999
           X            0.99994   0.00385  -0.00983
           Y           -0.00415   0.99954  -0.02999
           Z            0.00971   0.03003   0.99950
 This molecule is an asymmetric top.
 Rotational symmetry number  1.
 Warning -- assumption of classical behavior for rotation
           may cause significant error
 Rotational temperatures (Kelvin)      0.16350     0.08066     0.07249
 Rotational constants (GHZ):           3.40675     1.68059     1.51051
 Zero-point vibrational energy     428857.4 (Joules/Mol)
                                  102.49938 (Kcal/Mol)
 Warning -- explicit consideration of   7 degrees of freedom as
           vibrations may cause significant error
 Vibrational temperatures:    253.89   394.35   401.18   527.97   622.33
          (Kelvin)            723.80   829.60  1083.23  1123.39  1189.93
                             1228.22  1263.30  1298.16  1313.53  1353.87
                             1368.88  1380.93  1424.24  1448.28  1465.05
                             1478.47  1533.11  1544.13  1583.62  1629.80
                             1671.56  1701.58  1733.32  1763.08  1801.05
                             1831.27  1844.61  1858.88  1888.94  1921.26
                             1942.18  1963.13  1987.02  2145.15  2192.96
                             2197.92  4329.76  4332.38  4390.90  4393.27
                             4423.06  4432.30  4461.39  4473.70  4496.87
                             4518.47

 Zero-point correction=                           0.163343 (Hartree/Particle)
 Thermal correction to Energy=                    0.169725
 Thermal correction to Enthalpy=                  0.170670
 Thermal correction to Gibbs Free Energy=         0.132836
 Sum of electronic and zero-point Energies=           -423.014451
 Sum of electronic and thermal Energies=              -423.008069
 Sum of electronic and thermal Enthalpies=            -423.007124
 Sum of electronic and thermal Free Energies=         -423.044958

                     E (Thermal)             CV                S
                      KCal/Mol        Cal/Mol-Kelvin    Cal/Mol-Kelvin
 Total                  106.504             26.874             79.627
 Electronic               0.000              0.000              0.000
 Translational            0.889              2.981             40.409
 Rotational               0.889              2.981             28.010
 Vibrational            104.727             20.912             11.209
 Vibration     1          0.628              1.871              2.366
 Vibration     2          0.676              1.721              1.570
 Vibration     3          0.679              1.713              1.541
 Vibration     4          0.740              1.540              1.092
 Vibration     5          0.793              1.399              0.850
 Vibration     6          0.858              1.243              0.651
 Vibration     7          0.933              1.082              0.492

 Optimization completed.
    -- Stationary point found.
 Normal termination of Gaussian 09 at Mon Jan 27 13:12:35 2020.
