 Gaussian 09, Revision D.01,
 Gaussian 09:  ES64L-G09RevD.01 24-Apr-2013

 -----------------------------
 # b3lyp 6-31G(2df,p) opt Freq
 -----------------------------

 -----
 titel
 -----
 Symbolic Z-matrix:
 Charge =  0 Multiplicity = 1

 SCF Done:  E(RB3LYP) =  -423.212194428     A.U. after   14 cycles
 Optimization completed.
    -- Stationary point found.
 Normal termination of Gaussian 09 at Tue Jan 28 03:57:19 2020.

 ----------------------------------------------------------------------
 #N Geom=AllCheck Guess=TCheck SCRF=Check GenChk RB3LYP/6-31G(2df,p) Fr
 eq
 ----------------------------------------------------------------------

 Structure from the checkpoint file:  "/scratch/puck/g09_cf1d4d90-1430-44b9-906a-c1571e313bfc/Gau-92316.chk"
 -----
 titel
 -----
 Charge =  0 Multiplicity = 1

                         Standard orientation:
 ---------------------------------------------------------------------
 Center     Atomic      Atomic             Coordinates (Angstroms)
 Number     Number       Type             X           Y           Z
 ---------------------------------------------------------------------
      1          6           0       -2.007983   -1.389937    0.601953
      2          6           0       -1.284622   -0.482809   -0.393411
      3          8           0       -1.785283    0.853795   -0.271529
      4          6           0       -0.721445    1.764209   -0.053354
      5          6           0        0.531254    0.937446    0.038817
      6          6           0        1.860304    1.558860    0.302428
      7          6           0        0.209451   -0.352518   -0.168570
      8          6           0        1.115748   -1.506051   -0.227737
      9          8           0        2.311875   -1.487679   -0.021371
     10          1           0       -1.695596   -2.432614    0.480982
     11          1           0       -1.796822   -1.077612    1.628889
     12          1           0       -3.087407   -1.336573    0.435425
     13          1           0       -1.494761   -0.842891   -1.414894
     14          1           0       -0.654313    2.491229   -0.880884
     15          1           0       -0.899052    2.346570    0.865139
     16          1           0        1.858299    2.055074    1.281610
     17          1           0        2.654973    0.815479    0.281962
     18          1           0        2.068908    2.341152   -0.438353
     19          1           0        0.616785   -2.463949   -0.497432
 ---------------------------------------------------------------------

 SCF Done:  E(RB3LYP) =  -423.212194428     A.U. after    1 cycles

 The electronic state is 1-A.
 Alpha  occ. eigenvalues --  -19.14203 -19.13575 -10.27129 -10.24348 -10.24074
 Alpha  occ. eigenvalues --  -10.21976 -10.19433 -10.19190 -10.18080  -1.04388
 Alpha  occ. eigenvalues --   -1.03927  -0.82499  -0.78390  -0.71614  -0.68584
 Alpha  occ. eigenvalues --   -0.63610  -0.59039  -0.52598  -0.50654  -0.48655
 Alpha  occ. eigenvalues --   -0.45457  -0.43897  -0.42792  -0.42200  -0.41641
 Alpha  occ. eigenvalues --   -0.39615  -0.39403  -0.39068  -0.37884  -0.35200
 Alpha  occ. eigenvalues --   -0.32255  -0.27765  -0.25266  -0.24277
 Alpha virt. eigenvalues --   -0.06289   0.06419   0.09094   0.10075   0.10472
 Alpha virt. eigenvalues --    0.13881   0.14469   0.15230   0.15553   0.16725
 Alpha virt. eigenvalues --    0.17193   0.17744   0.19528   0.21161   0.22748

 Mulliken charges:
               1
     1  C   -0.394326
     2  C    0.040335
     3  O   -0.279479
     4  C   -0.147837
     5  C    0.186954
     6  C   -0.509149
     7  C    0.104313
     8  C    0.073188
     9  O   -0.273795
    10  H    0.116184
    11  H    0.120459
    12  H    0.130627
    13  H    0.085713
    14  H    0.110976
    15  H    0.113274
    16  H    0.137888
    17  H    0.176076
    18  H    0.134658
    19  H    0.073940
 Sum of Mulliken charges =   0.00000

 Dipole moment (field-independent basis, Debye):
    X=             -0.9234    Y=              1.1221    Z=              0.0166  Tot=              1.4533
 Quadrupole moment (field-independent basis, Debye-Ang):
   XX=            -62.4554   YY=            -49.9702   ZZ=            -52.3264
   XY=              7.4251   XZ=             -0.4685   YZ=              1.2785

  Exact polarizability:  84.943   4.390 102.207   1.838   4.190  56.949
 Approx polarizability: 121.953  -0.965 156.296   4.755   8.896  87.503

                      1                      2                      3
                      A                      A                      A
 Frequencies --     60.7797               106.0367               126.5849
 Red. masses --      3.6995                 1.4702                 1.7437
 Frc consts  --      0.0081                 0.0097                 0.0165
 IR Inten    --      5.8549                 1.1714                 2.4325

                      4                      5                      6
                      A                      A                      A
 Frequencies --    157.5903               201.4263               214.5631
 Red. masses --      2.2447                 1.9550                 2.2853
 Frc consts  --      0.0328                 0.0467                 0.0620
 IR Inten    --      2.3968                 2.8596                 4.3800

                      7                      8                      9
                      A                      A                      A
 Frequencies --    238.3750               301.9225               373.8175
 Red. masses --      1.5834                 2.8615                 3.1893
 Frc consts  --      0.0530                 0.1537                 0.2626
 IR Inten    --      2.9404                 0.4197                 3.0347

                     10                     11                     12
                      A                      A                      A
 Frequencies --    416.3118               461.8874               556.7268
 Red. masses --      2.8816                 4.9166                 3.3033
 Frc consts  --      0.2943                 0.6180                 0.6032
 IR Inten    --      1.9947                 1.0346                 0.6979

                     13                     14                     15
                      A                      A                      A
 Frequencies --    626.4873               718.2100               798.6703
 Red. masses --      4.5072                 3.5039                 3.7065
 Frc consts  --      1.0423                 1.0649                 1.3930
 IR Inten    --      4.1299                34.0664                22.3113

                     16                     17                     18
                      A                      A                      A
 Frequencies --    874.6460               941.9863               951.3557
 Red. masses --      2.6875                 1.7992                 1.3731
 Frc consts  --      1.2113                 0.9406                 0.7322
 IR Inten    --     14.2651                13.8691                 5.6690

                     19                     20                     21
                      A                      A                      A
 Frequencies --    997.0366              1035.1939              1064.5310
 Red. masses --      2.0648                 1.8455                 2.2319
 Frc consts  --      1.2093                 1.1652                 1.4902
 IR Inten    --      4.7910                 1.7615                21.5752

                     22                     23                     24
                      A                      A                      A
 Frequencies --   1089.5534              1096.6814              1114.4610
 Red. masses --      1.7652                 5.1433                 2.1885
 Frc consts  --      1.2347                 3.6446                 1.6015
 IR Inten    --      1.5704                35.7344                 4.1108

                     25                     26                     27
                      A                      A                      A
 Frequencies --   1156.6465              1194.9017              1204.9238
 Red. masses --      2.8353                 2.3642                 1.2294
 Frc consts  --      2.2348                 1.9888                 1.0516
 IR Inten    --     11.4682                36.0148                 3.8703

                     28                     29                     30
                      A                      A                      A
 Frequencies --   1268.3054              1347.1707              1373.4190
 Red. masses --      1.9895                 1.7478                 1.3185
 Frc consts  --      1.8855                 1.8689                 1.4653
 IR Inten    --     20.4531                11.3452                15.6228

                     31                     32                     33
                      A                      A                      A
 Frequencies --   1384.9396              1400.8993              1405.0037
 Red. masses --      1.5621                 1.2530                 1.3456
 Frc consts  --      1.7654                 1.4488                 1.5650
 IR Inten    --      3.2865                12.6449                 8.8123

                     34                     35                     36
                      A                      A                      A
 Frequencies --   1451.6449              1470.0857              1485.1502
 Red. masses --      1.2702                 1.0890                 1.0564
 Frc consts  --      1.5770                 1.3866                 1.3728
 IR Inten    --     18.1773                18.4670                 1.9407

                     37                     38                     39
                      A                      A                      A
 Frequencies --   1493.7877              1494.5003              1512.2029
 Red. masses --      1.0457                 1.0591                 1.0863
 Frc consts  --      1.3748                 1.3938                 1.4636
 IR Inten    --      9.0203                 2.0528                 2.5082

                     40                     41                     42
                      A                      A                      A
 Frequencies --   1683.7264              1781.0369              2874.2375
 Red. masses --      7.7528                 9.3482                 1.0807
 Frc consts  --     12.9494                17.4713                 5.2600
 IR Inten    --    172.8957               131.7578               129.5555

                     43                     44                     45
                      A                      A                      A
 Frequencies --   2952.4109              2960.2156              2982.9768
 Red. masses --      1.0793                 1.0677                 1.0950
 Frc consts  --      5.5428                 5.5123                 5.7404
 IR Inten    --     71.3371                55.2492                37.3228

                     46                     47                     48
                      A                      A                      A
 Frequencies --   3023.0022              3038.1405              3066.6690
 Red. masses --      1.0416                 1.0347                 1.0971
 Frc consts  --      5.6085                 5.6269                 6.0788
 IR Inten    --     23.0298                15.6867                12.1925

                     49                     50                     51
                      A                      A                      A
 Frequencies --   3111.0484              3122.5515              3171.1447
 Red. masses --      1.1007                 1.1029                 1.0964
 Frc consts  --      6.2768                 6.3361                 6.4961
 IR Inten    --     20.3049                21.0909                 0.8633

 - Thermochemistry -
 -------------------
 Temperature   298.150 Kelvin.  Pressure   1.00000 Atm.
 Atom     1 has atomic number  6 and mass  12.00000

 Molecular mass:   126.06808 amu.
 Principal axes and moments of inertia in atomic units:
                           1         2         3
     Eigenvalues --   828.603161168.307121866.17247
           X            0.98369   0.17980  -0.00429
           Y           -0.17979   0.98370   0.00268
           Z            0.00470  -0.00187   0.99999
 This molecule is an asymmetric top.
 Rotational symmetry number  1.
 Warning -- assumption of classical behavior for rotation
           may cause significant error
 Rotational temperatures (Kelvin)      0.10453     0.07414     0.04641
 Rotational constants (GHZ):           2.17805     1.54475     0.96708
 Zero-point vibrational energy     412326.3 (Joules/Mol)
                                   98.54835 (Kcal/Mol)
 Warning -- explicit consideration of  12 degrees of freedom as
           vibrations may cause significant error
 Vibrational temperatures:     87.45   152.56   182.13   226.74   289.81
          (Kelvin)            308.71   342.97   434.40   537.84   598.98
                              664.55   801.00   901.37  1033.34  1149.11
                             1258.42  1355.31  1368.79  1434.51  1489.41
                             1531.62  1567.62  1577.88  1603.46  1664.15
                             1719.19  1733.61  1824.81  1938.28  1976.04
                             1992.62  2015.58  2021.48  2088.59  2115.12
                             2136.80  2149.22  2150.25  2175.72  2422.50
                             2562.51  4135.38  4247.86  4259.08  4291.83
                             4349.42  4371.20  4412.25  4476.10  4492.65
                             4562.56

 Zero-point correction=                           0.157047 (Hartree/Particle)
 Thermal correction to Energy=                    0.166611
 Thermal correction to Enthalpy=                  0.167555
 Thermal correction to Gibbs Free Energy=         0.122223
 Sum of electronic and zero-point Energies=           -423.055148
 Sum of electronic and thermal Energies=              -423.045583
 Sum of electronic and thermal Enthalpies=            -423.044639
 Sum of electronic and thermal Free Energies=         -423.089971

                     E (Thermal)             CV                S
                      KCal/Mol        Cal/Mol-Kelvin    Cal/Mol-Kelvin
 Total                  104.550             33.855             95.409
 Electronic               0.000              0.000              0.000
 Translational            0.889              2.981             40.409
 Rotational               0.889              2.981             28.981
 Vibrational            102.773             27.893             26.019
 Vibration     1          0.597              1.973              4.432
 Vibration     2          0.605              1.944              3.340
 Vibration     3          0.611              1.927              2.997
 Vibration     4          0.621              1.894              2.579
 Vibration     5          0.638              1.838              2.120
 Vibration     6          0.644              1.819              2.005
 Vibration     7          0.656              1.782              1.815
 Vibration     8          0.694              1.670              1.406
 Vibration     9          0.745              1.526              1.064
 Vibration    10          0.780              1.435              0.905
 Vibration    11          0.820              1.335              0.761
 Vibration    12          0.912              1.125              0.530

 Optimization completed.
    -- Stationary point found.
 Normal termination of Gaussian 09 at Tue Jan 28 04:46:04 2020.
