 Gaussian 09, Revision D.01,
 Gaussian 09:  ES64L-G09RevD.01 24-Apr-2013

 -----------------------------
 # b3lyp 6-31G(2df,p) opt Freq
 -----------------------------

 -----
 titel
 -----
 Symbolic Z-matrix:
 Charge =  0 Multiplicity = 1

 SCF Done:  E(RB3LYP) =  -423.204021944     A.U. after   14 cycles
 Optimization completed.
    -- Stationary point found.
 Normal termination of Gaussian 09 at Mon Jan 27 13:06:28 2020.

 ----------------------------------------------------------------------
 #N Geom=AllCheck Guess=TCheck SCRF=Check GenChk RB3LYP/6-31G(2df,p) Fr
 eq
 ----------------------------------------------------------------------

 Structure from the checkpoint file:  "/scratch/puck/g09_5e1fc3f5-4f7b-4c02-84d1-05785fdd84b7/Gau-157815.chk"
 -----
 titel
 -----
 Charge =  0 Multiplicity = 1

                         Standard orientation:
 ---------------------------------------------------------------------
 Center     Atomic      Atomic             Coordinates (Angstroms)
 Number     Number       Type             X           Y           Z
 ---------------------------------------------------------------------
      1          8           0       -0.117336    2.073867    0.045169
      2          6           0       -0.562415    0.957053   -0.025163
      3          6           0       -2.035631    0.547091   -0.052130
      4          6           0       -1.954397   -0.958699    0.205258
      5          8           0       -0.684029   -1.362226   -0.317211
      6          6           0        0.253839   -0.332164   -0.097663
      7          6           0        1.263610   -0.474651    1.092586
      8          6           0        2.381628    0.024762    0.139919
      9          6           0        1.458867   -0.291258   -1.067768
     10          1           0       -2.622965    1.116594    0.670358
     11          1           0       -2.427607    0.760746   -1.053390
     12          1           0       -2.016328   -1.177971    1.281875
     13          1           0       -2.720918   -1.542756   -0.308094
     14          1           0        1.067649    0.103121    1.998643
     15          1           0        1.369141   -1.532553    1.346457
     16          1           0        2.547333    1.097915    0.245247
     17          1           0        3.340003   -0.495262    0.183372
     18          1           0        1.411656    0.434590   -1.882260
     19          1           0        1.629942   -1.290357   -1.476108
 ---------------------------------------------------------------------

 SCF Done:  E(RB3LYP) =  -423.204021944     A.U. after    1 cycles

 The electronic state is 1-A.
 Alpha  occ. eigenvalues --  -19.14770 -19.13735 -10.27170 -10.23986 -10.23916
 Alpha  occ. eigenvalues --  -10.19843 -10.18532 -10.18467 -10.18226  -1.05623
 Alpha  occ. eigenvalues --   -1.03825  -0.84223  -0.77794  -0.70121  -0.66651
 Alpha  occ. eigenvalues --   -0.61625  -0.58709  -0.52248  -0.50330  -0.48475
 Alpha  occ. eigenvalues --   -0.47027  -0.46056  -0.42215  -0.41575  -0.40208
 Alpha  occ. eigenvalues --   -0.39900  -0.38594  -0.34777  -0.34155  -0.33691
 Alpha  occ. eigenvalues --   -0.32551  -0.31902  -0.26154  -0.23708
 Alpha virt. eigenvalues --   -0.02389   0.08283   0.09649   0.10880   0.12563
 Alpha virt. eigenvalues --    0.13498   0.13805   0.14937   0.16042   0.17967
 Alpha virt. eigenvalues --    0.18797   0.19225   0.19704   0.20013   0.22823

 Mulliken charges:
               1
     1  O   -0.317892
     2  C    0.340806
     3  C   -0.340060
     4  C   -0.110308
     5  O   -0.304261
     6  C    0.328976
     7  C   -0.278453
     8  C   -0.207819
     9  C   -0.275987
    10  H    0.134479
    11  H    0.142248
    12  H    0.102450
    13  H    0.117791
    14  H    0.104360
    15  H    0.111587
    16  H    0.127820
    17  H    0.100650
    18  H    0.108572
    19  H    0.115041
 Sum of Mulliken charges =   0.00000

 Dipole moment (field-independent basis, Debye):
    X=             -1.1118    Y=             -1.2434    Z=              0.3318  Tot=              1.7007
 Quadrupole moment (field-independent basis, Debye-Ang):
   XX=            -47.2290   YY=            -60.9055   ZZ=            -51.5866
   XY=             -1.0961   XZ=             -0.4271   YZ=             -1.1032

  Exact polarizability:  89.009   0.951  71.742  -0.421  -0.602  65.448
 Approx polarizability: 113.569   4.509 113.492  -0.020   1.381  97.972

                      1                      2                      3
                      A                      A                      A
 Frequencies --     64.4507               131.1572               168.5647
 Red. masses --      3.6778                 2.4076                 2.0484
 Frc consts  --      0.0090                 0.0244                 0.0343
 IR Inten    --      6.0463                 1.2191                 1.0236

                      4                      5                      6
                      A                      A                      A
 Frequencies --    203.9770               280.0737               388.2897
 Red. masses --      2.6460                 2.7587                 3.9200
 Frc consts  --      0.0649                 0.1275                 0.3482
 IR Inten    --      0.4040                 2.6502                 6.2173

                      7                      8                      9
                      A                      A                      A
 Frequencies --    442.7596               511.9066               548.5347
 Red. masses --      4.6923                 3.5916                 2.0468
 Frc consts  --      0.5420                 0.5545                 0.3629
 IR Inten    --      4.5587                 6.0201                 1.4734

                     10                     11                     12
                      A                      A                      A
 Frequencies --    663.9306               681.3425               686.3542
 Red. masses --      5.6764                 2.1592                 2.4880
 Frc consts  --      1.4742                 0.5906                 0.6906
 IR Inten    --      1.3260                 0.9612                10.5324

                     13                     14                     15
                      A                      A                      A
 Frequencies --    793.3324               808.2067               842.2122
 Red. masses --      1.2373                 1.9594                 1.7624
 Frc consts  --      0.4588                 0.7541                 0.7366
 IR Inten    --      0.0742                 6.2806                12.6360

                     16                     17                     18
                      A                      A                      A
 Frequencies --    899.2553               937.1735               951.2865
 Red. masses --      2.3195                 2.6396                 2.7411
 Frc consts  --      1.1051                 1.3659                 1.4615
 IR Inten    --      0.7182                 0.4611                 5.8007

                     19                     20                     21
                      A                      A                      A
 Frequencies --    968.6668               992.3926              1008.4873
 Red. masses --      2.5698                 2.5993                 2.9976
 Frc consts  --      1.4207                 1.5083                 1.7963
 IR Inten    --      3.9721                 3.2470                11.7220

                     22                     23                     24
                      A                      A                      A
 Frequencies --   1050.0580              1089.7218              1109.4386
 Red. masses --      1.2660                 2.4986                 3.6811
 Frc consts  --      0.8225                 1.7481                 2.6695
 IR Inten    --      1.6490                 4.4945               132.5259

                     25                     26                     27
                      A                      A                      A
 Frequencies --   1175.9292              1190.4566              1205.3493
 Red. masses --      3.7097                 1.6226                 1.4673
 Frc consts  --      3.0224                 1.3548                 1.2560
 IR Inten    --     60.4306                 9.6479                12.1733

                     28                     29                     30
                      A                      A                      A
 Frequencies --   1214.9111              1240.6484              1247.2761
 Red. masses --      1.4988                 1.4026                 1.2500
 Frc consts  --      1.3034                 1.2720                 1.1458
 IR Inten    --      1.9401                 9.3957                 0.1792

                     31                     32                     33
                      A                      A                      A
 Frequencies --   1278.1273              1279.4905              1286.5750
 Red. masses --      1.3615                 1.3855                 1.5841
 Frc consts  --      1.3105                 1.3364                 1.5450
 IR Inten    --     14.0023                 2.8018                 2.5116

                     34                     35                     36
                      A                      A                      A
 Frequencies --   1300.8697              1389.1495              1447.7563
 Red. masses --      2.0037                 1.3670                 1.0940
 Frc consts  --      1.9978                 1.5542                 1.3510
 IR Inten    --     30.8580                 9.5419                 8.3572

                     37                     38                     39
                      A                      A                      A
 Frequencies --   1464.1393              1476.9938              1497.5196
 Red. masses --      1.0889                 1.0872                 1.1310
 Frc consts  --      1.3754                 1.3974                 1.4943
 IR Inten    --      1.9813                 1.2037                 4.1239

                     40                     41                     42
                      A                      A                      A
 Frequencies --   1522.0004              1844.2756              2991.7922
 Red. masses --      1.0963                12.5029                 1.0717
 Frc consts  --      1.4963                25.0561                 5.6517
 IR Inten    --      0.4478               150.8961                59.2647

                     43                     44                     45
                      A                      A                      A
 Frequencies --   3052.0088              3061.4320              3067.3255
 Red. masses --      1.0655                 1.0564                 1.0577
 Frc consts  --      5.8477                 5.8333                 5.8630
 IR Inten    --      6.9915                37.5645                12.5737

                     46                     47                     48
                      A                      A                      A
 Frequencies --   3080.6686              3104.8316              3116.4824
 Red. masses --      1.0596                 1.0931                 1.1099
 Frc consts  --      5.9247                 6.2085                 6.3511
 IR Inten    --     37.0510                28.0535                 7.3957

                     49                     50                     51
                      A                      A                      A
 Frequencies --   3123.9125              3124.6218              3142.9871
 Red. masses --      1.1081                 1.0993                 1.1077
 Frc consts  --      6.3711                 6.3235                 6.4469
 IR Inten    --      5.0100                12.0119                28.2343

 - Thermochemistry -
 -------------------
 Temperature   298.150 Kelvin.  Pressure   1.00000 Atm.
 Atom     1 has atomic number  8 and mass  15.99491

 Molecular mass:   126.06808 amu.
 Principal axes and moments of inertia in atomic units:
                           1         2         3
     Eigenvalues --   664.226791128.688701467.66052
           X            0.99998  -0.00442  -0.00341
           Y            0.00436   0.99983  -0.01772
           Z            0.00348   0.01771   0.99984
 This molecule is an asymmetric top.
 Rotational symmetry number  1.
 Warning -- assumption of classical behavior for rotation
           may cause significant error
 Rotational temperatures (Kelvin)      0.13040     0.07674     0.05901
 Rotational constants (GHZ):           2.71706     1.59897     1.22967
 Zero-point vibrational energy     419584.8 (Joules/Mol)
                                  100.28318 (Kcal/Mol)
 Warning -- explicit consideration of   9 degrees of freedom as
           vibrations may cause significant error
 Vibrational temperatures:     92.73   188.71   242.53   293.48   402.96
          (Kelvin)            558.66   637.03   736.52   789.22   955.25
                              980.30   987.51  1141.43  1162.83  1211.75
                             1293.83  1348.38  1368.69  1393.69  1427.83
                             1450.99  1510.80  1567.86  1596.23  1691.90
                             1712.80  1734.23  1747.98  1785.01  1794.55
                             1838.94  1840.90  1851.09  1871.66  1998.67
                             2083.00  2106.57  2125.06  2154.59  2189.82
                             2653.50  4304.52  4391.15  4404.71  4413.19
                             4432.39  4467.15  4483.92  4494.61  4495.63
                             4522.05

 Zero-point correction=                           0.159811 (Hartree/Particle)
 Thermal correction to Energy=                    0.167845
 Thermal correction to Enthalpy=                  0.168789
 Thermal correction to Gibbs Free Energy=         0.126918
 Sum of electronic and zero-point Energies=           -423.044211
 Sum of electronic and thermal Energies=              -423.036177
 Sum of electronic and thermal Enthalpies=            -423.035233
 Sum of electronic and thermal Free Energies=         -423.077104

                     E (Thermal)             CV                S
                      KCal/Mol        Cal/Mol-Kelvin    Cal/Mol-Kelvin
 Total                  105.324             30.800             88.124
 Electronic               0.000              0.000              0.000
 Translational            0.889              2.981             40.409
 Rotational               0.889              2.981             28.489
 Vibrational            103.547             24.838             19.227
 Vibration     1          0.597              1.971              4.316
 Vibration     2          0.612              1.922              2.929
 Vibration     3          0.625              1.881              2.451
 Vibration     4          0.640              1.834              2.097
 Vibration     5          0.680              1.710              1.533
 Vibration     6          0.756              1.495              1.007
 Vibration     7          0.802              1.377              0.818
 Vibration     8          0.867              1.224              0.629
 Vibration     9          0.904              1.143              0.547

 Normal termination of Gaussian 09 at Mon Jan 27 13:54:57 2020.
