 Gaussian 09, Revision D.01,
 Gaussian 09:  ES64L-G09RevD.01 24-Apr-2013

 -----------------------------
 # b3lyp 6-31G(2df,p) opt Freq
 -----------------------------

 -----
 titel
 -----
 Symbolic Z-matrix:
 Charge =  0 Multiplicity = 1

 SCF Done:  E(RB3LYP) =  -423.116380964     A.U. after   13 cycles
 Optimization completed.
    -- Stationary point found.
 Normal termination of Gaussian 09 at Tue Jan 28 09:42:13 2020.

 ----------------------------------------------------------------------
 #N Geom=AllCheck Guess=TCheck SCRF=Check GenChk RB3LYP/6-31G(2df,p) Fr
 eq
 ----------------------------------------------------------------------

 Structure from the checkpoint file:  "/scratch/puck/g09_c61e3578-6768-4118-b939-364dfb2c7fab/Gau-106471.chk"
 -----
 titel
 -----
 Charge =  0 Multiplicity = 1

                         Standard orientation:
 ---------------------------------------------------------------------
 Center     Atomic      Atomic             Coordinates (Angstroms)
 Number     Number       Type             X           Y           Z
 ---------------------------------------------------------------------
      1          6           0        2.783925    0.814908   -0.205848
      2          6           0        2.053785   -0.366321    0.448869
      3          6           0        0.582546   -0.352330    0.173221
      4          8           0        0.128153   -0.735887   -1.128479
      5          6           0       -0.426204   -1.424849   -0.002124
      6          6           0       -1.534797   -0.515661    0.603884
      7          8           0       -2.314897    0.243134   -0.330044
      8          6           0       -1.390413    1.361473   -0.256786
      9          6           0       -0.492650    0.614413    0.756545
     10          1           0        3.854936    0.780818    0.013087
     11          1           0        2.655908    0.793734   -1.291916
     12          1           0        2.397913    1.772128    0.160348
     13          1           0        2.464491   -1.313049    0.080872
     14          1           0        2.210546   -0.348204    1.534726
     15          1           0       -0.338549   -2.506566    0.000931
     16          1           0       -2.111851   -0.943228    1.427850
     17          1           0       -0.942651    1.586432   -1.228615
     18          1           0       -1.885401    2.251187    0.149240
     19          1           0       -0.268541    1.078975    1.715101
 ---------------------------------------------------------------------

 SCF Done:  E(RB3LYP) =  -423.116380964     A.U. after    1 cycles

 The electronic state is 1-A.
 Alpha  occ. eigenvalues --  -19.15430 -19.12975 -10.24523 -10.23727 -10.23434
 Alpha  occ. eigenvalues --  -10.22739 -10.19566 -10.19465 -10.18196  -1.08656
 Alpha  occ. eigenvalues --   -1.02779  -0.79512  -0.77208  -0.70802  -0.65745
 Alpha  occ. eigenvalues --   -0.61718  -0.58365  -0.53178  -0.51832  -0.49065
 Alpha  occ. eigenvalues --   -0.47084  -0.44571  -0.44253  -0.41362  -0.39773
 Alpha  occ. eigenvalues --   -0.39238  -0.36963  -0.35881  -0.34471  -0.34081
 Alpha  occ. eigenvalues --   -0.30860  -0.27087  -0.25999  -0.24066
 Alpha virt. eigenvalues --    0.05276   0.08476   0.10676   0.10900   0.12164
 Alpha virt. eigenvalues --    0.13044   0.13781   0.15037   0.15400   0.16430
 Alpha virt. eigenvalues --    0.16887   0.17206   0.17600   0.20712   0.21418

 Mulliken charges:
               1
     1  C   -0.380965
     2  C   -0.305891
     3  C    0.421287
     4  O   -0.270701
     5  C   -0.086150
     6  C    0.097713
     7  O   -0.284991
     8  C   -0.084769
     9  C   -0.177531
    10  H    0.117133
    11  H    0.136766
    12  H    0.119306
    13  H    0.113981
    14  H    0.103754
    15  H    0.101521
    16  H    0.080668
    17  H    0.116146
    18  H    0.098183
    19  H    0.084541
 Sum of Mulliken charges =   0.00000

 Dipole moment (field-independent basis, Debye):
    X=              1.8375    Y=              0.1389    Z=              2.3939  Tot=              3.0210
 Quadrupole moment (field-independent basis, Debye-Ang):
   XX=            -56.3318   YY=            -49.1253   ZZ=            -54.3169
   XY=              0.2571   XZ=             -1.9279   YZ=             -1.3381

  Exact polarizability:  82.912   0.744  76.909  -1.507  -1.115  63.304
 Approx polarizability: 109.737   4.032 112.207  -0.486   0.127 102.868

                      1                      2                      3
                      A                      A                      A
 Frequencies --     79.5276               119.1936               199.6418
 Red. masses --      2.5147                 3.5808                 1.3670
 Frc consts  --      0.0094                 0.0300                 0.0321
 IR Inten    --      0.8282                 0.5920                 0.5820

                      4                      5                      6
                      A                      A                      A
 Frequencies --    237.9402               289.2026               335.3294
 Red. masses --      2.5600                 2.5134                 2.6499
 Frc consts  --      0.0854                 0.1239                 0.1756
 IR Inten    --      2.9618                 1.4303                 2.6283

                      7                      8                      9
                      A                      A                      A
 Frequencies --    360.7588               490.3546               606.9596
 Red. masses --      3.8923                 2.8613                 3.8468
 Frc consts  --      0.2985                 0.4054                 0.8350
 IR Inten    --      1.0859                 1.4848                11.6409

                     10                     11                     12
                      A                      A                      A
 Frequencies --    661.7256               721.6183               766.8686
 Red. masses --      3.8305                 4.4001                 1.5342
 Frc consts  --      0.9882                 1.3500                 0.5316
 IR Inten    --      8.4893                 2.5461                 0.9174

                     13                     14                     15
                      A                      A                      A
 Frequencies --    816.7440               828.1833               872.4129
 Red. masses --      2.4828                 2.0906                 2.2605
 Frc consts  --      0.9758                 0.8448                 1.0137
 IR Inten    --      4.8580                 6.2890                18.5947

                     16                     17                     18
                      A                      A                      A
 Frequencies --    897.2599               927.0064               953.8082
 Red. masses --      2.2670                 2.8014                 2.3562
 Frc consts  --      1.0753                 1.4184                 1.2630
 IR Inten    --      4.3862                 8.2064                11.3102

                     19                     20                     21
                      A                      A                      A
 Frequencies --    963.3277               995.5456              1017.8945
 Red. masses --      2.5195                 3.1422                 1.8634
 Frc consts  --      1.3776                 1.8349                 1.1375
 IR Inten    --      4.2809                35.3053                24.2137

                     22                     23                     24
                      A                      A                      A
 Frequencies --   1023.7530              1041.6576              1077.4208
 Red. masses --      2.6265                 2.5128                 2.3760
 Frc consts  --      1.6218                 1.6064                 1.6250
 IR Inten    --     47.4200                 5.0903                 8.7893

                     25                     26                     27
                      A                      A                      A
 Frequencies --   1111.3351              1159.6538              1166.3084
 Red. masses --      2.0809                 1.4403                 1.4956
 Frc consts  --      1.5142                 1.1412                 1.1986
 IR Inten    --      1.7378                 3.5725                 4.1092

                     28                     29                     30
                      A                      A                      A
 Frequencies --   1176.3240              1223.3516              1238.8192
 Red. masses --      1.8930                 1.5879                 1.4358
 Frc consts  --      1.5433                 1.4001                 1.2982
 IR Inten    --      6.2539                 1.6731                 4.3159

                     31                     32                     33
                      A                      A                      A
 Frequencies --   1277.3946              1289.5167              1314.6245
 Red. masses --      1.4390                 1.3951                 1.4801
 Frc consts  --      1.3834                 1.3669                 1.5071
 IR Inten    --      4.5430                 7.7125                 8.3191

                     34                     35                     36
                      A                      A                      A
 Frequencies --   1349.4318              1355.3099              1408.5039
 Red. masses --      1.4677                 1.4703                 1.2425
 Frc consts  --      1.5746                 1.5912                 1.4523
 IR Inten    --      5.6081                 4.5707                 1.7198

                     37                     38                     39
                      A                      A                      A
 Frequencies --   1454.6517              1471.8764              1499.0010
 Red. masses --      2.9079                 1.1700                 1.0412
 Frc consts  --      3.6253                 1.4934                 1.3785
 IR Inten    --      5.8226                 3.2828                 5.2359

                     40                     41                     42
                      A                      A                      A
 Frequencies --   1503.5252              1510.0673              3029.1426
 Red. masses --      1.0979                 1.1420                 1.0613
 Frc consts  --      1.4623                 1.5343                 5.7377
 IR Inten    --      1.3382                 4.1007                20.5936

                     43                     44                     45
                      A                      A                      A
 Frequencies --   3029.9737              3039.3667              3071.8671
 Red. masses --      1.0596                 1.0356                 1.0997
 Frc consts  --      5.7316                 5.6366                 6.1141
 IR Inten    --     67.2357                23.6165                 7.4846

                     46                     47                     48
                      A                      A                      A
 Frequencies --   3079.7222              3094.1454              3108.4144
 Red. masses --      1.0890                 1.1058                 1.1011
 Frc consts  --      6.0855                 6.2374                 6.2686
 IR Inten    --     45.6587                21.4215                32.9830

                     49                     50                     51
                      A                      A                      A
 Frequencies --   3119.5766              3133.1462              3168.9388
 Red. masses --      1.1026                 1.0902                 1.0943
 Frc consts  --      6.3219                 6.3054                 6.4744
 IR Inten    --     22.0910                24.4792                23.1496

 - Thermochemistry -
 -------------------
 Temperature   298.150 Kelvin.  Pressure   1.00000 Atm.
 Atom     1 has atomic number  6 and mass  12.00000

 Molecular mass:   126.06808 amu.
 Principal axes and moments of inertia in atomic units:
                           1         2         3
     Eigenvalues --   518.680051377.535391554.07426
           X            0.99993   0.00939  -0.00668
           Y           -0.00970   0.99876  -0.04885
           Z            0.00622   0.04891   0.99878
 This molecule is an asymmetric top.
 Rotational symmetry number  1.
 Warning -- assumption of classical behavior for rotation
           may cause significant error
 Rotational temperatures (Kelvin)      0.16699     0.06288     0.05573
 Rotational constants (GHZ):           3.47949     1.31012     1.16130
 Zero-point vibrational energy     416707.9 (Joules/Mol)
                                   99.59558 (Kcal/Mol)
 Warning -- explicit consideration of   9 degrees of freedom as
           vibrations may cause significant error
 Vibrational temperatures:    114.42   171.49   287.24   342.34   416.10
          (Kelvin)            482.46   519.05   705.51   873.28   952.07
                             1038.25  1103.35  1175.11  1191.57  1255.21
                             1290.96  1333.75  1372.32  1386.01  1432.37
                             1464.52  1472.95  1498.71  1550.17  1598.96
                             1668.48  1678.06  1692.47  1760.13  1782.38
                             1837.88  1855.32  1891.45  1941.53  1949.99
                             2026.52  2092.92  2117.70  2156.73  2163.23
                             2172.65  4358.26  4359.45  4372.97  4419.73
                             4431.03  4451.78  4472.31  4488.37  4507.89
                             4559.39

 Zero-point correction=                           0.158716 (Hartree/Particle)
 Thermal correction to Energy=                    0.166711
 Thermal correction to Enthalpy=                  0.167655
 Thermal correction to Gibbs Free Energy=         0.126024
 Sum of electronic and zero-point Energies=           -422.957665
 Sum of electronic and thermal Energies=              -422.949670
 Sum of electronic and thermal Enthalpies=            -422.948726
 Sum of electronic and thermal Free Energies=         -422.990357

                     E (Thermal)             CV                S
                      KCal/Mol        Cal/Mol-Kelvin    Cal/Mol-Kelvin
 Total                  104.613             30.853             87.621
 Electronic               0.000              0.000              0.000
 Translational            0.889              2.981             40.409
 Rotational               0.889              2.981             28.498
 Vibrational            102.835             24.892             18.715
 Vibration     1          0.600              1.963              3.903
 Vibration     2          0.609              1.933              3.113
 Vibration     3          0.638              1.840              2.136
 Vibration     4          0.656              1.783              1.818
 Vibration     5          0.686              1.694              1.479
 Vibration     6          0.716              1.605              1.234
 Vibration     7          0.735              1.553              1.119
 Vibration     8          0.846              1.271              0.683
 Vibration     9          0.966              1.017              0.438

 Normal termination of Gaussian 09 at Tue Jan 28 10:25:11 2020.
