 Gaussian 09, Revision D.01,
 Gaussian 09:  ES64L-G09RevD.01 24-Apr-2013

 -----------------------------
 # b3lyp 6-31G(2df,p) opt Freq
 -----------------------------

 -----
 titel
 -----
 Symbolic Z-matrix:
 Charge =  0 Multiplicity = 1

 SCF Done:  E(RB3LYP) =  -423.200314359     A.U. after   14 cycles
 Optimization completed.
    -- Stationary point found.
 Normal termination of Gaussian 09 at Tue Jan 28 14:12:01 2020.

 ----------------------------------------------------------------------
 #N Geom=AllCheck Guess=TCheck SCRF=Check GenChk RB3LYP/6-31G(2df,p) Fr
 eq
 ----------------------------------------------------------------------

 Structure from the checkpoint file:  "/scratch/puck/g09_2885642e-c4be-4e41-bb9d-6d1e83d7cbf9/Gau-61188.chk"
 -----
 titel
 -----
 Charge =  0 Multiplicity = 1

                         Standard orientation:
 ---------------------------------------------------------------------
 Center     Atomic      Atomic             Coordinates (Angstroms)
 Number     Number       Type             X           Y           Z
 ---------------------------------------------------------------------
      1          8           0        2.362379   -1.148028    0.181237
      2          6           0        2.063225    0.239506    0.103703
      3          6           0        0.651748    0.370624   -0.462855
      4          6           0        0.174736    1.797992   -0.587071
      5          6           0       -0.988197    2.011857    0.023060
      6          6           0       -1.546300    0.771378    0.670183
      7          6           0       -0.438539   -0.288243    0.456185
      8          6           0       -0.924580   -1.594861   -0.136514
      9          8           0       -2.066151   -1.844033   -0.433147
     10          1           0        3.225509   -1.254280    0.591316
     11          1           0        2.104763    0.715646    1.096283
     12          1           0        2.777893    0.765309   -0.548814
     13          1           0        0.669371   -0.112983   -1.451226
     14          1           0        0.737916    2.539961   -1.143619
     15          1           0       -1.514436    2.960334    0.039207
     16          1           0       -1.777334    0.922065    1.731029
     17          1           0       -2.478883    0.445350    0.194050
     18          1           0        0.045121   -0.557901    1.403491
     19          1           0       -0.112305   -2.336526   -0.296582
 ---------------------------------------------------------------------

 SCF Done:  E(RB3LYP) =  -423.200314359     A.U. after    1 cycles

 The electronic state is 1-A.
 Alpha  occ. eigenvalues --  -19.14621 -19.13243 -10.26066 -10.23567 -10.19971
 Alpha  occ. eigenvalues --  -10.19327 -10.18455 -10.18256 -10.18170  -1.03853
 Alpha  occ. eigenvalues --   -1.02621  -0.85126  -0.74637  -0.73184  -0.66014
 Alpha  occ. eigenvalues --   -0.60183  -0.55109  -0.54037  -0.51256  -0.49093
 Alpha  occ. eigenvalues --   -0.48664  -0.44841  -0.43367  -0.40663  -0.38985
 Alpha  occ. eigenvalues --   -0.38335  -0.37403  -0.35432  -0.34594  -0.34084
 Alpha  occ. eigenvalues --   -0.32876  -0.27894  -0.24760  -0.24262
 Alpha virt. eigenvalues --   -0.01205   0.02037   0.06702   0.10033   0.11404
 Alpha virt. eigenvalues --    0.13515   0.14145   0.14875   0.16462   0.17352
 Alpha virt. eigenvalues --    0.17404   0.18309   0.19958   0.20233   0.20797

 Mulliken charges:
               1
     1  O   -0.420383
     2  C   -0.092891
     3  C   -0.039112
     4  C   -0.088677
     5  C   -0.069281
     6  C   -0.286077
     7  C   -0.086339
     8  C    0.139078
     9  O   -0.251157
    10  H    0.291021
    11  H    0.090625
    12  H    0.089437
    13  H    0.092827
    14  H    0.093821
    15  H    0.097329
    16  H    0.105230
    17  H    0.136095
    18  H    0.100103
    19  H    0.098350
 Sum of Mulliken charges =   0.00000

 Dipole moment (field-independent basis, Debye):
    X=              3.2253    Y=              1.8610    Z=              1.2113  Tot=              3.9157
 Quadrupole moment (field-independent basis, Debye-Ang):
   XX=            -51.5171   YY=            -55.5104   ZZ=            -52.1505
   XY=             -5.1156   XZ=             -0.2474   YZ=             -2.4016

  Exact polarizability:  90.776  -2.688  80.715  -5.646  -0.202  60.209
 Approx polarizability: 137.444  -1.257 109.881  -9.867   1.862  96.801

                      1                      2                      3
                      A                      A                      A
 Frequencies --     35.7969                89.8170               114.8634
 Red. masses --      3.5556                 4.1706                 3.9714
 Frc consts  --      0.0027                 0.0198                 0.0309
 IR Inten    --      0.1728                 2.6645                 4.7597

                      4                      5                      6
                      A                      A                      A
 Frequencies --    180.3159               237.6334               259.2425
 Red. masses --      2.9282                 1.7964                 1.9251
 Frc consts  --      0.0561                 0.0598                 0.0762
 IR Inten    --      0.8266                52.6587                39.3416

                      7                      8                      9
                      A                      A                      A
 Frequencies --    288.0138               368.5640               424.6504
 Red. masses --      2.0596                 2.5766                 4.0184
 Frc consts  --      0.1007                 0.2062                 0.4269
 IR Inten    --     24.0605                 1.5926                 9.4594

                     10                     11                     12
                      A                      A                      A
 Frequencies --    476.0653               615.9527               679.8629
 Red. masses --      2.7099                 3.1536                 3.6173
 Frc consts  --      0.3619                 0.7049                 0.9851
 IR Inten    --      0.1058                12.4869                10.4544

                     13                     14                     15
                      A                      A                      A
 Frequencies --    740.2160               786.8792               796.6637
 Red. masses --      1.3999                 2.5574                 4.7170
 Frc consts  --      0.4519                 0.9330                 1.7639
 IR Inten    --     20.5491                14.1915                 3.0906

                     16                     17                     18
                      A                      A                      A
 Frequencies --    924.1155               957.4862               972.4713
 Red. masses --      1.9081                 1.7840                 1.9453
 Frc consts  --      0.9601                 0.9636                 1.0839
 IR Inten    --      0.6422                 2.0980                 8.1810

                     19                     20                     21
                      A                      A                      A
 Frequencies --    975.3914              1009.3238              1029.2207
 Red. masses --      1.2869                 1.7411                 2.5071
 Frc consts  --      0.7214                 1.0450                 1.5647
 IR Inten    --      0.7612                 0.9195                 6.1737

                     22                     23                     24
                      A                      A                      A
 Frequencies --   1047.9011              1067.4973              1093.9946
 Red. masses --      2.3555                 3.6050                 2.2289
 Frc consts  --      1.5239                 2.4204                 1.5717
 IR Inten    --     51.6976                27.2319                18.0130

                     25                     26                     27
                      A                      A                      A
 Frequencies --   1127.1887              1142.2227              1184.3021
 Red. masses --      2.2096                 1.2252                 1.2412
 Frc consts  --      1.6540                 0.9418                 1.0257
 IR Inten    --     16.3185                 1.3214                 8.1743

                     28                     29                     30
                      A                      A                      A
 Frequencies --   1223.0604              1233.1521              1276.1370
 Red. masses --      1.1827                 1.1733                 1.2138
 Frc consts  --      1.0423                 1.0512                 1.1647
 IR Inten    --     19.3966                20.2958                 2.1714

                     31                     32                     33
                      A                      A                      A
 Frequencies --   1291.4900              1310.3288              1334.1454
 Red. masses --      1.4279                 1.4266                 1.5639
 Frc consts  --      1.4032                 1.4431                 1.6400
 IR Inten    --     13.0042                 6.1521                 3.7727

                     34                     35                     36
                      A                      A                      A
 Frequencies --   1362.6093              1376.8446              1416.0951
 Red. masses --      1.5309                 1.5922                 1.2062
 Frc consts  --      1.6747                 1.7784                 1.4252
 IR Inten    --      5.9154                 3.6919                 6.1720

                     37                     38                     39
                      A                      A                      A
 Frequencies --   1449.0450              1490.9407              1521.8257
 Red. masses --      1.4572                 1.0909                 1.0840
 Frc consts  --      1.8028                 1.4288                 1.4792
 IR Inten    --      7.0163                 4.4466                 2.9549

                     40                     41                     42
                      A                      A                      A
 Frequencies --   1695.8930              1823.4877              2905.3470
 Red. masses --      6.4303                10.1727                 1.0840
 Frc consts  --     10.8964                19.9293                 5.3909
 IR Inten    --      4.3188               166.2023                75.3256

                     43                     44                     45
                      A                      A                      A
 Frequencies --   2967.7141              2984.6073              3007.2350
 Red. masses --      1.0548                 1.0853                 1.1034
 Frc consts  --      5.4734                 5.6960                 5.8793
 IR Inten    --     49.5416                13.3385                73.2494

                     46                     47                     48
                      A                      A                      A
 Frequencies --   3028.2443              3036.6843              3064.6088
 Red. masses --      1.0767                 1.0664                 1.1013
 Frc consts  --      5.8171                 5.7938                 6.0939
 IR Inten    --     13.7660                22.1640                15.4982

                     49                     50                     51
                      A                      A                      A
 Frequencies --   3176.9191              3202.6918              3832.5945
 Red. masses --      1.0841                 1.1036                 1.0665
 Frc consts  --      6.4465                 6.6697                 9.2297
 IR Inten    --      5.5943                24.5806                27.2544

 - Thermochemistry -
 -------------------
 Temperature   298.150 Kelvin.  Pressure   1.00000 Atm.
 Atom     1 has atomic number  8 and mass  15.99491

 Molecular mass:   126.06808 amu.
 Principal axes and moments of inertia in atomic units:
                           1         2         3
     Eigenvalues --   918.082301184.474091896.38314
           X            0.99727  -0.07331  -0.00927
           Y            0.07325   0.99729  -0.00648
           Z            0.00972   0.00578   0.99994
 This molecule is an asymmetric top.
 Rotational symmetry number  1.
 Warning -- assumption of classical behavior for rotation
           may cause significant error
 Rotational temperatures (Kelvin)      0.09434     0.07312     0.04567
 Rotational constants (GHZ):           1.96577     1.52366     0.95168
 Zero-point vibrational energy     416523.9 (Joules/Mol)
                                   99.55159 (Kcal/Mol)
 Warning -- explicit consideration of  11 degrees of freedom as
           vibrations may cause significant error
 Vibrational temperatures:     51.50   129.23   165.26   259.43   341.90
          (Kelvin)            372.99   414.39   530.28   610.98   684.95
                              886.22   978.17  1065.00  1132.14  1146.22
                             1329.59  1377.61  1399.17  1403.37  1452.19
                             1480.82  1507.69  1535.89  1574.01  1621.77
                             1643.40  1703.94  1759.71  1774.23  1836.07
                             1858.16  1885.27  1919.54  1960.49  1980.97
                             2037.44  2084.85  2145.13  2189.57  2440.01
                             2623.59  4180.14  4269.87  4294.18  4326.74
                             4356.96  4369.11  4409.28  4570.87  4607.95
                             5514.24

 Zero-point correction=                           0.158646 (Hartree/Particle)
 Thermal correction to Energy=                    0.167716
 Thermal correction to Enthalpy=                  0.168660
 Thermal correction to Gibbs Free Energy=         0.123740
 Sum of electronic and zero-point Energies=           -423.041669
 Sum of electronic and thermal Energies=              -423.032598
 Sum of electronic and thermal Enthalpies=            -423.031654
 Sum of electronic and thermal Free Energies=         -423.076574

                     E (Thermal)             CV                S
                      KCal/Mol        Cal/Mol-Kelvin    Cal/Mol-Kelvin
 Total                  105.244             32.792             94.543
 Electronic               0.000              0.000              0.000
 Translational            0.889              2.981             40.409
 Rotational               0.889              2.981             29.113
 Vibrational            103.466             26.831             25.022
 Vibration     1          0.594              1.982              5.479
 Vibration     2          0.602              1.956              3.664
 Vibration     3          0.608              1.937              3.185
 Vibration     4          0.629              1.866              2.325
 Vibration     5          0.656              1.783              1.821
 Vibration     6          0.668              1.747              1.667
 Vibration     7          0.685              1.696              1.486
 Vibration     8          0.741              1.537              1.086
 Vibration     9          0.787              1.417              0.876
 Vibration    10          0.833              1.303              0.721
 Vibration    11          0.976              0.998              0.423

 Normal termination of Gaussian 09 at Tue Jan 28 14:56:22 2020.
