 Gaussian 09, Revision D.01,
 Gaussian 09:  ES64L-G09RevD.01 24-Apr-2013

 -----------------------------
 # b3lyp 6-31G(2df,p) opt Freq
 -----------------------------

 -----
 titel
 -----
 Symbolic Z-matrix:
 Charge =  0 Multiplicity = 1

 SCF Done:  E(RB3LYP) =  -423.159108992     A.U. after   14 cycles
 SCF Done:  E(RB3LYP) =  -423.159108977     A.U. after    7 cycles
 SCF Done:  E(RB3LYP) =  -423.159109000     A.U. after    7 cycles
 Optimization completed.
    -- Stationary point found.
 Normal termination of Gaussian 09 at Mon Jan 27 16:18:44 2020.

 ----------------------------------------------------------------------
 #N Geom=AllCheck Guess=TCheck SCRF=Check GenChk RB3LYP/6-31G(2df,p) Fr
 eq
 ----------------------------------------------------------------------

 Structure from the checkpoint file:  "/scratch/puck/g09_2cb70271-3d6f-49af-99c6-5acfa30d85e9/Gau-35050.chk"
 -----
 titel
 -----
 Charge =  0 Multiplicity = 1

                         Standard orientation:
 ---------------------------------------------------------------------
 Center     Atomic      Atomic             Coordinates (Angstroms)
 Number     Number       Type             X           Y           Z
 ---------------------------------------------------------------------
      1          6           0       -2.191751    1.403811   -0.226131
      2          6           0       -1.294792    0.297138    0.368230
      3          6           0       -1.972063   -1.038017    0.136327
      4          8           0       -1.504639   -1.980604   -0.452985
      5          6           0        0.139127    0.361000   -0.170233
      6          8           0        0.586889    1.691011    0.030538
      7          6           0        1.085935   -0.645384    0.528889
      8          6           0        2.463793   -0.445550    0.096571
      9          6           0        3.579376   -0.215133   -0.291077
     10          1           0       -2.250355    1.313793   -1.315880
     11          1           0       -3.208119    1.340924    0.175415
     12          1           0       -1.778018    2.382843    0.014479
     13          1           0       -1.268205    0.447960    1.459049
     14          1           0       -3.005642   -1.086908    0.551126
     15          1           0        0.121023    0.115014   -1.243314
     16          1           0        1.521063    1.714371   -0.211755
     17          1           0        1.018637   -0.504142    1.615373
     18          1           0        0.758598   -1.663451    0.301098
     19          1           0        4.575265   -0.050846   -0.621477
 ---------------------------------------------------------------------

 SCF Done:  E(RB3LYP) =  -423.159109000     A.U. after    1 cycles

 The electronic state is 1-A.
 Alpha  occ. eigenvalues --  -19.14933 -19.13775 -10.27869 -10.24411 -10.20718
 Alpha  occ. eigenvalues --  -10.20636 -10.19016 -10.18851 -10.17953  -1.05592
 Alpha  occ. eigenvalues --   -1.02410  -0.81562  -0.78549  -0.72175  -0.66384
 Alpha  occ. eigenvalues --   -0.63895  -0.55651  -0.53264  -0.52638  -0.47880
 Alpha  occ. eigenvalues --   -0.47083  -0.45571  -0.44389  -0.43402  -0.40513
 Alpha  occ. eigenvalues --   -0.39806  -0.38286  -0.37282  -0.35449  -0.33128
 Alpha  occ. eigenvalues --   -0.28553  -0.27377  -0.26585  -0.25563
 Alpha virt. eigenvalues --   -0.02897   0.04363   0.05240   0.09435   0.10094
 Alpha virt. eigenvalues --    0.11417   0.12315   0.13235   0.14486   0.16125
 Alpha virt. eigenvalues --    0.16865   0.17822   0.19056   0.20808   0.21346

 Mulliken charges:
               1
     1  C   -0.415284
     2  C   -0.091903
     3  C    0.154768
     4  O   -0.249708
     5  C    0.142575
     6  O   -0.447007
     7  C   -0.381539
     8  C    0.256671
     9  C   -0.419889
    10  H    0.128399
    11  H    0.116345
    12  H    0.155195
    13  H    0.102348
    14  H    0.084930
    15  H    0.087776
    16  H    0.287983
    17  H    0.127520
    18  H    0.161092
    19  H    0.199727
 Sum of Mulliken charges =   0.00000

 Dipole moment (field-independent basis, Debye):
    X=             -0.2318    Y=              1.1107    Z=              0.7272  Tot=              1.3476
 Quadrupole moment (field-independent basis, Debye-Ang):
   XX=            -45.4149   YY=            -60.6016   ZZ=            -52.7017
   XY=             -0.6871   XZ=             -3.7194   YZ=             -2.9864

  Exact polarizability: 104.834  -0.063  71.193  -8.344   0.218  59.165
 Approx polarizability: 140.917   2.999 108.162 -17.874   4.558  95.416

                      1                      2                      3
                      A                      A                      A
 Frequencies --     72.0847                74.4930               105.5267
 Red. masses --      3.3893                 4.7671                 2.9680
 Frc consts  --      0.0104                 0.0156                 0.0195
 IR Inten    --      0.8917                 2.8004                 3.7003

                      4                      5                      6
                      A                      A                      A
 Frequencies --    124.1017               189.5400               217.1790
 Red. masses --      3.7305                 4.4360                 1.1269
 Frc consts  --      0.0339                 0.0939                 0.0313
 IR Inten    --      0.5043                 6.5239                 1.0442

                      7                      8                      9
                      A                      A                      A
 Frequencies --    279.0456               316.1967               351.1247
 Red. masses --      3.9380                 2.6993                 3.2304
 Frc consts  --      0.1807                 0.1590                 0.2347
 IR Inten    --      2.1680                 2.8780                 5.0092

                     10                     11                     12
                      A                      A                      A
 Frequencies --    377.6348               397.8816               404.6797
 Red. masses --      2.4795                 4.8586                 1.1387
 Frc consts  --      0.2083                 0.4532                 0.1099
 IR Inten    --      5.5952                 7.4470                96.3845

                     13                     14                     15
                      A                      A                      A
 Frequencies --    464.2428               556.9773               622.2965
 Red. masses --      3.4278                 3.5203                 1.2117
 Frc consts  --      0.4353                 0.6434                 0.2765
 IR Inten    --      2.8259                12.7923                47.7922

                     16                     17                     18
                      A                      A                      A
 Frequencies --    657.6712               692.6442               818.8809
 Red. masses --      1.2201                 4.5389                 2.5190
 Frc consts  --      0.3109                 1.2830                 0.9952
 IR Inten    --     41.3626                20.6303                 3.7646

                     19                     20                     21
                      A                      A                      A
 Frequencies --    878.8805               922.9523               937.4874
 Red. masses --      2.2990                 1.2671                 2.0637
 Frc consts  --      1.0463                 0.6360                 1.0686
 IR Inten    --      3.8662                 1.0751                39.7710

                     22                     23                     24
                      A                      A                      A
 Frequencies --    955.6182              1017.2954              1059.9613
 Red. masses --      2.3583                 2.6201                 2.5851
 Frc consts  --      1.2689                 1.5976                 1.7112
 IR Inten    --      1.1070                 0.5793                42.0769

                     25                     26                     27
                      A                      A                      A
 Frequencies --   1104.3656              1125.0362              1156.8579
 Red. masses --      2.5932                 2.8280                 1.6082
 Frc consts  --      1.8634                 2.1089                 1.2681
 IR Inten    --      4.7017                16.5831                13.6909

                     28                     29                     30
                      A                      A                      A
 Frequencies --   1235.2401              1269.0223              1285.1770
 Red. masses --      1.3172                 1.2193                 1.3040
 Frc consts  --      1.1841                 1.1569                 1.2690
 IR Inten    --      8.5115                13.0994                 0.8842

                     31                     32                     33
                      A                      A                      A
 Frequencies --   1308.6076              1342.6382              1372.8255
 Red. masses --      1.4087                 1.4491                 1.2399
 Frc consts  --      1.4213                 1.5391                 1.3768
 IR Inten    --     19.6523                29.9347                17.2450

                     34                     35                     36
                      A                      A                      A
 Frequencies --   1398.9818              1419.3280              1450.7403
 Red. masses --      1.2168                 1.2714                 1.4679
 Frc consts  --      1.4031                 1.5090                 1.8202
 IR Inten    --      1.2655                19.5826                16.7010

                     37                     38                     39
                      A                      A                      A
 Frequencies --   1468.6368              1491.7945              1506.2522
 Red. masses --      1.0951                 1.0493                 1.0645
 Frc consts  --      1.3917                 1.3758                 1.4230
 IR Inten    --      4.9315                 8.8056                 5.9988

                     40                     41                     42
                      A                      A                      A
 Frequencies --   1822.0879              2230.0794              2864.3109
 Red. masses --     10.5389                 5.9446                 1.0825
 Frc consts  --     20.6151                17.4187                 5.2325
 IR Inten    --    149.2243                 3.4817               132.6857

                     43                     44                     45
                      A                      A                      A
 Frequencies --   2982.4344              2997.5261              3030.4196
 Red. masses --      1.0804                 1.0821                 1.0658
 Frc consts  --      5.6621                 5.7288                 5.7669
 IR Inten    --     14.4924                23.4935                19.9510

                     46                     47                     48
                      A                      A                      A
 Frequencies --   3041.6877              3100.3799              3105.2793
 Red. masses --      1.0376                 1.0946                 1.1018
 Frc consts  --      5.6560                 6.1994                 6.2599
 IR Inten    --     25.9889                 2.5235                25.4546

                     49                     50                     51
                      A                      A                      A
 Frequencies --   3154.3961              3504.3298              3771.9602
 Red. masses --      1.0988                 1.1613                 1.0656
 Frc consts  --      6.4415                 8.4027                 8.9327
 IR Inten    --      5.4197                73.0101                44.7626

 - Thermochemistry -
 -------------------
 Temperature   298.150 Kelvin.  Pressure   1.00000 Atm.
 Atom     1 has atomic number  6 and mass  12.00000

 Molecular mass:   126.06808 amu.
 Principal axes and moments of inertia in atomic units:
                           1         2         3
     Eigenvalues --   683.739351718.341432263.14106
           X            0.99958  -0.02852  -0.00544
           Y            0.02840   0.99939  -0.02027
           Z            0.00602   0.02011   0.99978
 This molecule is an asymmetric top.
 Rotational symmetry number  1.
 Warning -- assumption of classical behavior for rotation
           may cause significant error
 Rotational temperatures (Kelvin)      0.12668     0.05041     0.03827
 Rotational constants (GHZ):           2.63952     1.05028     0.79745
 Zero-point vibrational energy     406938.4 (Joules/Mol)
                                   97.26062 (Kcal/Mol)
 Warning -- explicit consideration of  14 degrees of freedom as
           vibrations may cause significant error
 Vibrational temperatures:    103.71   107.18   151.83   178.55   272.71
          (Kelvin)            312.47   401.48   454.94   505.19   543.33
                              572.46   582.24   667.94   801.37   895.34
                              946.24   996.56  1178.19  1264.51  1327.92
                             1348.83  1374.92  1463.66  1525.05  1588.93
                             1618.67  1664.46  1777.23  1825.84  1849.08
                             1882.79  1931.75  1975.19  2012.82  2042.09
                             2087.29  2113.04  2146.36  2167.16  2621.57
                             3208.58  4121.10  4291.05  4312.77  4360.09
                             4376.30  4460.75  4467.80  4538.47  5041.94
                             5427.00

 Zero-point correction=                           0.154995 (Hartree/Particle)
 Thermal correction to Energy=                    0.165421
 Thermal correction to Enthalpy=                  0.166365
 Thermal correction to Gibbs Free Energy=         0.119254
 Sum of electronic and zero-point Energies=           -423.004114
 Sum of electronic and thermal Energies=              -422.993688
 Sum of electronic and thermal Enthalpies=            -422.992744
 Sum of electronic and thermal Free Energies=         -423.039855

                     E (Thermal)             CV                S
                      KCal/Mol        Cal/Mol-Kelvin    Cal/Mol-Kelvin
 Total                  103.803             37.405             99.154
 Electronic               0.000              0.000              0.000
 Translational            0.889              2.981             40.409
 Rotational               0.889              2.981             29.365
 Vibrational            102.026             31.443             29.380
 Vibration     1          0.598              1.967              4.096
 Vibration     2          0.599              1.966              4.031
 Vibration     3          0.605              1.945              3.350
 Vibration     4          0.610              1.929              3.035
 Vibration     5          0.633              1.854              2.232
 Vibration     6          0.646              1.815              1.982
 Vibration     7          0.679              1.712              1.540
 Vibration     8          0.703              1.643              1.330
 Vibration     9          0.728              1.573              1.161
 Vibration    10          0.748              1.518              1.049
 Vibration    11          0.764              1.475              0.970
 Vibration    12          0.770              1.460              0.946
 Vibration    13          0.822              1.329              0.754
 Vibration    14          0.912              1.124              0.530

 Optimization completed.
    -- Stationary point found.
 Normal termination of Gaussian 09 at Mon Jan 27 17:11:47 2020.
