 Gaussian 09, Revision D.01,
 Gaussian 09:  ES64L-G09RevD.01 24-Apr-2013

 -----------------------------
 # b3lyp 6-31G(2df,p) opt Freq
 -----------------------------

 -----
 titel
 -----
 Symbolic Z-matrix:
 Charge =  0 Multiplicity = 1

 SCF Done:  E(RB3LYP) =  -423.167260508     A.U. after   14 cycles
 Optimization completed.
    -- Stationary point found.
 Normal termination of Gaussian 09 at Tue Jan 28 03:22:03 2020.

 ----------------------------------------------------------------------
 #N Geom=AllCheck Guess=TCheck SCRF=Check GenChk RB3LYP/6-31G(2df,p) Fr
 eq
 ----------------------------------------------------------------------

 Structure from the checkpoint file:  "/scratch/puck/g09_32f23593-58d5-405a-b9ec-dfbf6cd85c90/Gau-7519.chk"
 -----
 titel
 -----
 Charge =  0 Multiplicity = 1

                         Standard orientation:
 ---------------------------------------------------------------------
 Center     Atomic      Atomic             Coordinates (Angstroms)
 Number     Number       Type             X           Y           Z
 ---------------------------------------------------------------------
      1          8           0       -2.515460   -0.627146    0.179800
      2          6           0       -1.123393   -0.493108    0.441815
      3          6           0       -0.284241   -1.290791   -0.567131
      4          6           0        1.207159   -1.004423   -0.518495
      5          6           0        1.959566   -0.741826    0.762132
      6          6           0        1.677735    0.392892   -0.206379
      7          6           0        0.641176    1.397458    0.171007
      8          8           0       -0.446070    1.608626   -0.752482
      9          6           0       -0.724055    0.968022    0.500946
     10          1           0       -2.683310   -0.212363   -0.674597
     11          1           0       -0.995265   -0.911926    1.447640
     12          1           0       -0.481754   -2.357791   -0.417828
     13          1           0       -0.645304   -1.037588   -1.571744
     14          1           0        1.772687   -1.526767   -1.284773
     15          1           0        1.419971   -0.743065    1.703085
     16          1           0        2.977981   -1.106195    0.837958
     17          1           0        2.517249    0.784881   -0.772488
     18          1           0        1.006557    2.320175    0.622535
     19          1           0       -1.320246    1.569441    1.188306
 ---------------------------------------------------------------------

 SCF Done:  E(RB3LYP) =  -423.167260508     A.U. after    1 cycles

 The electronic state is 1-A.
 Alpha  occ. eigenvalues --  -19.14823 -19.13552 -10.23912 -10.23578 -10.23250
 Alpha  occ. eigenvalues --  -10.19789 -10.19598 -10.19214 -10.18493  -1.06799
 Alpha  occ. eigenvalues --   -1.01716  -0.87127  -0.75996  -0.70155  -0.66625
 Alpha  occ. eigenvalues --   -0.60770  -0.58932  -0.54833  -0.52568  -0.48496
 Alpha  occ. eigenvalues --   -0.48056  -0.45955  -0.45154  -0.40348  -0.39629
 Alpha  occ. eigenvalues --   -0.38340  -0.37602  -0.36853  -0.33170  -0.31504
 Alpha  occ. eigenvalues --   -0.28882  -0.28215  -0.26985  -0.25868
 Alpha virt. eigenvalues --    0.07691   0.08579   0.09018   0.10700   0.12260
 Alpha virt. eigenvalues --    0.12846   0.13554   0.14908   0.16456   0.17025
 Alpha virt. eigenvalues --    0.17970   0.18959   0.20208   0.22557   0.24048

 Mulliken charges:
               1
     1  O   -0.439962
     2  C    0.098796
     3  C   -0.248039
     4  C   -0.027618
     5  C   -0.301327
     6  C   -0.052097
     7  C    0.042632
     8  O   -0.272590
     9  C    0.011700
    10  H    0.285111
    11  H    0.093891
    12  H    0.106926
    13  H    0.105609
    14  H    0.089523
    15  H    0.116880
    16  H    0.113930
    17  H    0.089949
    18  H    0.092010
    19  H    0.094676
 Sum of Mulliken charges =   0.00000

 Dipole moment (field-independent basis, Debye):
    X=              1.7360    Y=             -0.3083    Z=              0.3544  Tot=              1.7984
 Quadrupole moment (field-independent basis, Debye-Ang):
   XX=            -53.7802   YY=            -54.5902   ZZ=            -52.0971
   XY=             -1.3244   XZ=              1.5776   YZ=              3.0348

  Exact polarizability:  82.802   0.162  72.635   0.653   1.092  65.020
 Approx polarizability: 114.484   1.905 104.685   2.499  -4.058 106.069

                      1                      2                      3
                      A                      A                      A
 Frequencies --    122.3342               205.5283               251.0181
 Red. masses --      3.9719                 2.7380                 4.3238
 Frc consts  --      0.0350                 0.0681                 0.1605
 IR Inten    --      2.9438                 2.9809                 5.5293

                      4                      5                      6
                      A                      A                      A
 Frequencies --    317.6126               337.9854               370.8957
 Red. masses --      2.7387                 1.7457                 1.8602
 Frc consts  --      0.1628                 0.1175                 0.1508
 IR Inten    --      1.7034                15.2359                58.5413

                      7                      8                      9
                      A                      A                      A
 Frequencies --    408.3338               492.9194               559.2542
 Red. masses --      4.2022                 3.7545                 3.6065
 Frc consts  --      0.4128                 0.5375                 0.6646
 IR Inten    --     24.7895                 2.5562                 0.7547

                     10                     11                     12
                      A                      A                      A
 Frequencies --    637.7553               665.4427               764.2260
 Red. masses --      2.7250                 3.1578                 2.4152
 Frc consts  --      0.6530                 0.8239                 0.8311
 IR Inten    --     10.7077                 8.2748                 2.1329

                     13                     14                     15
                      A                      A                      A
 Frequencies --    796.9472               820.2093               847.2810
 Red. masses --      3.2702                 2.2735                 1.9703
 Frc consts  --      1.2237                 0.9011                 0.8334
 IR Inten    --      7.1739                 3.8438                 3.4385

                     16                     17                     18
                      A                      A                      A
 Frequencies --    894.7711               905.2105               962.6988
 Red. masses --      2.2647                 2.5526                 2.7204
 Frc consts  --      1.0683                 1.2323                 1.4855
 IR Inten    --     20.1147                28.3149                15.0935

                     19                     20                     21
                      A                      A                      A
 Frequencies --   1005.3524              1030.1855              1044.3496
 Red. masses --      2.4718                 2.1041                 1.9520
 Frc consts  --      1.4720                 1.3157                 1.2544
 IR Inten    --      7.8939                 8.7927                12.9687

                     22                     23                     24
                      A                      A                      A
 Frequencies --   1063.2782              1073.5606              1091.0838
 Red. masses --      1.2827                 1.6866                 2.9208
 Frc consts  --      0.8544                 1.1453                 2.0486
 IR Inten    --      9.2401                33.3974                70.4758

                     25                     26                     27
                      A                      A                      A
 Frequencies --   1121.5274              1131.1065              1154.1465
 Red. masses --      1.3667                 1.1567                 1.5974
 Frc consts  --      1.0128                 0.8719                 1.2537
 IR Inten    --      2.2488                 0.6826                 0.4441

                     28                     29                     30
                      A                      A                      A
 Frequencies --   1166.8929              1219.1439              1225.5442
 Red. masses --      1.4255                 1.4030                 1.3146
 Frc consts  --      1.1436                 1.2286                 1.1633
 IR Inten    --      1.3713                 2.2671                 4.3213

                     31                     32                     33
                      A                      A                      A
 Frequencies --   1272.8115              1298.3208              1345.4458
 Red. masses --      1.3871                 1.3419                 1.3128
 Frc consts  --      1.3240                 1.3327                 1.4002
 IR Inten    --      8.3923                 5.7177                 0.7806

                     34                     35                     36
                      A                      A                      A
 Frequencies --   1364.9595              1369.7752              1395.8188
 Red. masses --      1.6067                 1.5952                 1.6442
 Frc consts  --      1.7637                 1.7634                 1.8874
 IR Inten    --      5.3961                 2.9241                 5.2896

                     37                     38                     39
                      A                      A                      A
 Frequencies --   1422.2283              1436.1071              1468.7251
 Red. masses --      1.5937                 1.3050                 2.3634
 Frc consts  --      1.8993                 1.5857                 3.0038
 IR Inten    --     20.6565                29.7885                16.9449

                     40                     41                     42
                      A                      A                      A
 Frequencies --   1483.5507              1503.2732              3028.5597
 Red. masses --      1.2457                 1.4291                 1.0647
 Frc consts  --      1.6154                 1.9028                 5.7538
 IR Inten    --      4.8258                 7.3566                17.4211

                     43                     44                     45
                      A                      A                      A
 Frequencies --   3037.5345              3074.2952              3100.0205
 Red. masses --      1.0795                 1.1015                 1.0851
 Frc consts  --      5.8683                 6.1337                 6.1442
 IR Inten    --     26.7822                30.3446                15.7028

                     46                     47                     48
                      A                      A                      A
 Frequencies --   3111.9204              3135.6330              3142.6313
 Red. masses --      1.0909                 1.0544                 1.0875
 Frc consts  --      6.2241                 6.1079                 6.3282
 IR Inten    --     49.9954                15.2644                15.2293

                     49                     50                     51
                      A                      A                      A
 Frequencies --   3154.8165              3219.3058              3792.0540
 Red. masses --      1.0909                 1.1161                 1.0659
 Frc consts  --      6.3970                 6.8150                 9.0303
 IR Inten    --     19.7162                12.6835                18.9203

 - Thermochemistry -
 -------------------
 Temperature   298.150 Kelvin.  Pressure   1.00000 Atm.
 Atom     1 has atomic number  8 and mass  15.99491

 Molecular mass:   126.06808 amu.
 Principal axes and moments of inertia in atomic units:
                           1         2         3
     Eigenvalues --   674.013931085.052771454.58675
           X            0.99988  -0.01439   0.00591
           Y            0.01416   0.99921   0.03710
           Z           -0.00644  -0.03701   0.99929
 This molecule is an asymmetric top.
 Rotational symmetry number  1.
 Warning -- assumption of classical behavior for rotation
           may cause significant error
 Rotational temperatures (Kelvin)      0.12850     0.07982     0.05955
 Rotational constants (GHZ):           2.67760     1.66328     1.24072
 Zero-point vibrational energy     423743.5 (Joules/Mol)
                                  101.27713 (Kcal/Mol)
 Warning -- explicit consideration of   9 degrees of freedom as
           vibrations may cause significant error
 Vibrational temperatures:    176.01   295.71   361.16   456.97   486.29
          (Kelvin)            533.64   587.50   709.20   804.64   917.59
                              957.42  1099.55  1146.63  1180.10  1219.05
                             1287.37  1302.39  1385.11  1446.48  1482.21
                             1502.58  1529.82  1544.61  1569.82  1613.63
                             1627.41  1660.56  1678.90  1754.07  1763.28
                             1831.29  1867.99  1935.79  1963.87  1970.80
                             2008.27  2046.27  2066.24  2113.17  2134.50
                             2162.87  4357.42  4370.33  4423.22  4460.23
                             4477.35  4511.47  4521.54  4539.07  4631.86
                             5455.91

 Zero-point correction=                           0.161395 (Hartree/Particle)
 Thermal correction to Energy=                    0.168894
 Thermal correction to Enthalpy=                  0.169838
 Thermal correction to Gibbs Free Energy=         0.129746
 Sum of electronic and zero-point Energies=           -423.005865
 Sum of electronic and thermal Energies=              -422.998367
 Sum of electronic and thermal Enthalpies=            -422.997423
 Sum of electronic and thermal Free Energies=         -423.037514

                     E (Thermal)             CV                S
                      KCal/Mol        Cal/Mol-Kelvin    Cal/Mol-Kelvin
 Total                  105.982             30.451             84.379
 Electronic               0.000              0.000              0.000
 Translational            0.889              2.981             40.409
 Rotational               0.889              2.981             28.455
 Vibrational            104.205             24.489             15.516
 Vibration     1          0.610              1.930              3.063
 Vibration     2          0.640              1.832              2.083
 Vibration     3          0.663              1.761              1.723
 Vibration     4          0.704              1.640              1.322
 Vibration     5          0.718              1.600              1.222
 Vibration     6          0.743              1.532              1.076
 Vibration     7          0.773              1.452              0.933
 Vibration     8          0.849              1.266              0.676
 Vibration     9          0.915              1.119              0.525

 Normal termination of Gaussian 09 at Tue Jan 28 04:07:21 2020.
