 Gaussian 09, Revision D.01,
 Gaussian 09:  ES64L-G09RevD.01 24-Apr-2013

 -----------------------------
 # b3lyp 6-31G(2df,p) opt Freq
 -----------------------------

 -----
 titel
 -----
 Symbolic Z-matrix:
 Charge =  0 Multiplicity = 1

 SCF Done:  E(RB3LYP) =  -423.199414841     A.U. after   14 cycles
 Optimization completed.
    -- Stationary point found.
 Normal termination of Gaussian 09 at Tue Jan 28 08:14:01 2020.

 ----------------------------------------------------------------------
 #N Geom=AllCheck Guess=TCheck SCRF=Check GenChk RB3LYP/6-31G(2df,p) Fr
 eq
 ----------------------------------------------------------------------

 Structure from the checkpoint file:  "/scratch/puck/g09_712974ea-8960-4525-a33e-149a0924a535/Gau-25823.chk"
 -----
 titel
 -----
 Charge =  0 Multiplicity = 1

                         Standard orientation:
 ---------------------------------------------------------------------
 Center     Atomic      Atomic             Coordinates (Angstroms)
 Number     Number       Type             X           Y           Z
 ---------------------------------------------------------------------
      1          6           0       -1.299859    1.755932    0.726759
      2          6           0       -0.360216    1.039178   -0.245941
      3          8           0       -1.052179    0.199957   -1.169994
      4          6           0       -1.732018   -0.897499   -0.588728
      5          6           0       -0.937934   -1.600704    0.471857
      6          6           0        0.184269   -1.086037    0.970082
      7          6           0        0.740602    0.230809    0.478670
      8          6           0        1.896571   -0.062892   -0.471906
      9          8           0        3.060906    0.054511   -0.191245
     10          1           0       -2.108917    2.239095    0.171708
     11          1           0       -1.736211    1.066444    1.455097
     12          1           0       -0.753724    2.526163    1.279728
     13          1           0        0.110581    1.792485   -0.888114
     14          1           0       -2.705966   -0.583321   -0.172834
     15          1           0       -1.956632   -1.580364   -1.416710
     16          1           0       -1.339570   -2.540527    0.841073
     17          1           0        0.754225   -1.610610    1.730836
     18          1           0        1.151988    0.805083    1.315341
     19          1           0        1.565922   -0.422922   -1.470968
 ---------------------------------------------------------------------

 SCF Done:  E(RB3LYP) =  -423.199414841     A.U. after    1 cycles

 The electronic state is 1-A.
 Alpha  occ. eigenvalues --  -19.14849 -19.13730 -10.26735 -10.24628 -10.24101
 Alpha  occ. eigenvalues --  -10.20090 -10.19842 -10.19657 -10.18441  -1.04573
 Alpha  occ. eigenvalues --   -1.04145  -0.82198  -0.79086  -0.72298  -0.67201
 Alpha  occ. eigenvalues --   -0.62102  -0.58552  -0.52341  -0.51319  -0.49522
 Alpha  occ. eigenvalues --   -0.46798  -0.45174  -0.43673  -0.41985  -0.41509
 Alpha  occ. eigenvalues --   -0.40490  -0.39767  -0.37710  -0.36838  -0.35384
 Alpha  occ. eigenvalues --   -0.30910  -0.27886  -0.26100  -0.23828
 Alpha virt. eigenvalues --   -0.02848   0.02373   0.08026   0.10659   0.11900
 Alpha virt. eigenvalues --    0.12786   0.13105   0.15230   0.16016   0.16454
 Alpha virt. eigenvalues --    0.16747   0.17340   0.18483   0.20496   0.21335

 Mulliken charges:
               1
     1  C   -0.417529
     2  C    0.090755
     3  O   -0.268742
     4  C   -0.124023
     5  C   -0.057245
     6  C   -0.103440
     7  C   -0.112304
     8  C    0.146283
     9  O   -0.253846
    10  H    0.127346
    11  H    0.127958
    12  H    0.123333
    13  H    0.093799
    14  H    0.106093
    15  H    0.124376
    16  H    0.101017
    17  H    0.108038
    18  H    0.095274
    19  H    0.092857
 Sum of Mulliken charges =   0.00000

 Dipole moment (field-independent basis, Debye):
    X=             -2.8948    Y=             -0.3370    Z=              1.0262  Tot=              3.0898
 Quadrupole moment (field-independent basis, Debye-Ang):
   XX=            -62.6083   YY=            -49.2291   ZZ=            -53.9658
   XY=              1.5790   XZ=             -0.3248   YZ=              0.2274

  Exact polarizability:  93.279   7.357  74.622   4.715   0.793  65.991
 Approx polarizability: 142.795  17.184 104.994  12.904   1.871 102.374

                      1                      2                      3
                      A                      A                      A
 Frequencies --     72.4206                98.5315               185.1827
 Red. masses --      5.0160                 3.6440                 3.1479
 Frc consts  --      0.0155                 0.0208                 0.0636
 IR Inten    --      4.4176                 2.2271                 0.7249

                      4                      5                      6
                      A                      A                      A
 Frequencies --    215.4177               239.5109               260.2116
 Red. masses --      2.7381                 1.0785                 1.9719
 Frc consts  --      0.0749                 0.0365                 0.0787
 IR Inten    --      5.3698                 0.1425                 1.0519

                      7                      8                      9
                      A                      A                      A
 Frequencies --    344.7911               413.1347               445.6082
 Red. masses --      3.1355                 4.1284                 4.3955
 Frc consts  --      0.2196                 0.4152                 0.5142
 IR Inten    --      2.2403                 4.0341                 7.3037

                     10                     11                     12
                      A                      A                      A
 Frequencies --    487.4819               546.2841               621.8212
 Red. masses --      2.7113                 3.8624                 4.1421
 Frc consts  --      0.3796                 0.6791                 0.9436
 IR Inten    --      6.2282                 3.9130                 2.7580

                     13                     14                     15
                      A                      A                      A
 Frequencies --    713.2779               810.9851               845.5888
 Red. masses --      1.2848                 2.8204                 2.8825
 Frc consts  --      0.3851                 1.0929                 1.2143
 IR Inten    --     46.3781                 2.5639                13.0625

                     16                     17                     18
                      A                      A                      A
 Frequencies --    900.8697               931.2567               959.2874
 Red. masses --      3.0993                 2.6552                 1.9005
 Frc consts  --      1.4820                 1.3567                 1.0304
 IR Inten    --      3.6539                 1.4106                 0.9288

                     19                     20                     21
                      A                      A                      A
 Frequencies --    997.9625              1003.4717              1027.3915
 Red. masses --      1.2741                 2.3229                 1.9519
 Frc consts  --      0.7476                 1.3782                 1.2139
 IR Inten    --      2.5710                18.1864                24.4104

                     22                     23                     24
                      A                      A                      A
 Frequencies --   1046.8122              1077.3195              1103.8678
 Red. masses --      2.1575                 2.4914                 2.1125
 Frc consts  --      1.3930                 1.7036                 1.5166
 IR Inten    --      5.1185                15.3703                43.4903

                     25                     26                     27
                      A                      A                      A
 Frequencies --   1142.7509              1152.6391              1212.0403
 Red. masses --      1.9327                 2.2512                 1.4626
 Frc consts  --      1.4870                 1.7621                 1.2660
 IR Inten    --     19.7503                28.2997                36.3530

                     28                     29                     30
                      A                      A                      A
 Frequencies --   1248.8698              1266.5782              1313.6138
 Red. masses --      1.3107                 1.1382                 1.6390
 Frc consts  --      1.2044                 1.0758                 1.6663
 IR Inten    --      0.7820                 3.9485                 8.2438

                     31                     32                     33
                      A                      A                      A
 Frequencies --   1351.7598              1377.8930              1398.5882
 Red. masses --      1.2815                 1.2538                 1.2708
 Frc consts  --      1.3796                 1.4025                 1.4646
 IR Inten    --      3.4992                 5.8672                12.4547

                     34                     35                     36
                      A                      A                      A
 Frequencies --   1405.0907              1409.5168              1415.8262
 Red. masses --      1.2453                 1.5652                 1.2977
 Frc consts  --      1.4486                 1.8322                 1.5327
 IR Inten    --      2.1800                 2.9774                 8.6855

                     37                     38                     39
                      A                      A                      A
 Frequencies --   1484.3465              1489.9219              1504.4015
 Red. masses --      1.0726                 1.0478                 1.0625
 Frc consts  --      1.3924                 1.3704                 1.4168
 IR Inten    --      2.7462                 3.9013                 0.6409

                     40                     41                     42
                      A                      A                      A
 Frequencies --   1714.0244              1827.5447              2895.9261
 Red. masses --      6.6020                10.1762                 1.0836
 Frc consts  --     11.4277                20.0250                 5.3542
 IR Inten    --      2.5360               235.3214                62.0212

                     43                     44                     45
                      A                      A                      A
 Frequencies --   2948.8184              3039.4929              3043.1556
 Red. masses --      1.0727                 1.0854                 1.0355
 Frc consts  --      5.4957                 5.9080                 5.6498
 IR Inten    --     52.4700                24.7328                12.0347

                     46                     47                     48
                      A                      A                      A
 Frequencies --   3050.7807              3060.9584              3116.2684
 Red. masses --      1.0870                 1.0834                 1.1012
 Frc consts  --      5.9606                 5.9805                 6.3008
 IR Inten    --     25.9039                14.0753                18.6205

                     49                     50                     51
                      A                      A                      A
 Frequencies --   3122.1242              3160.3493              3183.0818
 Red. masses --      1.1025                 1.0842                 1.0979
 Frc consts  --      6.3317                 6.3800                 6.5542
 IR Inten    --     19.2826                 3.7446                18.2875

 - Thermochemistry -
 -------------------
 Temperature   298.150 Kelvin.  Pressure   1.00000 Atm.
 Atom     1 has atomic number  6 and mass  12.00000

 Molecular mass:   126.06808 amu.
 Principal axes and moments of inertia in atomic units:
                           1         2         3
     Eigenvalues --   720.947181351.660291592.45258
           X            0.99996  -0.00668  -0.00619
           Y            0.00692   0.99918   0.04002
           Z            0.00592  -0.04006   0.99918
 This molecule is an asymmetric top.
 Rotational symmetry number  1.
 Warning -- assumption of classical behavior for rotation
           may cause significant error
 Rotational temperatures (Kelvin)      0.12014     0.06408     0.05439
 Rotational constants (GHZ):           2.50329     1.33520     1.13331
 Zero-point vibrational energy     416808.0 (Joules/Mol)
                                   99.61949 (Kcal/Mol)
 Warning -- explicit consideration of  11 degrees of freedom as
           vibrations may cause significant error
 Vibrational temperatures:    104.20   141.76   266.44   309.94   344.60
          (Kelvin)            374.39   496.08   594.41   641.13   701.38
                              785.98   894.66  1026.25  1166.83  1216.61
                             1296.15  1339.87  1380.20  1435.84  1443.77
                             1478.19  1506.13  1550.02  1588.22  1644.16
                             1658.39  1743.85  1796.84  1822.32  1889.99
                             1944.88  1982.48  2012.25  2021.61  2027.98
                             2037.06  2135.64  2143.66  2164.50  2466.10
                             2629.43  4166.59  4242.69  4373.15  4378.42
                             4389.39  4404.03  4483.61  4492.03  4547.03
                             4579.74

 Zero-point correction=                           0.158754 (Hartree/Particle)
 Thermal correction to Energy=                    0.167455
 Thermal correction to Enthalpy=                  0.168399
 Thermal correction to Gibbs Free Energy=         0.125153
 Sum of electronic and zero-point Energies=           -423.040661
 Sum of electronic and thermal Energies=              -423.031960
 Sum of electronic and thermal Enthalpies=            -423.031016
 Sum of electronic and thermal Free Energies=         -423.074262

                     E (Thermal)             CV                S
                      KCal/Mol        Cal/Mol-Kelvin    Cal/Mol-Kelvin
 Total                  105.080             32.399             91.020
 Electronic               0.000              0.000              0.000
 Translational            0.889              2.981             40.409
 Rotational               0.889              2.981             28.830
 Vibrational            103.302             26.437             21.781
 Vibration     1          0.599              1.967              4.086
 Vibration     2          0.604              1.950              3.483
 Vibration     3          0.631              1.860              2.276
 Vibration     4          0.645              1.818              1.997
 Vibration     5          0.657              1.780              1.807
 Vibration     6          0.668              1.745              1.660
 Vibration     7          0.723              1.586              1.190
 Vibration     8          0.777              1.442              0.916
 Vibration     9          0.805              1.371              0.809
 Vibration    10          0.843              1.278              0.690
 Vibration    11          0.901              1.148              0.552

 Optimization completed.
    -- Stationary point found.
 Normal termination of Gaussian 09 at Tue Jan 28 09:00:03 2020.
