 Gaussian 09, Revision D.01,
 Gaussian 09:  ES64L-G09RevD.01 24-Apr-2013

 -----------------------------
 # b3lyp 6-31G(2df,p) opt Freq
 -----------------------------

 -----
 titel
 -----
 Symbolic Z-matrix:
 Charge =  0 Multiplicity = 1

 SCF Done:  E(RB3LYP) =  -423.108680700     A.U. after   14 cycles
 Optimization completed.
    -- Stationary point found.
 Normal termination of Gaussian 09 at Tue Jan 28 09:15:22 2020.

 ----------------------------------------------------------------------
 #N Geom=AllCheck Guess=TCheck SCRF=Check GenChk RB3LYP/6-31G(2df,p) Fr
 eq
 ----------------------------------------------------------------------

 Structure from the checkpoint file:  "/scratch/puck/g09_78884282-e80d-4462-8333-1ba950627a77/Gau-77072.chk"
 -----
 titel
 -----
 Charge =  0 Multiplicity = 1

                         Standard orientation:
 ---------------------------------------------------------------------
 Center     Atomic      Atomic             Coordinates (Angstroms)
 Number     Number       Type             X           Y           Z
 ---------------------------------------------------------------------
      1          6           0       -2.190265   -1.446819   -0.233522
      2          6           0       -1.703000   -0.018748   -0.025183
      3          6           0       -0.716740    0.156184    1.134102
      4          6           0        0.208730    1.299558    0.685463
      5          8           0       -0.263416    1.781288   -0.573125
      6          6           0       -0.500852    0.390565   -0.921241
      7          6           0        0.491184   -0.089394    0.223043
      8          6           0        1.678468   -0.989613    0.302222
      9          8           0        2.823827   -0.491253   -0.375816
     10          1           0       -2.717269   -1.544901   -1.189015
     11          1           0       -1.357073   -2.158423   -0.230970
     12          1           0       -2.882961   -1.746770    0.559425
     13          1           0       -2.537209    0.691373   -0.066587
     14          1           0       -0.832181   -0.130493    2.172805
     15          1           0        0.743516    1.971415    1.343601
     16          1           0       -0.469344    0.194351   -1.993021
     17          1           0        1.977857   -1.096872    1.351075
     18          1           0        1.413744   -1.997643   -0.057459
     19          1           0        2.572478   -0.312710   -1.287633
 ---------------------------------------------------------------------

 SCF Done:  E(RB3LYP) =  -423.108680700     A.U. after    1 cycles

 The electronic state is 1-A.
 Alpha  occ. eigenvalues --  -19.13693 -19.13536 -10.24347 -10.23867 -10.23714
 Alpha  occ. eigenvalues --  -10.19886 -10.19744 -10.19545 -10.18207  -1.06261
 Alpha  occ. eigenvalues --   -1.01632  -0.86342  -0.76473  -0.70641  -0.68139
 Alpha  occ. eigenvalues --   -0.62103  -0.55968  -0.54015  -0.52740  -0.48951
 Alpha  occ. eigenvalues --   -0.47216  -0.45061  -0.42693  -0.41539  -0.40970
 Alpha  occ. eigenvalues --   -0.39235  -0.37488  -0.35679  -0.34696  -0.32319
 Alpha  occ. eigenvalues --   -0.28954  -0.27774  -0.25859  -0.22984
 Alpha virt. eigenvalues --    0.06521   0.07609   0.09194   0.11449   0.11755
 Alpha virt. eigenvalues --    0.12499   0.12979   0.15098   0.15975   0.16264
 Alpha virt. eigenvalues --    0.16767   0.18391   0.19743   0.21130   0.22457

 Mulliken charges:
               1
     1  C   -0.411875
     2  C    0.011328
     3  C   -0.174600
     4  C    0.022499
     5  O   -0.293479
     6  C   -0.002933
     7  C    0.278190
     8  C   -0.226032
     9  O   -0.407560
    10  H    0.116352
    11  H    0.115012
    12  H    0.120875
    13  H    0.075021
    14  H    0.089938
    15  H    0.113151
    16  H    0.080026
    17  H    0.116331
    18  H    0.092282
    19  H    0.285474
 Sum of Mulliken charges =   0.00000

 Dipole moment (field-independent basis, Debye):
    X=             -1.1728    Y=             -1.6373    Z=              0.1525  Tot=              2.0198
 Quadrupole moment (field-independent basis, Debye-Ang):
   XX=            -58.8106   YY=            -56.6779   ZZ=            -47.8600
   XY=              1.8273   XZ=             -0.8379   YZ=              2.3132

  Exact polarizability:  81.143   2.774  71.305   1.176   0.976  71.325
 Approx polarizability: 109.988   2.075 107.365  -0.163  -0.487 111.219

                      1                      2                      3
                      A                      A                      A
 Frequencies --     74.0675               119.5496               178.7013
 Red. masses --      3.0381                 3.9289                 2.0949
 Frc consts  --      0.0098                 0.0331                 0.0394
 IR Inten    --      1.3038                 2.2117                14.2915

                      4                      5                      6
                      A                      A                      A
 Frequencies --    229.1014               254.7590               275.6998
 Red. masses --      1.1296                 1.5419                 2.2462
 Frc consts  --      0.0349                 0.0590                 0.1006
 IR Inten    --      1.0079                72.0696                 4.9206

                      7                      8                      9
                      A                      A                      A
 Frequencies --    316.2315               420.7365               504.1649
 Red. masses --      1.8811                 4.5340                 4.9233
 Frc consts  --      0.1108                 0.4729                 0.7373
 IR Inten    --     20.5140                 9.6038                 3.2521

                     10                     11                     12
                      A                      A                      A
 Frequencies --    565.8052               631.1698               747.9144
 Red. masses --      3.8267                 3.2074                 2.8381
 Frc consts  --      0.7218                 0.7528                 0.9354
 IR Inten    --      4.9947                 4.0885                 3.1269

                     13                     14                     15
                      A                      A                      A
 Frequencies --    789.5410               803.9602               878.2732
 Red. masses --      3.8049                 2.2429                 2.1951
 Frc consts  --      1.3975                 0.8541                 0.9976
 IR Inten    --     12.9532                 4.1014                 1.7138

                     16                     17                     18
                      A                      A                      A
 Frequencies --    904.0205               918.6977               931.9868
 Red. masses --      2.2570                 1.8459                 1.7388
 Frc consts  --      1.0868                 0.9179                 0.8899
 IR Inten    --      8.9511                35.7417                 7.1631

                     19                     20                     21
                      A                      A                      A
 Frequencies --    963.3272               997.6051              1023.9900
 Red. masses --      3.9290                 1.6819                 1.8337
 Frc consts  --      2.1482                 0.9862                 1.1328
 IR Inten    --     35.3403                25.0158                 5.1943

                     22                     23                     24
                      A                      A                      A
 Frequencies --   1028.8562              1052.6504              1074.7199
 Red. masses --      2.8983                 3.3768                 2.0483
 Frc consts  --      1.8076                 2.2046                 1.3939
 IR Inten    --      6.6063                97.2689                 4.3418

                     25                     26                     27
                      A                      A                      A
 Frequencies --   1086.0096              1111.3688              1127.9810
 Red. masses --      1.7760                 1.8037                 2.4214
 Frc consts  --      1.2341                 1.3126                 1.8151
 IR Inten    --      3.4383                 4.7832                 2.7782

                     28                     29                     30
                      A                      A                      A
 Frequencies --   1167.0188              1210.7064              1225.3302
 Red. masses --      1.8869                 1.3089                 1.8285
 Frc consts  --      1.5141                 1.1304                 1.6175
 IR Inten    --      1.9967                 4.0075                 4.3918

                     31                     32                     33
                      A                      A                      A
 Frequencies --   1243.2269              1283.0368              1293.5199
 Red. masses --      1.4103                 1.7094                 1.5088
 Frc consts  --      1.2843                 1.6579                 1.4874
 IR Inten    --     16.9672                 0.9686                10.6249

                     34                     35                     36
                      A                      A                      A
 Frequencies --   1366.5070              1370.7074              1409.5346
 Red. masses --      1.3866                 1.4711                 1.2847
 Frc consts  --      1.5255                 1.6285                 1.5039
 IR Inten    --      5.6025                 3.2065                54.7958

                     37                     38                     39
                      A                      A                      A
 Frequencies --   1411.9164              1454.7061              1492.0810
 Red. masses --      1.2522                 4.2007                 1.0779
 Frc consts  --      1.4707                 5.2375                 1.4139
 IR Inten    --      5.7908                24.5053                 0.7110

                     40                     41                     42
                      A                      A                      A
 Frequencies --   1494.6998              1500.6141              2965.5089
 Red. masses --      1.0550                 1.0504                 1.0712
 Frc consts  --      1.3887                 1.3936                 5.5502
 IR Inten    --      2.2732                 2.5982                59.8284

                     43                     44                     45
                      A                      A                      A
 Frequencies --   3027.8022              3038.7447              3061.6595
 Red. masses --      1.0352                 1.0840                 1.0900
 Frc consts  --      5.5914                 5.8975                 6.0201
 IR Inten    --     27.7924                34.1187                22.1886

                     46                     47                     48
                      A                      A                      A
 Frequencies --   3094.8331              3098.6283              3121.0481
 Red. masses --      1.1012                 1.1008                 1.0920
 Frc consts  --      6.2145                 6.2271                 6.2675
 IR Inten    --     30.9646                30.3339                34.2670

                     49                     50                     51
                      A                      A                      A
 Frequencies --   3187.5369              3212.7425              3818.0245
 Red. masses --      1.0920                 1.0959                 1.0663
 Frc consts  --      6.5369                 6.6644                 9.1578
 IR Inten    --      9.2915                13.6119                16.3901

 - Thermochemistry -
 -------------------
 Temperature   298.150 Kelvin.  Pressure   1.00000 Atm.
 Atom     1 has atomic number  6 and mass  12.00000

 Molecular mass:   126.06808 amu.
 Principal axes and moments of inertia in atomic units:
                           1         2         3
     Eigenvalues --   680.016581295.325351568.69345
           X            0.99933   0.03592   0.00667
           Y           -0.03610   0.99889   0.03018
           Z           -0.00557  -0.03040   0.99952
 This molecule is an asymmetric top.
 Rotational symmetry number  1.
 Warning -- assumption of classical behavior for rotation
           may cause significant error
 Rotational temperatures (Kelvin)      0.12737     0.06687     0.05521
 Rotational constants (GHZ):           2.65397     1.39327     1.15047
 Zero-point vibrational energy     416067.3 (Joules/Mol)
                                   99.44247 (Kcal/Mol)
 Warning -- explicit consideration of  10 degrees of freedom as
           vibrations may cause significant error
 Vibrational temperatures:    106.57   172.01   257.11   329.63   366.54
          (Kelvin)            396.67   454.99   605.35   725.38   814.07
                              908.11  1076.08  1135.97  1156.72  1263.64
                             1300.68  1321.80  1340.92  1386.01  1435.33
                             1473.29  1480.29  1514.53  1546.28  1562.52
                             1599.01  1622.91  1679.08  1741.93  1762.97
                             1788.72  1846.00  1861.08  1966.10  1972.14
                             2028.00  2031.43  2092.99  2146.77  2150.54
                             2159.05  4266.70  4356.33  4372.07  4405.04
                             4452.77  4458.23  4490.49  4586.15  4622.41
                             5493.28

 Zero-point correction=                           0.158472 (Hartree/Particle)
 Thermal correction to Energy=                    0.166944
 Thermal correction to Enthalpy=                  0.167889
 Thermal correction to Gibbs Free Energy=         0.125225
 Sum of electronic and zero-point Energies=           -422.950209
 Sum of electronic and thermal Energies=              -422.941736
 Sum of electronic and thermal Enthalpies=            -422.940792
 Sum of electronic and thermal Free Energies=         -422.983455

                     E (Thermal)             CV                S
                      KCal/Mol        Cal/Mol-Kelvin    Cal/Mol-Kelvin
 Total                  104.759             32.189             89.792
 Electronic               0.000              0.000              0.000
 Translational            0.889              2.981             40.409
 Rotational               0.889              2.981             28.715
 Vibrational            102.982             26.227             20.669
 Vibration     1          0.599              1.966              4.042
 Vibration     2          0.609              1.933              3.108
 Vibration     3          0.629              1.869              2.342
 Vibration     4          0.652              1.797              1.886
 Vibration     5          0.665              1.755              1.697
 Vibration     6          0.677              1.718              1.560
 Vibration     7          0.703              1.643              1.330
 Vibration     8          0.783              1.425              0.889
 Vibration     9          0.859              1.241              0.648
 Vibration    10          0.922              1.105              0.512

 Normal termination of Gaussian 09 at Tue Jan 28 10:01:10 2020.
