 Gaussian 09, Revision D.01,
 Gaussian 09:  ES64L-G09RevD.01 24-Apr-2013

 -----------------------------
 # b3lyp 6-31G(2df,p) opt Freq
 -----------------------------

 -----
 titel
 -----
 Symbolic Z-matrix:
 Charge =  0 Multiplicity = 1

 SCF Done:  E(RB3LYP) =  -423.121105731     A.U. after   13 cycles
 Optimization completed.
    -- Stationary point found.
 Normal termination of Gaussian 09 at Mon Jan 27 17:45:21 2020.

 ----------------------------------------------------------------------
 #N Geom=AllCheck Guess=TCheck SCRF=Check GenChk RB3LYP/6-31G(2df,p) Fr
 eq
 ----------------------------------------------------------------------

 Structure from the checkpoint file:  "/scratch/puck/g09_5222d663-14aa-4b2b-8503-445c492eb173/Gau-15714.chk"
 -----
 titel
 -----
 Charge =  0 Multiplicity = 1

                         Standard orientation:
 ---------------------------------------------------------------------
 Center     Atomic      Atomic             Coordinates (Angstroms)
 Number     Number       Type             X           Y           Z
 ---------------------------------------------------------------------
      1          6           0        0.280395    2.140298    0.285872
      2          6           0        0.361446    0.672677   -0.060776
      3          6           0        1.507058    0.148236   -0.958040
      4          8           0        1.819139   -0.906060   -0.011598
      5          6           0        0.828747   -0.414690    0.930238
      6          6           0       -0.556406   -1.089774    0.902786
      7          6           0       -0.889835   -1.518388   -0.509490
      8          6           0       -1.009229   -0.069578   -0.143797
      9          8           0       -2.215260    0.609019   -0.190163
     10          1           0       -0.406392    2.309509    1.120645
     11          1           0        1.264988    2.531970    0.561061
     12          1           0       -0.093012    2.725727   -0.561980
     13          1           0        1.242888   -0.242907   -1.948182
     14          1           0        2.347328    0.847416   -1.059472
     15          1           0        1.251777   -0.195999    1.913955
     16          1           0       -1.079144   -1.495572    1.760180
     17          1           0       -0.109828   -1.903081   -1.157148
     18          1           0       -1.849236   -2.019152   -0.596186
     19          1           0       -2.533459    0.605730   -1.099545
 ---------------------------------------------------------------------

 SCF Done:  E(RB3LYP) =  -423.121105731     A.U. after    1 cycles

 The electronic state is 1-A.
 Alpha  occ. eigenvalues --  -19.15309 -19.12860 -10.24386 -10.22907 -10.22415
 Alpha  occ. eigenvalues --  -10.19419 -10.18874 -10.18768 -10.17836  -1.04173
 Alpha  occ. eigenvalues --   -1.02950  -0.87535  -0.76695  -0.69346  -0.66833
 Alpha  occ. eigenvalues --   -0.60722  -0.58521  -0.54137  -0.50055  -0.48988
 Alpha  occ. eigenvalues --   -0.46335  -0.45702  -0.42910  -0.40922  -0.40379
 Alpha  occ. eigenvalues --   -0.39294  -0.38354  -0.35862  -0.33845  -0.31530
 Alpha  occ. eigenvalues --   -0.28948  -0.26400  -0.24571  -0.24238
 Alpha virt. eigenvalues --    0.06822   0.07005   0.10562   0.11068   0.12153
 Alpha virt. eigenvalues --    0.13638   0.14704   0.15853   0.16390   0.16783
 Alpha virt. eigenvalues --    0.17358   0.18066   0.19233   0.20575   0.23217

 Mulliken charges:
               1
     1  C   -0.483344
     2  C    0.211947
     3  C   -0.149652
     4  O   -0.300088
     5  C    0.073330
     6  C   -0.121403
     7  C   -0.366612
     8  C    0.334313
     9  O   -0.454487
    10  H    0.131437
    11  H    0.115433
    12  H    0.117299
    13  H    0.095384
    14  H    0.097295
    15  H    0.075825
    16  H    0.092314
    17  H    0.130681
    18  H    0.112371
    19  H    0.287957
 Sum of Mulliken charges =   0.00000

 Dipole moment (field-independent basis, Debye):
    X=             -1.1119    Y=              0.8856    Z=             -1.1124  Tot=              1.8050
 Quadrupole moment (field-independent basis, Debye-Ang):
   XX=            -55.9657   YY=            -54.4421   ZZ=            -48.6864
   XY=              4.5972   XZ=              3.1631   YZ=             -1.0729

  Exact polarizability:  76.454   4.062  75.180   0.188  -0.801  70.839
 Approx polarizability: 109.496  -0.386 106.092   1.304  -3.151 110.570

                      1                      2                      3
                      A                      A                      A
 Frequencies --    146.4999               201.7488               228.2437
 Red. masses --      3.4587                 1.1456                 2.5426
 Frc consts  --      0.0437                 0.0275                 0.0780
 IR Inten    --      3.7212                 0.7739                 1.3337

                      4                      5                      6
                      A                      A                      A
 Frequencies --    253.6750               271.1064               303.6820
 Red. masses --      1.7176                 2.0307                 2.1876
 Frc consts  --      0.0651                 0.0879                 0.1189
 IR Inten    --     80.8678                 8.7668                 3.8449

                      7                      8                      9
                      A                      A                      A
 Frequencies --    354.0160               426.6012               457.8942
 Red. masses --      2.6424                 3.9004                 2.4982
 Frc consts  --      0.1951                 0.4182                 0.3086
 IR Inten    --      0.9503                 8.1229                 4.3842

                     10                     11                     12
                      A                      A                      A
 Frequencies --    525.4762               602.0387               647.5577
 Red. masses --      2.6628                 3.7373                 3.4247
 Frc consts  --      0.4332                 0.7981                 0.8461
 IR Inten    --      3.3441                 2.3868                 0.9140

                     13                     14                     15
                      A                      A                      A
 Frequencies --    761.4761               800.7492               873.0455
 Red. masses --      3.3657                 3.5820                 2.8750
 Frc consts  --      1.1499                 1.3532                 1.2911
 IR Inten    --      4.1661                14.2823                37.4114

                     16                     17                     18
                      A                      A                      A
 Frequencies --    882.4681               896.8381               906.5806
 Red. masses --      1.9194                 2.1941                 2.0360
 Frc consts  --      0.8807                 1.0398                 0.9859
 IR Inten    --     13.8556                 9.1074                 3.1950

                     19                     20                     21
                      A                      A                      A
 Frequencies --    946.1086               977.6396               990.5967
 Red. masses --      1.5558                 1.7126                 1.8052
 Frc consts  --      0.8205                 0.9644                 1.0437
 IR Inten    --      9.3561                13.5880                 5.4346

                     22                     23                     24
                      A                      A                      A
 Frequencies --    993.9366              1029.2848              1045.7754
 Red. masses --      3.0512                 1.9054                 1.6738
 Frc consts  --      1.7760                 1.1894                 1.0785
 IR Inten    --     60.2855                 6.8491                 3.1990

                     25                     26                     27
                      A                      A                      A
 Frequencies --   1080.5843              1150.4744              1151.8250
 Red. masses --      1.6701                 1.3692                 2.1095
 Frc consts  --      1.1490                 1.0678                 1.6489
 IR Inten    --     11.3277                 0.7876                34.2440

                     28                     29                     30
                      A                      A                      A
 Frequencies --   1171.4089              1189.8972              1230.2339
 Red. masses --      2.1149                 1.6839                 2.2853
 Frc consts  --      1.7098                 1.4047                 2.0379
 IR Inten    --     11.3111                 3.4658                19.1107

                     31                     32                     33
                      A                      A                      A
 Frequencies --   1256.3356              1279.3857              1300.1331
 Red. masses --      2.4948                 1.5653                 1.7729
 Frc consts  --      2.3200                 1.5095                 1.7657
 IR Inten    --     20.3303                 9.2917                73.5517

                     34                     35                     36
                      A                      A                      A
 Frequencies --   1318.4630              1369.3178              1388.3701
 Red. masses --      1.5378                 2.1202                 2.0454
 Frc consts  --      1.5750                 2.3422                 2.3229
 IR Inten    --      5.2622                 0.9347                22.1643

                     37                     38                     39
                      A                      A                      A
 Frequencies --   1416.2015              1485.5162              1488.9467
 Red. masses --      1.2975                 1.2334                 1.0506
 Frc consts  --      1.5332                 1.6037                 1.3723
 IR Inten    --      2.8855                 5.8828                 4.9322

                     40                     41                     42
                      A                      A                      A
 Frequencies --   1494.7895              1515.1295              3006.8594
 Red. masses --      1.1798                 1.0942                 1.0549
 Frc consts  --      1.5531                 1.4800                 5.6192
 IR Inten    --     11.1613                 1.5151                69.0204

                     43                     44                     45
                      A                      A                      A
 Frequencies --   3030.9423              3052.9096              3077.8674
 Red. masses --      1.0361                 1.1100                 1.0892
 Frc consts  --      5.6081                 6.0952                 6.0794
 IR Inten    --     28.3143                38.7407                42.0953

                     46                     47                     48
                      A                      A                      A
 Frequencies --   3093.7140              3109.7029              3129.4670
 Red. masses --      1.1001                 1.1012                 1.0530
 Frc consts  --      6.2037                 6.2740                 6.0759
 IR Inten    --     23.1260                18.1369                12.5332

                     49                     50                     51
                      A                      A                      A
 Frequencies --   3188.4098              3216.7920              3793.9353
 Red. masses --      1.0946                 1.1159                 1.0664
 Frc consts  --      6.5560                 6.8030                 9.0434
 IR Inten    --     12.3250                 6.0562                24.2582

 - Thermochemistry -
 -------------------
 Temperature   298.150 Kelvin.  Pressure   1.00000 Atm.
 Atom     1 has atomic number  6 and mass  12.00000

 Molecular mass:   126.06808 amu.
 Principal axes and moments of inertia in atomic units:
                           1         2         3
     Eigenvalues --   735.94393 964.275071323.78340
           X            0.99318   0.11657   0.00024
           Y           -0.11656   0.99304   0.01719
           Z            0.00176  -0.01710   0.99985
 This molecule is an asymmetric top.
 Rotational symmetry number  1.
 Warning -- assumption of classical behavior for rotation
           may cause significant error
 Rotational temperatures (Kelvin)      0.11769     0.08982     0.06543
 Rotational constants (GHZ):           2.45228     1.87160     1.36332
 Zero-point vibrational energy     415766.0 (Joules/Mol)
                                   99.37046 (Kcal/Mol)
 Warning -- explicit consideration of  11 degrees of freedom as
           vibrations may cause significant error
 Vibrational temperatures:    210.78   290.27   328.39   364.98   390.06
          (Kelvin)            436.93   509.35   613.78   658.81   756.04
                              866.20   931.69  1095.59  1152.10  1256.12
                             1269.67  1290.35  1304.37  1361.24  1406.60
                             1425.25  1430.05  1480.91  1504.64  1554.72
                             1655.27  1657.22  1685.39  1711.99  1770.03
                             1807.58  1840.75  1870.60  1896.97  1970.14
                             1997.55  2037.60  2137.32  2142.26  2150.67
                             2179.93  4326.19  4360.84  4392.45  4428.36
                             4451.16  4474.16  4502.60  4587.40  4628.24
                             5458.62

 Zero-point correction=                           0.158357 (Hartree/Particle)
 Thermal correction to Energy=                    0.166495
 Thermal correction to Enthalpy=                  0.167439
 Thermal correction to Gibbs Free Energy=         0.126349
 Sum of electronic and zero-point Energies=           -422.962749
 Sum of electronic and thermal Energies=              -422.954610
 Sum of electronic and thermal Enthalpies=            -422.953666
 Sum of electronic and thermal Free Energies=         -422.994757

                     E (Thermal)             CV                S
                      KCal/Mol        Cal/Mol-Kelvin    Cal/Mol-Kelvin
 Total                  104.477             32.490             86.483
 Electronic               0.000              0.000              0.000
 Translational            0.889              2.981             40.409
 Rotational               0.889              2.981             28.332
 Vibrational            102.700             26.528             17.743
 Vibration     1          0.617              1.906              2.717
 Vibration     2          0.639              1.837              2.117
 Vibration     3          0.651              1.798              1.893
 Vibration     4          0.665              1.757              1.705
 Vibration     5          0.675              1.726              1.589
 Vibration     6          0.695              1.667              1.397
 Vibration     7          0.730              1.567              1.148
 Vibration     8          0.788              1.412              0.870
 Vibration     9          0.816              1.343              0.772
 Vibration    10          0.880              1.194              0.597
 Vibration    11          0.960              1.027              0.446

 Optimization completed.
    -- Stationary point found.
 Normal termination of Gaussian 09 at Mon Jan 27 19:51:37 2020.
