 Gaussian 09, Revision D.01,
 Gaussian 09:  ES64L-G09RevD.01 24-Apr-2013

 -----------------------------
 # b3lyp 6-31G(2df,p) opt Freq
 -----------------------------

 -----
 titel
 -----
 Symbolic Z-matrix:
 Charge =  0 Multiplicity = 1

 SCF Done:  E(RB3LYP) =  -423.141991884     A.U. after   14 cycles
 Optimization completed.
    -- Stationary point found.
 Normal termination of Gaussian 09 at Mon Jan 27 22:06:40 2020.

 ----------------------------------------------------------------------
 #N Geom=AllCheck Guess=TCheck SCRF=Check GenChk RB3LYP/6-31G(2df,p) Fr
 eq
 ----------------------------------------------------------------------

 Structure from the checkpoint file:  "/scratch/puck/g09_5757655f-e26f-45db-8e11-ed0daeeb5728/Gau-46856.chk"
 -----
 titel
 -----
 Charge =  0 Multiplicity = 1

                         Standard orientation:
 ---------------------------------------------------------------------
 Center     Atomic      Atomic             Coordinates (Angstroms)
 Number     Number       Type             X           Y           Z
 ---------------------------------------------------------------------
      1          6           0       -1.303382    1.791103   -0.327797
      2          6           0       -0.368803    0.670457    0.050146
      3          6           0        0.813400    0.921199    1.008790
      4          6           0        1.599196   -0.316159    0.528064
      5          8           0        1.853396    0.041152   -0.864337
      6          6           0        0.452518   -0.207689   -1.030918
      7          6           0        0.418056   -1.263782    0.092393
      8          6           0       -0.898823   -0.684961    0.617440
      9          8           0       -1.959901   -1.253474   -0.125997
     10          1           0       -1.769757    2.245153    0.555289
     11          1           0       -0.771441    2.585122   -0.862749
     12          1           0       -2.103696    1.430492   -0.984082
     13          1           0        1.376399    1.834989    0.805890
     14          1           0        0.517092    0.897031    2.062128
     15          1           0        2.483344   -0.655280    1.065925
     16          1           0        0.102673   -0.306689   -2.055553
     17          1           0        0.603506   -2.325741   -0.051667
     18          1           0       -1.101845   -0.719948    1.697818
     19          1           0       -2.757210   -0.747554    0.060960
 ---------------------------------------------------------------------

 SCF Done:  E(RB3LYP) =  -423.141991884     A.U. after    1 cycles

 The electronic state is 1-A.
 Alpha  occ. eigenvalues --  -19.14264 -19.13008 -10.23928 -10.23190 -10.23081
 Alpha  occ. eigenvalues --  -10.19390 -10.18773 -10.18241 -10.18073  -1.05220
 Alpha  occ. eigenvalues --   -1.02368  -0.85022  -0.73918  -0.72199  -0.65168
 Alpha  occ. eigenvalues --   -0.63370  -0.56167  -0.53358  -0.51332  -0.49420
 Alpha  occ. eigenvalues --   -0.46054  -0.44861  -0.43260  -0.41214  -0.40310
 Alpha  occ. eigenvalues --   -0.38120  -0.36933  -0.34181  -0.33643  -0.32747
 Alpha  occ. eigenvalues --   -0.30448  -0.29059  -0.25894  -0.23618
 Alpha virt. eigenvalues --    0.06254   0.09567   0.10963   0.12389   0.12706
 Alpha virt. eigenvalues --    0.13876   0.14665   0.15049   0.15512   0.16553
 Alpha virt. eigenvalues --    0.17498   0.18614   0.19075   0.20294   0.22433

 Mulliken charges:
               1
     1  C   -0.529597
     2  C    0.260211
     3  C   -0.260367
     4  C    0.056158
     5  O   -0.297493
     6  C    0.073188
     7  C   -0.081976
     8  C    0.076883
     9  O   -0.449825
    10  H    0.114381
    11  H    0.128468
    12  H    0.114173
    13  H    0.106598
    14  H    0.093592
    15  H    0.080532
    16  H    0.089645
    17  H    0.083224
    18  H    0.057244
    19  H    0.284959
 Sum of Mulliken charges =   0.00000

 Dipole moment (field-independent basis, Debye):
    X=             -1.5193    Y=              0.7978    Z=              1.6003  Tot=              2.3465
 Quadrupole moment (field-independent basis, Debye-Ang):
   XX=            -52.6662   YY=            -54.5749   ZZ=            -52.4115
   XY=             -3.1199   XZ=              2.1645   YZ=             -0.5468

  Exact polarizability:  78.974  -2.519  73.378   2.643   0.770  68.857
 Approx polarizability: 113.728  -0.695 105.312   1.043   1.205 108.435

                      1                      2                      3
                      A                      A                      A
 Frequencies --    203.2135               204.5825               221.2701
 Red. masses --      3.5419                 1.3816                 1.8012
 Frc consts  --      0.0862                 0.0341                 0.0520
 IR Inten    --      0.6701                 0.9992                 1.9206

                      4                      5                      6
                      A                      A                      A
 Frequencies --    269.0929               305.9404               370.1431
 Red. masses --      2.8765                 1.1749                 3.1327
 Frc consts  --      0.1227                 0.0648                 0.2529
 IR Inten    --      0.9711               105.7874                13.2959

                      7                      8                      9
                      A                      A                      A
 Frequencies --    441.7212               516.4982               540.2381
 Red. masses --      1.8906                 5.7838                 3.8057
 Frc consts  --      0.2173                 0.9091                 0.6544
 IR Inten    --      0.7870                 8.5221                 2.0805

                     10                     11                     12
                      A                      A                      A
 Frequencies --    631.3398               686.4637               742.5864
 Red. masses --      3.7370                 4.1253                 3.3632
 Frc consts  --      0.8776                 1.1454                 1.0927
 IR Inten    --      1.9453                 7.7782                 2.2548

                     13                     14                     15
                      A                      A                      A
 Frequencies --    834.9982               846.7859               867.3546
 Red. masses --      2.5880                 2.6734                 1.8201
 Frc consts  --      1.0631                 1.1294                 0.8068
 IR Inten    --     14.1062                 1.8656                20.8879

                     16                     17                     18
                      A                      A                      A
 Frequencies --    874.6603               907.5827               947.8781
 Red. masses --      3.5775                 2.0850                 2.4261
 Frc consts  --      1.6125                 1.0119                 1.2843
 IR Inten    --     16.1576                 2.2992                14.8552

                     19                     20                     21
                      A                      A                      A
 Frequencies --    965.0580               970.4295              1003.5742
 Red. masses --      3.4365                 1.8814                 1.5786
 Frc consts  --      1.8857                 1.0439                 0.9368
 IR Inten    --     16.4304                14.1177                 1.5587

                     22                     23                     24
                      A                      A                      A
 Frequencies --   1031.3592              1052.5754              1091.0453
 Red. masses --      2.6672                 1.5168                 2.5053
 Frc consts  --      1.6716                 0.9901                 1.7571
 IR Inten    --     14.5242                10.0632                35.1728

                     25                     26                     27
                      A                      A                      A
 Frequencies --   1122.3248              1142.0299              1169.1411
 Red. masses --      1.4756                 2.7567                 1.4686
 Frc consts  --      1.0951                 2.1184                 1.1827
 IR Inten    --     13.2013                39.6469                 1.4811

                     28                     29                     30
                      A                      A                      A
 Frequencies --   1197.5049              1209.3056              1220.3527
 Red. masses --      1.8717                 1.3814                 1.3884
 Frc consts  --      1.5814                 1.1903                 1.2183
 IR Inten    --      3.3262                26.4025                 1.5460

                     31                     32                     33
                      A                      A                      A
 Frequencies --   1238.3536              1267.8585              1281.1130
 Red. masses --      1.8336                 1.8386                 1.7558
 Frc consts  --      1.6567                 1.7413                 1.6978
 IR Inten    --      7.1222                 9.2280                 1.9374

                     34                     35                     36
                      A                      A                      A
 Frequencies --   1301.9060              1332.7669              1355.9904
 Red. masses --      1.5336                 1.6445                 2.2474
 Frc consts  --      1.5315                 1.7211                 2.4347
 IR Inten    --     17.9287                30.3987                 9.7621

                     37                     38                     39
                      A                      A                      A
 Frequencies --   1405.9853              1422.6995              1488.4909
 Red. masses --      1.3537                 1.4697                 1.1103
 Frc consts  --      1.5766                 1.7527                 1.4494
 IR Inten    --      1.6385                 2.8834                 1.2492

                     40                     41                     42
                      A                      A                      A
 Frequencies --   1492.2793              1499.1700              2990.7468
 Red. masses --      1.0515                 1.0510                 1.0846
 Frc consts  --      1.3797                 1.3917                 5.7158
 IR Inten    --      5.5914                 4.7086                65.0797

                     43                     44                     45
                      A                      A                      A
 Frequencies --   3019.2588              3055.4131              3080.3103
 Red. masses --      1.0364                 1.0597                 1.0997
 Frc consts  --      5.5665                 5.8284                 6.1478
 IR Inten    --     33.0495                31.9962                22.4314

                     46                     47                     48
                      A                      A                      A
 Frequencies --   3092.4997              3113.4109              3130.7265
 Red. masses --      1.1002                 1.1054                 1.0909
 Frc consts  --      6.1991                 6.3132                 6.3000
 IR Inten    --     16.6537                20.7903                36.5848

                     49                     50                     51
                      A                      A                      A
 Frequencies --   3145.9603              3156.8104              3814.1642
 Red. masses --      1.0888                 1.0956                 1.0661
 Frc consts  --      6.3492                 6.4327                 9.1383
 IR Inten    --     38.3288                21.9130                20.0930

 - Thermochemistry -
 -------------------
 Temperature   298.150 Kelvin.  Pressure   1.00000 Atm.
 Atom     1 has atomic number  6 and mass  12.00000

 Molecular mass:   126.06808 amu.
 Principal axes and moments of inertia in atomic units:
                           1         2         3
     Eigenvalues --   685.47945 997.292721242.47462
           X            0.99707  -0.07147   0.02718
           Y            0.07164   0.99742  -0.00535
           Z           -0.02673   0.00728   0.99962
 This molecule is an asymmetric top.
 Rotational symmetry number  1.
 Warning -- assumption of classical behavior for rotation
           may cause significant error
 Rotational temperatures (Kelvin)      0.12636     0.08685     0.06971
 Rotational constants (GHZ):           2.63282     1.80964     1.45254
 Zero-point vibrational energy     420325.7 (Joules/Mol)
                                  100.46025 (Kcal/Mol)
 Warning -- explicit consideration of   9 degrees of freedom as
           vibrations may cause significant error
 Vibrational temperatures:    292.38   294.35   318.36   387.16   440.18
          (Kelvin)            532.55   635.54   743.12   777.28   908.36
                              987.67  1068.41  1201.37  1218.33  1247.93
                             1258.44  1305.81  1363.78  1388.50  1396.23
                             1443.92  1483.89  1514.42  1569.77  1614.77
                             1643.12  1682.13  1722.94  1739.92  1755.81
                             1781.71  1824.16  1843.23  1873.15  1917.55
                             1950.97  2022.90  2046.94  2141.60  2147.05
                             2156.97  4303.01  4344.03  4396.05  4431.87
                             4449.41  4479.50  4504.41  4526.33  4541.94
                             5487.72

 Zero-point correction=                           0.160094 (Hartree/Particle)
 Thermal correction to Energy=                    0.167584
 Thermal correction to Enthalpy=                  0.168529
 Thermal correction to Gibbs Free Energy=         0.128715
 Sum of electronic and zero-point Energies=           -422.981898
 Sum of electronic and thermal Energies=              -422.974408
 Sum of electronic and thermal Enthalpies=            -422.973463
 Sum of electronic and thermal Free Energies=         -423.013277

                     E (Thermal)             CV                S
                      KCal/Mol        Cal/Mol-Kelvin    Cal/Mol-Kelvin
 Total                  105.161             30.697             83.794
 Electronic               0.000              0.000              0.000
 Translational            0.889              2.981             40.409
 Rotational               0.889              2.981             28.231
 Vibrational            103.383             24.735             15.154
 Vibration     1          0.639              1.835              2.104
 Vibration     2          0.640              1.833              2.091
 Vibration     3          0.648              1.809              1.949
 Vibration     4          0.673              1.730              1.602
 Vibration     5          0.696              1.662              1.384
 Vibration     6          0.742              1.534              1.079
 Vibration     7          0.801              1.379              0.821
 Vibration     8          0.872              1.213              0.618
 Vibration     9          0.895              1.161              0.565

 Normal termination of Gaussian 09 at Mon Jan 27 22:59:23 2020.
