 Gaussian 09, Revision D.01,
 Gaussian 09:  ES64L-G09RevD.01 24-Apr-2013

 -----------------------------
 # b3lyp 6-31G(2df,p) opt Freq
 -----------------------------

 -----
 titel
 -----
 Symbolic Z-matrix:
 Charge =  0 Multiplicity = 1

 SCF Done:  E(RB3LYP) =  -423.140918884     A.U. after   13 cycles
 Optimization completed.
    -- Stationary point found.
 Normal termination of Gaussian 09 at Tue Jan 28 12:09:51 2020.

 ----------------------------------------------------------------------
 #N Geom=AllCheck Guess=TCheck SCRF=Check GenChk RB3LYP/6-31G(2df,p) Fr
 eq
 ----------------------------------------------------------------------

 Structure from the checkpoint file:  "/scratch/puck/g09_f3bcd176-7f01-4432-906e-9a22bb876331/Gau-18854.chk"
 -----
 titel
 -----
 Charge =  0 Multiplicity = 1

                         Standard orientation:
 ---------------------------------------------------------------------
 Center     Atomic      Atomic             Coordinates (Angstroms)
 Number     Number       Type             X           Y           Z
 ---------------------------------------------------------------------
      1          6           0       -2.822911    0.152850   -0.522919
      2          6           0       -1.872082   -0.181677    0.633185
      3          6           0       -0.423263   -0.060066    0.250050
      4          8           0       -0.054140    1.231279   -0.198254
      5          6           0        1.351561    1.390716    0.023694
      6          6           0        1.847410   -0.029697    0.239510
      7          8           0        1.534845   -0.771630   -0.982991
      8          6           0        0.331354   -1.231553   -0.369830
      9          6           0        0.696193   -0.721416    1.005893
     10          1           0       -3.866221    0.077590   -0.202643
     11          1           0       -2.645300    1.169497   -0.882454
     12          1           0       -2.675481   -0.530494   -1.365287
     13          1           0       -2.068013    0.485089    1.482120
     14          1           0       -2.052488   -1.203665    0.988428
     15          1           0        1.799424    1.850526   -0.862234
     16          1           0        1.538726    2.029040    0.901639
     17          1           0        2.883929   -0.156283    0.553470
     18          1           0       -0.100088   -2.163308   -0.719743
     19          1           0        0.690295   -1.150113    1.999164
 ---------------------------------------------------------------------

 SCF Done:  E(RB3LYP) =  -423.140918884     A.U. after    1 cycles

 The electronic state is 1-A.
 Alpha  occ. eigenvalues --  -19.14030 -19.13794 -10.24541 -10.23904 -10.23793
 Alpha  occ. eigenvalues --  -10.22958 -10.19291 -10.18962 -10.17185  -1.07525
 Alpha  occ. eigenvalues --   -1.01414  -0.83468  -0.77065  -0.73674  -0.64233
 Alpha  occ. eigenvalues --   -0.63287  -0.56878  -0.54481  -0.51713  -0.50104
 Alpha  occ. eigenvalues --   -0.46326  -0.45080  -0.43656  -0.41924  -0.40090
 Alpha  occ. eigenvalues --   -0.38314  -0.36140  -0.35334  -0.34312  -0.33595
 Alpha  occ. eigenvalues --   -0.32270  -0.30103  -0.25339  -0.21360
 Alpha virt. eigenvalues --    0.07786   0.09208   0.09956   0.11956   0.13067
 Alpha virt. eigenvalues --    0.13749   0.15093   0.15499   0.16201   0.16330
 Alpha virt. eigenvalues --    0.16767   0.17959   0.19009   0.20354   0.22098

 Mulliken charges:
               1
     1  C   -0.375922
     2  C   -0.277978
     3  C    0.458681
     4  O   -0.310300
     5  C   -0.082055
     6  C    0.051950
     7  O   -0.304205
     8  C    0.024835
     9  C   -0.260737
    10  H    0.108934
    11  H    0.139651
    12  H    0.117383
    13  H    0.106806
    14  H    0.100278
    15  H    0.119435
    16  H    0.091704
    17  H    0.089866
    18  H    0.103336
    19  H    0.098338
 Sum of Mulliken charges =   0.00000

 Dipole moment (field-independent basis, Debye):
    X=              0.0064    Y=             -0.5028    Z=              1.9514  Tot=              2.0152
 Quadrupole moment (field-independent basis, Debye-Ang):
   XX=            -50.5308   YY=            -52.7785   ZZ=            -54.0446
   XY=              3.9186   XZ=              2.4233   YZ=             -0.5607

  Exact polarizability:  85.678   4.040  71.506   1.427   0.750  65.630
 Approx polarizability: 111.735   3.099 106.642   0.730   3.171 104.141

                      1                      2                      3
                      A                      A                      A
 Frequencies --     88.7140               151.3934               194.6406
 Red. masses --      2.4742                 3.0767                 1.3105
 Frc consts  --      0.0115                 0.0415                 0.0293
 IR Inten    --      0.2473                 1.7283                 0.4305

                      4                      5                      6
                      A                      A                      A
 Frequencies --    251.8369               325.2166               369.3445
 Red. masses --      2.2894                 2.1475                 3.1528
 Frc consts  --      0.0855                 0.1338                 0.2534
 IR Inten    --      3.5278                 0.4064                 0.0728

                      7                      8                      9
                      A                      A                      A
 Frequencies --    408.0762               545.8908               611.2059
 Red. masses --      3.8641                 3.9093                 2.9564
 Frc consts  --      0.3791                 0.6864                 0.6507
 IR Inten    --      3.1211                 4.7668                 5.1281

                     10                     11                     12
                      A                      A                      A
 Frequencies --    703.4655               739.8634               779.0031
 Red. masses --      4.1340                 2.6568                 1.6954
 Frc consts  --      1.2053                 0.8569                 0.6062
 IR Inten    --      0.3446                22.2080                 6.8276

                     13                     14                     15
                      A                      A                      A
 Frequencies --    820.0866               835.9106               861.4621
 Red. masses --      3.1373                 1.6510                 2.5683
 Frc consts  --      1.2431                 0.6797                 1.1230
 IR Inten    --     17.8159                 0.7972                11.7885

                     16                     17                     18
                      A                      A                      A
 Frequencies --    894.9323               911.9501               938.8593
 Red. masses --      3.0992                 2.0059                 2.0635
 Frc consts  --      1.4624                 0.9829                 1.0717
 IR Inten    --      1.7383                12.7436                15.4240

                     19                     20                     21
                      A                      A                      A
 Frequencies --    974.6559              1001.7238              1032.2213
 Red. masses --      1.7753                 2.0567                 2.1064
 Frc consts  --      0.9936                 1.2159                 1.3223
 IR Inten    --      6.5010                 7.6541                 9.1796

                     22                     23                     24
                      A                      A                      A
 Frequencies --   1040.6616              1051.5064              1073.9063
 Red. masses --      2.5199                 2.3836                 3.3928
 Frc consts  --      1.6079                 1.5528                 2.3054
 IR Inten    --     20.0795                29.4067               109.2554

                     25                     26                     27
                      A                      A                      A
 Frequencies --   1108.2402              1117.4869              1166.3820
 Red. masses --      2.8467                 2.1873                 1.7692
 Frc consts  --      2.0599                 1.6093                 1.4181
 IR Inten    --     11.0653                 7.7184                 2.3613

                     28                     29                     30
                      A                      A                      A
 Frequencies --   1192.8490              1214.2503              1229.4000
 Red. masses --      1.4392                 1.6118                 1.4354
 Frc consts  --      1.2065                 1.4002                 1.2782
 IR Inten    --     14.5975                 9.3358                 5.8625

                     31                     32                     33
                      A                      A                      A
 Frequencies --   1281.6537              1295.9088              1314.1777
 Red. masses --      1.5665                 1.8452                 1.4116
 Frc consts  --      1.5161                 1.8258                 1.4363
 IR Inten    --     13.4789                 5.3834                 5.3041

                     34                     35                     36
                      A                      A                      A
 Frequencies --   1360.7336              1376.9265              1409.2032
 Red. masses --      1.5329                 1.5034                 1.2339
 Frc consts  --      1.6723                 1.6793                 1.4437
 IR Inten    --      6.6655                 1.5788                 2.5734

                     37                     38                     39
                      A                      A                      A
 Frequencies --   1428.7067              1475.6442              1495.2448
 Red. masses --      3.1063                 1.0852                 1.0444
 Frc consts  --      3.7358                 1.3923                 1.3757
 IR Inten    --      3.9560                 0.8844                 4.7692

                     40                     41                     42
                      A                      A                      A
 Frequencies --   1500.7608              1509.4428              2982.7578
 Red. masses --      1.0984                 1.0768                 1.0692
 Frc consts  --      1.4576                 1.4455                 5.6045
 IR Inten    --      0.5410                 3.6813                74.1560

                     43                     44                     45
                      A                      A                      A
 Frequencies --   3025.4448              3042.5492              3061.2126
 Red. masses --      1.0597                 1.0359                 1.1011
 Frc consts  --      5.7152                 5.6501                 6.0793
 IR Inten    --     23.6735                25.1571                15.5318

                     46                     47                     48
                      A                      A                      A
 Frequencies --   3086.5109              3109.8784              3115.3082
 Red. masses --      1.0944                 1.1019                 1.0909
 Frc consts  --      6.1426                 6.2788                 6.2378
 IR Inten    --     22.4610                36.0606                38.8180

                     49                     50                     51
                      A                      A                      A
 Frequencies --   3126.3428              3169.3182              3197.6581
 Red. masses --      1.1015                 1.0914                 1.0984
 Frc consts  --      6.3433                 6.4588                 6.6174
 IR Inten    --     19.6672                21.4675                 8.9069

 - Thermochemistry -
 -------------------
 Temperature   298.150 Kelvin.  Pressure   1.00000 Atm.
 Atom     1 has atomic number  6 and mass  12.00000

 Molecular mass:   126.06808 amu.
 Principal axes and moments of inertia in atomic units:
                           1         2         3
     Eigenvalues --   538.186141255.016481424.70838
           X            0.99954   0.02476   0.01729
           Y           -0.02429   0.99934  -0.02699
           Z           -0.01795   0.02656   0.99949
 This molecule is an asymmetric top.
 Rotational symmetry number  1.
 Warning -- assumption of classical behavior for rotation
           may cause significant error
 Rotational temperatures (Kelvin)      0.16094     0.06901     0.06079
 Rotational constants (GHZ):           3.35338     1.43802     1.26674
 Zero-point vibrational energy     418696.1 (Joules/Mol)
                                  100.07077 (Kcal/Mol)
 Warning -- explicit consideration of   9 degrees of freedom as
           vibrations may cause significant error
 Vibrational temperatures:    127.64   217.82   280.04   362.34   467.91
          (Kelvin)            531.40   587.13   785.41   879.39  1012.13
                             1064.50  1120.81  1179.92  1202.69  1239.45
                             1287.61  1312.09  1350.81  1402.31  1441.26
                             1485.13  1497.28  1512.88  1545.11  1594.51
                             1607.81  1678.16  1716.24  1747.03  1768.83
                             1844.01  1864.52  1890.81  1957.79  1981.09
                             2027.53  2055.59  2123.12  2151.32  2159.26
                             2171.75  4291.52  4352.93  4377.54  4404.40
                             4440.80  4474.42  4482.23  4498.10  4559.94
                             4600.71

 Zero-point correction=                           0.159473 (Hartree/Particle)
 Thermal correction to Energy=                    0.167183
 Thermal correction to Enthalpy=                  0.168127
 Thermal correction to Gibbs Free Energy=         0.127264
 Sum of electronic and zero-point Energies=           -422.981446
 Sum of electronic and thermal Energies=              -422.973736
 Sum of electronic and thermal Enthalpies=            -422.972792
 Sum of electronic and thermal Free Energies=         -423.013655

                     E (Thermal)             CV                S
                      KCal/Mol        Cal/Mol-Kelvin    Cal/Mol-Kelvin
 Total                  104.909             30.300             86.002
 Electronic               0.000              0.000              0.000
 Translational            0.889              2.981             40.409
 Rotational               0.889              2.981             28.355
 Vibrational            103.131             24.338             17.238
 Vibration     1          0.602              1.957              3.688
 Vibration     2          0.619              1.901              2.655
 Vibration     3          0.635              1.847              2.183
 Vibration     4          0.664              1.760              1.718
 Vibration     5          0.709              1.625              1.284
 Vibration     6          0.742              1.535              1.083
 Vibration     7          0.773              1.453              0.933
 Vibration     8          0.901              1.149              0.553
 Vibration     9          0.970              1.008              0.431

 Normal termination of Gaussian 09 at Tue Jan 28 13:02:00 2020.
