 Gaussian 09, Revision D.01,
 Gaussian 09:  ES64L-G09RevD.01 24-Apr-2013

 -----------------------------
 # b3lyp 6-31G(2df,p) opt Freq
 -----------------------------

 -----
 titel
 -----
 Symbolic Z-matrix:
 Charge =  0 Multiplicity = 1

 SCF Done:  E(RB3LYP) =  -423.153114436     A.U. after   13 cycles
 Optimization completed.
    -- Stationary point found.
 Normal termination of Gaussian 09 at Tue Jan 28 02:00:35 2020.

 ----------------------------------------------------------------------
 #N Geom=AllCheck Guess=TCheck SCRF=Check GenChk RB3LYP/6-31G(2df,p) Fr
 eq
 ----------------------------------------------------------------------

 Structure from the checkpoint file:  "/scratch/puck/g09_513aa93c-dc2d-4e9b-9827-ca4e67f710eb/Gau-170345.chk"
 -----
 titel
 -----
 Charge =  0 Multiplicity = 1

                         Standard orientation:
 ---------------------------------------------------------------------
 Center     Atomic      Atomic             Coordinates (Angstroms)
 Number     Number       Type             X           Y           Z
 ---------------------------------------------------------------------
      1          6           0        2.833628    0.455556   -0.357308
      2          6           0        1.691548   -0.525946   -0.373175
      3          8           0        1.184999   -0.964339    0.899157
      4          6           0        0.318150   -0.210574    0.047800
      5          6           0       -0.152313    1.156431    0.567126
      6          8           0       -1.400824    1.434347   -0.058158
      7          6           0       -1.930810    0.236999   -0.570748
      8          6           0       -2.116330   -0.929027    0.356027
      9          6           0       -0.896387   -0.851683   -0.555787
     10          1           0        3.771180   -0.059578   -0.123925
     11          1           0        2.946712    0.929420   -1.338510
     12          1           0        2.682745    1.235469    0.392935
     13          1           0        1.804297   -1.338636   -1.095121
     14          1           0       -0.258843    1.103956    1.659570
     15          1           0        0.533324    1.975897    0.333162
     16          1           0       -2.612192    0.413895   -1.394278
     17          1           0       -1.975920   -0.787148    1.422176
     18          1           0       -2.874719   -1.658335    0.093281
     19          1           0       -0.774894   -1.565547   -1.360893
 ---------------------------------------------------------------------

 SCF Done:  E(RB3LYP) =  -423.153114436     A.U. after    1 cycles

 The electronic state is 1-A.
 Alpha  occ. eigenvalues --  -19.14573 -19.14486 -10.24388 -10.23928 -10.23880
 Alpha  occ. eigenvalues --  -10.23177 -10.19444 -10.18870 -10.18653  -1.06998
 Alpha  occ. eigenvalues --   -1.04435  -0.85158  -0.74957  -0.73690  -0.65370
 Alpha  occ. eigenvalues --   -0.60374  -0.58756  -0.56239  -0.52377  -0.49130
 Alpha  occ. eigenvalues --   -0.46508  -0.45506  -0.43359  -0.42669  -0.40381
 Alpha  occ. eigenvalues --   -0.40019  -0.38590  -0.35796  -0.35252  -0.33716
 Alpha  occ. eigenvalues --   -0.31589  -0.27210  -0.26155  -0.23580
 Alpha virt. eigenvalues --    0.07778   0.09072   0.09731   0.10892   0.11766
 Alpha virt. eigenvalues --    0.13420   0.14474   0.15129   0.16184   0.16375
 Alpha virt. eigenvalues --    0.17278   0.19022   0.19818   0.20758   0.22808

 Mulliken charges:
               1
     1  C   -0.423746
     2  C   -0.008753
     3  O   -0.301729
     4  C    0.412402
     5  C   -0.176817
     6  O   -0.260389
     7  C    0.123715
     8  C   -0.333241
     9  C   -0.178291
    10  H    0.131859
    11  H    0.125188
    12  H    0.128045
    13  H    0.087853
    14  H    0.115264
    15  H    0.114384
    16  H    0.105143
    17  H    0.128028
    18  H    0.117549
    19  H    0.093539
 Sum of Mulliken charges =   0.00000

 Dipole moment (field-independent basis, Debye):
    X=              0.4377    Y=             -0.2655    Z=             -1.4956  Tot=              1.5808
 Quadrupole moment (field-independent basis, Debye-Ang):
   XX=            -50.2895   YY=            -55.7976   ZZ=            -52.4834
   XY=              4.8127   XZ=             -1.2504   YZ=              3.0627

  Exact polarizability:  92.282   4.100  68.439  -1.984   2.305  64.564
 Approx polarizability: 117.773  -0.127 103.274  -1.791  -0.188 102.156

                      1                      2                      3
                      A                      A                      A
 Frequencies --     87.7953               151.8185               174.6954
 Red. masses --      3.1133                 2.2484                 1.3542
 Frc consts  --      0.0141                 0.0305                 0.0243
 IR Inten    --      2.1131                 1.2997                 2.3287

                      4                      5                      6
                      A                      A                      A
 Frequencies --    222.3864               265.7624               356.0756
 Red. masses --      2.1905                 2.7692                 3.6899
 Frc consts  --      0.0638                 0.1152                 0.2756
 IR Inten    --      1.4436                 0.2079                 2.4173

                      7                      8                      9
                      A                      A                      A
 Frequencies --    409.4210               460.4991               517.6691
 Red. masses --      2.8196                 3.3149                 4.3561
 Frc consts  --      0.2785                 0.4142                 0.6878
 IR Inten    --      2.6000                 4.3911                 3.6110

                     10                     11                     12
                      A                      A                      A
 Frequencies --    548.3473               693.6048               748.5825
 Red. masses --      3.1353                 4.9441                 2.2525
 Frc consts  --      0.5554                 1.4014                 0.7437
 IR Inten    --      5.7981                 3.0802                 5.0964

                     13                     14                     15
                      A                      A                      A
 Frequencies --    784.9005               806.8945               834.6704
 Red. masses --      2.6024                 2.2406                 2.0303
 Frc consts  --      0.9446                 0.8595                 0.8334
 IR Inten    --     26.3975                 7.5752                16.8445

                     16                     17                     18
                      A                      A                      A
 Frequencies --    902.2525               950.9747               976.8631
 Red. masses --      2.7725                 2.3144                 2.1043
 Frc consts  --      1.3298                 1.2332                 1.1831
 IR Inten    --     12.7577                 9.9332                 9.0394

                     19                     20                     21
                      A                      A                      A
 Frequencies --    984.8541              1009.9162              1024.6362
 Red. masses --      2.2086                 1.7051                 1.8294
 Frc consts  --      1.2622                 1.0247                 1.1316
 IR Inten    --     18.8728                29.0421                 8.1932

                     22                     23                     24
                      A                      A                      A
 Frequencies --   1041.1507              1055.6665              1087.1746
 Red. masses --      1.6821                 1.8876                 2.1470
 Frc consts  --      1.0743                 1.2394                 1.4951
 IR Inten    --     14.1974                11.0397                10.7258

                     25                     26                     27
                      A                      A                      A
 Frequencies --   1098.9483              1128.9192              1160.8772
 Red. masses --      1.3184                 2.2664                 2.3585
 Frc consts  --      0.9381                 1.7018                 1.8727
 IR Inten    --      1.2873                 9.9273                74.7949

                     28                     29                     30
                      A                      A                      A
 Frequencies --   1165.1700              1202.7139              1227.5784
 Red. masses --      2.0102                 1.6957                 1.1427
 Frc consts  --      1.6079                 1.4452                 1.0146
 IR Inten    --     21.0094                 6.4988                 6.1988

                     31                     32                     33
                      A                      A                      A
 Frequencies --   1238.8854              1305.0823              1324.9834
 Red. masses --      2.0825                 2.0793                 1.2598
 Frc consts  --      1.8832                 2.0867                 1.3031
 IR Inten    --     16.1711                 0.5750                 5.1473

                     34                     35                     36
                      A                      A                      A
 Frequencies --   1378.9199              1395.6938              1412.1197
 Red. masses --      1.5326                 1.4570                 1.2786
 Frc consts  --      1.7169                 1.6722                 1.5022
 IR Inten    --     13.3201                 9.5526                 2.6943

                     37                     38                     39
                      A                      A                      A
 Frequencies --   1471.2429              1478.8126              1490.2719
 Red. masses --      1.2890                 1.2742                 1.1369
 Frc consts  --      1.6439                 1.6417                 1.4877
 IR Inten    --      4.4459                 8.5614                 8.7247

                     40                     41                     42
                      A                      A                      A
 Frequencies --   1513.1506              1522.6302              3010.0808
 Red. masses --      1.5817                 1.3041                 1.0678
 Frc consts  --      2.1337                 1.7813                 5.7003
 IR Inten    --      6.8787                 3.9926                33.0426

                     43                     44                     45
                      A                      A                      A
 Frequencies --   3037.5878              3076.4121              3080.0620
 Red. masses --      1.0366                 1.0867                 1.0956
 Frc consts  --      5.6351                 6.0597                 6.1239
 IR Inten    --     16.7938                25.0418                28.5715

                     46                     47                     48
                      A                      A                      A
 Frequencies --   3101.2191              3125.6220              3135.1305
 Red. masses --      1.1006                 1.1006                 1.0540
 Frc consts  --      6.2367                 6.3352                 6.1035
 IR Inten    --     16.1831                24.6490                 9.2162

                     49                     50                     51
                      A                      A                      A
 Frequencies --   3182.1834              3189.9990              3224.0429
 Red. masses --      1.0895                 1.0961                 1.1161
 Frc consts  --      6.5002                 6.5716                 6.8352
 IR Inten    --     11.2221                13.4072                 8.3055

 - Thermochemistry -
 -------------------
 Temperature   298.150 Kelvin.  Pressure   1.00000 Atm.
 Atom     1 has atomic number  6 and mass  12.00000

 Molecular mass:   126.06808 amu.
 Principal axes and moments of inertia in atomic units:
                           1         2         3
     Eigenvalues --   521.223061389.943631618.90699
           X            0.99896   0.04417  -0.01113
           Y           -0.04354   0.99772   0.05166
           Z            0.01339  -0.05113   0.99860
 This molecule is an asymmetric top.
 Rotational symmetry number  1.
 Warning -- assumption of classical behavior for rotation
           may cause significant error
 Rotational temperatures (Kelvin)      0.16617     0.06231     0.05350
 Rotational constants (GHZ):           3.46251     1.29843     1.11479
 Zero-point vibrational energy     417346.9 (Joules/Mol)
                                   99.74830 (Kcal/Mol)
 Warning -- explicit consideration of  10 degrees of freedom as
           vibrations may cause significant error
 Vibrational temperatures:    126.32   218.43   251.35   319.96   382.37
          (Kelvin)            512.31   589.06   662.55   744.81   788.95
                              997.94  1077.04  1129.30  1160.94  1200.90
                             1298.14  1368.24  1405.49  1416.98  1453.04
                             1474.22  1497.98  1518.87  1564.20  1581.14
                             1624.26  1670.24  1676.42  1730.43  1766.21
                             1782.48  1877.72  1906.35  1983.96  2008.09
                             2031.72  2116.79  2127.68  2144.17  2177.08
                             2190.72  4330.83  4370.41  4426.27  4431.52
                             4461.96  4497.07  4510.75  4578.45  4589.69
                             4638.67

 Zero-point correction=                           0.158959 (Hartree/Particle)
 Thermal correction to Energy=                    0.167068
 Thermal correction to Enthalpy=                  0.168012
 Thermal correction to Gibbs Free Energy=         0.126307
 Sum of electronic and zero-point Energies=           -422.994155
 Sum of electronic and thermal Energies=              -422.986047
 Sum of electronic and thermal Enthalpies=            -422.985103
 Sum of electronic and thermal Free Energies=         -423.026807

                     E (Thermal)             CV                S
                      KCal/Mol        Cal/Mol-Kelvin    Cal/Mol-Kelvin
 Total                  104.836             31.380             87.774
 Electronic               0.000              0.000              0.000
 Translational            0.889              2.981             40.409
 Rotational               0.889              2.981             28.552
 Vibrational            103.059             25.419             18.813
 Vibration     1          0.601              1.958              3.709
 Vibration     2          0.619              1.901              2.649
 Vibration     3          0.627              1.874              2.384
 Vibration     4          0.648              1.807              1.940
 Vibration     5          0.672              1.736              1.624
 Vibration     6          0.732              1.563              1.139
 Vibration     7          0.774              1.450              0.929
 Vibration     8          0.818              1.338              0.765
 Vibration     9          0.873              1.211              0.615
 Vibration    10          0.904              1.143              0.548

 Optimization completed.
    -- Stationary point found.
 Normal termination of Gaussian 09 at Tue Jan 28 02:35:28 2020.
