 Gaussian 09, Revision D.01,
 Gaussian 09:  ES64L-G09RevD.01 24-Apr-2013

 -----------------------------
 # b3lyp 6-31G(2df,p) opt Freq
 -----------------------------

 -----
 titel
 -----
 Symbolic Z-matrix:
 Charge =  0 Multiplicity = 1

 SCF Done:  E(RB3LYP) =  -423.177151800     A.U. after   13 cycles
 SCF Done:  E(RB3LYP) =  -423.177151776     A.U. after    6 cycles
 SCF Done:  E(RB3LYP) =  -423.177151885     A.U. after    7 cycles
 Optimization completed.
    -- Stationary point found.
 Normal termination of Gaussian 09 at Mon Jan 27 13:46:52 2020.

 ----------------------------------------------------------------------
 #N Geom=AllCheck Guess=TCheck SCRF=Check GenChk RB3LYP/6-31G(2df,p) Fr
 eq
 ----------------------------------------------------------------------

 Structure from the checkpoint file:  "/scratch/puck/g09_b87d25b5-1af5-4cd6-b24f-f651078e18a0/Gau-53090.chk"
 -----
 titel
 -----
 Charge =  0 Multiplicity = 1

                         Standard orientation:
 ---------------------------------------------------------------------
 Center     Atomic      Atomic             Coordinates (Angstroms)
 Number     Number       Type             X           Y           Z
 ---------------------------------------------------------------------
      1          8           0        1.441333   -1.706941    0.668559
      2          6           0        1.284612   -1.415344   -0.482670
      3          8           0        0.680317   -0.317398   -0.976040
      4          6           0        0.173475    0.671391   -0.073228
      5          6           0        0.670017    2.057621   -0.379215
      6          6           0        1.151784    1.326737    0.856179
      7          6           0       -1.257965    0.468948    0.322038
      8          6           0       -1.838345   -0.877810    0.667464
      9          6           0       -2.249892   -0.183532   -0.608627
     10          1           0        1.626574   -2.019083   -1.339042
     11          1           0        1.365546    2.157109   -1.204563
     12          1           0       -0.027384    2.880694   -0.269554
     13          1           0        2.169229    0.957103    0.863539
     14          1           0        0.782820    1.635432    1.828052
     15          1           0       -1.630893    1.306914    0.904286
     16          1           0       -1.196781   -1.747005    0.598062
     17          1           0       -2.550721   -0.920706    1.483976
     18          1           0       -1.867736   -0.583260   -1.540872
     19          1           0       -3.245971    0.239446   -0.675684
 ---------------------------------------------------------------------

 SCF Done:  E(RB3LYP) =  -423.177151885     A.U. after    1 cycles

 The electronic state is 1-A.
 Alpha  occ. eigenvalues --  -19.19254 -19.13537 -10.31085 -10.25516 -10.19765
 Alpha  occ. eigenvalues --  -10.19145 -10.19100 -10.18415 -10.18293  -1.10624
 Alpha  occ. eigenvalues --   -1.02673  -0.87417  -0.84335  -0.68353  -0.62759
 Alpha  occ. eigenvalues --   -0.61396  -0.59682  -0.53796  -0.51515  -0.50977
 Alpha  occ. eigenvalues --   -0.48973  -0.46961  -0.44436  -0.43145  -0.40873
 Alpha  occ. eigenvalues --   -0.37554  -0.37311  -0.36075  -0.33613  -0.32816
 Alpha  occ. eigenvalues --   -0.30653  -0.29057  -0.27439  -0.25728
 Alpha virt. eigenvalues --    0.00593   0.07692   0.10035   0.11628   0.11926
 Alpha virt. eigenvalues --    0.12729   0.13434   0.14348   0.15200   0.18306
 Alpha virt. eigenvalues --    0.19011   0.19662   0.21311   0.21908   0.22901

 Mulliken charges:
               1
     1  O   -0.297978
     2  C    0.166912
     3  O   -0.258877
     4  C    0.429426
     5  C   -0.314514
     6  C   -0.306939
     7  C   -0.027832
     8  C   -0.280273
     9  C   -0.277072
    10  H    0.109120
    11  H    0.124396
    12  H    0.117186
    13  H    0.132376
    14  H    0.123314
    15  H    0.083672
    16  H    0.133320
    17  H    0.112238
    18  H    0.120862
    19  H    0.110663
 Sum of Mulliken charges =   0.00000

 Dipole moment (field-independent basis, Debye):
    X=             -0.6414    Y=              1.3467    Z=             -0.9106  Tot=              1.7476
 Quadrupole moment (field-independent basis, Debye-Ang):
   XX=            -51.6015   YY=            -53.1723   ZZ=            -53.7508
   XY=              0.3217   XZ=             -3.7698   YZ=              4.2104

  Exact polarizability:  77.310  -0.545  79.502   0.480  -0.312  70.142
 Approx polarizability: 102.326  -3.248 111.697   4.345  -5.349 114.293

                      1                      2                      3
                      A                      A                      A
 Frequencies --     55.0492                91.0937               182.2777
 Red. masses --      3.1503                 5.0283                 4.5884
 Frc consts  --      0.0056                 0.0246                 0.0898
 IR Inten    --      1.0354                 1.6465                 3.0771

                      4                      5                      6
                      A                      A                      A
 Frequencies --    194.9946               228.7569               267.2811
 Red. masses --      3.3506                 2.2552                 2.5195
 Frc consts  --      0.0751                 0.0695                 0.1060
 IR Inten    --      3.7361                 0.4479                 5.4317

                      7                      8                      9
                      A                      A                      A
 Frequencies --    334.3921               353.3142               494.3644
 Red. masses --      2.8283                 3.1301                 3.8453
 Frc consts  --      0.1863                 0.2302                 0.5537
 IR Inten    --      3.2405                 5.6715                12.5616

                     10                     11                     12
                      A                      A                      A
 Frequencies --    523.6014               638.2004               752.0059
 Red. masses --      3.2227                 2.9777                 1.1053
 Frc consts  --      0.5206                 0.7146                 0.3683
 IR Inten    --      1.6992                 1.4942                 0.9601

                     13                     14                     15
                      A                      A                      A
 Frequencies --    779.8436               796.6255               820.8817
 Red. masses --      1.1488                 3.7474                 1.2105
 Frc consts  --      0.4116                 1.4012                 0.4806
 IR Inten    --      0.4668                 6.2661                 2.5006

                     16                     17                     18
                      A                      A                      A
 Frequencies --    845.2705               899.3432               933.8845
 Red. masses --      1.9639                 2.2497                 2.6030
 Frc consts  --      0.8267                 1.0721                 1.3376
 IR Inten    --     12.5765                 8.7833                 8.1535

                     19                     20                     21
                      A                      A                      A
 Frequencies --    963.5387               980.4358              1014.9278
 Red. masses --      1.8859                 2.4331                 6.6085
 Frc consts  --      1.0316                 1.3780                 4.0107
 IR Inten    --      4.7445                 2.4150                13.3107

                     22                     23                     24
                      A                      A                      A
 Frequencies --   1045.3230              1057.2653              1065.8176
 Red. masses --      1.6571                 1.3793                 1.4029
 Frc consts  --      1.0669                 0.9084                 0.9389
 IR Inten    --      0.3683                 8.9310                 1.9607

                     25                     26                     27
                      A                      A                      A
 Frequencies --   1077.7317              1080.0352              1089.1142
 Red. masses --      1.4087                 1.3686                 1.4076
 Frc consts  --      0.9640                 0.9406                 0.9838
 IR Inten    --      0.7547                 0.5753                 9.8579

                     28                     29                     30
                      A                      A                      A
 Frequencies --   1132.1731              1185.5147              1188.9164
 Red. masses --      1.1153                 1.2904                 5.6389
 Frc consts  --      0.8423                 1.0685                 4.6962
 IR Inten    --      0.1714                 0.1733               292.4750

                     31                     32                     33
                      A                      A                      A
 Frequencies --   1198.3711              1226.1042              1271.7541
 Red. masses --      1.5224                 2.3078                 2.9812
 Frc consts  --      1.2881                 2.0441                 2.8409
 IR Inten    --     34.2203                 0.2691                45.9210

                     34                     35                     36
                      A                      A                      A
 Frequencies --   1296.1882              1414.9580              1433.2754
 Red. masses --      1.7130                 1.1531                 1.6845
 Frc consts  --      1.6957                 1.3602                 2.0388
 IR Inten    --     20.6633                 1.7288                 0.8985

                     37                     38                     39
                      A                      A                      A
 Frequencies --   1460.2365              1471.8251              1496.7488
 Red. masses --      1.0899                 1.0942                 1.3484
 Frc consts  --      1.3692                 1.3966                 1.7797
 IR Inten    --      3.1624                 2.7322                11.2182

                     40                     41                     42
                      A                      A                      A
 Frequencies --   1515.5394              1826.1396              3017.0491
 Red. masses --      1.6036                 9.7177                 1.0899
 Frc consts  --      2.1701                19.0934                 5.8455
 IR Inten    --      0.3879               227.5322                68.7133

                     43                     44                     45
                      A                      A                      A
 Frequencies --   3138.1762              3138.8259              3143.6593
 Red. masses --      1.0558                 1.0536                 1.0707
 Frc consts  --      6.1260                 6.1161                 6.2340
 IR Inten    --      8.9362                11.3719                14.7626

                     46                     47                     48
                      A                      A                      A
 Frequencies --   3147.0449              3150.3185              3222.0920
 Red. masses --      1.0577                 1.0719                 1.1168
 Frc consts  --      6.1718                 6.2676                 6.8314
 IR Inten    --      6.6538                 8.3475                 2.3604

                     49                     50                     51
                      A                      A                      A
 Frequencies --   3223.8190              3239.2515              3239.8197
 Red. masses --      1.1182                 1.1147                 1.1142
 Frc consts  --      6.8475                 6.8911                 6.8905
 IR Inten    --      1.3098                 0.1237                18.2215

 - Thermochemistry -
 -------------------
 Temperature   298.150 Kelvin.  Pressure   1.00000 Atm.
 Atom     1 has atomic number  8 and mass  15.99491

 Molecular mass:   126.06808 amu.
 Principal axes and moments of inertia in atomic units:
                           1         2         3
     Eigenvalues --   887.449091064.210981519.87496
           X            0.99395   0.10957  -0.00746
           Y           -0.10940   0.99379   0.02034
           Z            0.00964  -0.01940   0.99977
 This molecule is an asymmetric top.
 Rotational symmetry number  1.
 Warning -- assumption of classical behavior for rotation
           may cause significant error
 Rotational temperatures (Kelvin)      0.09760     0.08139     0.05699
 Rotational constants (GHZ):           2.03363     1.69585     1.18743
 Zero-point vibrational energy     414764.3 (Joules/Mol)
                                   99.13104 (Kcal/Mol)
 Warning -- explicit consideration of  10 degrees of freedom as
           vibrations may cause significant error
 Vibrational temperatures:     79.20   131.06   262.26   280.55   329.13
          (Kelvin)            384.56   481.11   508.34   711.28   753.34
                              918.23  1081.97  1122.02  1146.17  1181.06
                             1216.15  1293.95  1343.65  1386.32  1410.63
                             1460.25  1503.98  1521.17  1533.47  1550.61
                             1553.93  1566.99  1628.94  1705.69  1710.58
                             1724.19  1764.09  1829.77  1864.92  2035.81
                             2062.16  2100.95  2117.63  2153.49  2180.52
                             2627.40  4340.86  4515.13  4516.06  4523.02
                             4527.89  4532.60  4635.87  4638.35  4660.55
                             4661.37

 Zero-point correction=                           0.157975 (Hartree/Particle)
 Thermal correction to Energy=                    0.166766
 Thermal correction to Enthalpy=                  0.167710
 Thermal correction to Gibbs Free Energy=         0.124063
 Sum of electronic and zero-point Energies=           -423.019177
 Sum of electronic and thermal Energies=              -423.010386
 Sum of electronic and thermal Enthalpies=            -423.009442
 Sum of electronic and thermal Free Energies=         -423.053089

                     E (Thermal)             CV                S
                      KCal/Mol        Cal/Mol-Kelvin    Cal/Mol-Kelvin
 Total                  104.647             32.894             91.863
 Electronic               0.000              0.000              0.000
 Translational            0.889              2.981             40.409
 Rotational               0.889              2.981             28.753
 Vibrational            102.870             26.932             22.702
 Vibration     1          0.596              1.976              4.627
 Vibration     2          0.602              1.956              3.636
 Vibration     3          0.630              1.864              2.305
 Vibration     4          0.636              1.847              2.180
 Vibration     5          0.651              1.797              1.889
 Vibration     6          0.672              1.733              1.614
 Vibration     7          0.716              1.607              1.239
 Vibration     8          0.730              1.568              1.151
 Vibration     9          0.850              1.263              0.672
 Vibration    10          0.879              1.198              0.602

 Optimization completed.
    -- Stationary point found.
 Normal termination of Gaussian 09 at Mon Jan 27 14:26:53 2020.
