 Gaussian 09, Revision D.01,
 Gaussian 09:  ES64L-G09RevD.01 24-Apr-2013

 -----------------------------
 # b3lyp 6-31G(2df,p) opt Freq
 -----------------------------

 -----
 titel
 -----
 Symbolic Z-matrix:
 Charge =  0 Multiplicity = 1

 SCF Done:  E(RB3LYP) =  -423.197018412     A.U. after   14 cycles
 Optimization completed.
    -- Stationary point found.
 Normal termination of Gaussian 09 at Tue Jan 28 12:37:02 2020.

 ----------------------------------------------------------------------
 #N Geom=AllCheck Guess=TCheck SCRF=Check GenChk RB3LYP/6-31G(2df,p) Fr
 eq
 ----------------------------------------------------------------------

 Structure from the checkpoint file:  "/scratch/puck/g09_08e11795-58bc-4fd6-95bc-6f2dca2efc58/Gau-1452.chk"
 -----
 titel
 -----
 Charge =  0 Multiplicity = 1

                         Standard orientation:
 ---------------------------------------------------------------------
 Center     Atomic      Atomic             Coordinates (Angstroms)
 Number     Number       Type             X           Y           Z
 ---------------------------------------------------------------------
      1          6           0       -2.166218   -2.131868   -0.159445
      2          6           0       -0.659142   -1.877202   -0.044818
      3          6           0       -0.357177   -0.534039    0.594057
      4          6           0       -0.287203    0.720574   -0.239554
      5          6           0       -0.884649    1.977539    0.271896
      6          8           0       -1.394873    2.822895   -0.417701
      7          6           0        0.966916    0.184485    0.479173
      8          6           0        2.080345   -0.324695   -0.360739
      9          8           0        3.243651   -0.209722   -0.066717
     10          1           0       -2.363433   -3.110238   -0.606655
     11          1           0       -2.646765   -2.111502    0.824618
     12          1           0       -2.649605   -1.371947   -0.781626
     13          1           0       -0.193593   -2.667659    0.556599
     14          1           0       -0.202099   -1.936825   -1.037881
     15          1           0       -0.822174   -0.402262    1.570029
     16          1           0       -0.316141    0.608677   -1.319412
     17          1           0       -0.832322    2.084976    1.381498
     18          1           0        1.305208    0.734499    1.352094
     19          1           0        1.773469   -0.821864   -1.307345
 ---------------------------------------------------------------------

 SCF Done:  E(RB3LYP) =  -423.197018412     A.U. after    1 cycles

 The electronic state is 1-A.
 Alpha  occ. eigenvalues --  -19.14506 -19.14500 -10.28198 -10.28186 -10.23314
 Alpha  occ. eigenvalues --  -10.22612 -10.22578 -10.20998 -10.19241  -1.05365
 Alpha  occ. eigenvalues --   -1.05278  -0.90557  -0.78515  -0.70366  -0.67287
 Alpha  occ. eigenvalues --   -0.62654  -0.59881  -0.56483  -0.52229  -0.48919
 Alpha  occ. eigenvalues --   -0.46090  -0.45056  -0.44153  -0.43116  -0.41930
 Alpha  occ. eigenvalues --   -0.41278  -0.40491  -0.39108  -0.37100  -0.36409
 Alpha  occ. eigenvalues --   -0.32335  -0.31290  -0.26143  -0.26108
 Alpha virt. eigenvalues --   -0.04757  -0.01212   0.06877   0.07959   0.10646
 Alpha virt. eigenvalues --    0.11769   0.12231   0.13281   0.14005   0.15138
 Alpha virt. eigenvalues --    0.16512   0.17031   0.18086   0.19623   0.21277

 Mulliken charges:
               1
     1  C   -0.378574
     2  C   -0.214851
     3  C   -0.019533
     4  C   -0.131055
     5  C    0.166099
     6  O   -0.258507
     7  C   -0.157005
     8  C    0.166212
     9  O   -0.259522
    10  H    0.122804
    11  H    0.121676
    12  H    0.128862
    13  H    0.116334
    14  H    0.108609
    15  H    0.106572
    16  H    0.115059
    17  H    0.072573
    18  H    0.116591
    19  H    0.077656
 Sum of Mulliken charges =   0.00000

 Dipole moment (field-independent basis, Debye):
    X=             -1.8287    Y=             -2.7239    Z=              0.8861  Tot=              3.3984
 Quadrupole moment (field-independent basis, Debye-Ang):
   XX=            -67.3371   YY=            -59.6515   ZZ=            -50.7393
   XY=              5.7799   XZ=             -2.1211   YZ=              3.4312

  Exact polarizability:  90.082  -4.529  84.218   1.471   0.996  67.278
 Approx polarizability: 133.644 -12.646 117.594   7.801  -5.638 107.428

                      1                      2                      3
                      A                      A                      A
 Frequencies --     68.5504                72.9198               107.8298
 Red. masses --      6.5479                 3.6974                 2.7714
 Frc consts  --      0.0181                 0.0116                 0.0190
 IR Inten    --      5.7537                 2.9230                 0.6592

                      4                      5                      6
                      A                      A                      A
 Frequencies --    169.1143               174.3507               228.6174
 Red. masses --      2.5298                 2.9867                 1.5501
 Frc consts  --      0.0426                 0.0535                 0.0477
 IR Inten    --      7.7300                 2.9330                 2.3618

                      7                      8                      9
                      A                      A                      A
 Frequencies --    236.7657               284.6854               335.5527
 Red. masses --      2.1097                 1.7613                 3.2697
 Frc consts  --      0.0697                 0.0841                 0.2169
 IR Inten    --      3.4116                 0.3089                 0.4301

                     10                     11                     12
                      A                      A                      A
 Frequencies --    409.6331               448.3778               492.8773
 Red. masses --      3.2450                 4.1342                 4.0604
 Frc consts  --      0.3208                 0.4897                 0.5812
 IR Inten    --      1.3469                 7.0436                11.0010

                     13                     14                     15
                      A                      A                      A
 Frequencies --    557.7254               757.8301               811.3747
 Red. masses --      4.4497                 1.8950                 1.4998
 Frc consts  --      0.8155                 0.6412                 0.5817
 IR Inten    --     18.3495                 8.1104                 1.8140

                     16                     17                     18
                      A                      A                      A
 Frequencies --    881.6245               917.7235               957.0622
 Red. masses --      2.9283                 2.5518                 1.4026
 Frc consts  --      1.3410                 1.2662                 0.7569
 IR Inten    --      8.8454                 3.8768                12.5708

                     19                     20                     21
                      A                      A                      A
 Frequencies --    997.9814              1038.9002              1043.3686
 Red. masses --      1.3439                 2.1833                 1.9213
 Frc consts  --      0.7886                 1.3884                 1.2323
 IR Inten    --     22.4228                16.3175                23.5469

                     22                     23                     24
                      A                      A                      A
 Frequencies --   1059.1456              1065.2887              1109.4215
 Red. masses --      2.0263                 2.6479                 1.3645
 Frc consts  --      1.3393                 1.7704                 0.9895
 IR Inten    --     43.7984                82.2069                 6.2879

                     25                     26                     27
                      A                      A                      A
 Frequencies --   1133.8208              1181.5806              1184.8006
 Red. masses --      1.4223                 1.8409                 1.9233
 Frc consts  --      1.0772                 1.5143                 1.5907
 IR Inten    --      2.2999                22.3034                12.8435

                     28                     29                     30
                      A                      A                      A
 Frequencies --   1217.1948              1261.7530              1302.8181
 Red. masses --      1.7879                 1.3039                 1.2459
 Frc consts  --      1.5607                 1.2231                 1.2460
 IR Inten    --      4.1818                 0.7551                 0.1815

                     31                     32                     33
                      A                      A                      A
 Frequencies --   1339.1755              1360.8782              1413.8396
 Red. masses --      1.3323                 1.5276                 1.3109
 Frc consts  --      1.4078                 1.6669                 1.5439
 IR Inten    --      6.5430                 4.7776                 1.4438

                     34                     35                     36
                      A                      A                      A
 Frequencies --   1422.2655              1436.2160              1462.4019
 Red. masses --      1.3124                 1.2136                 1.9920
 Frc consts  --      1.5642                 1.4749                 2.5101
 IR Inten    --      1.4201                 6.9539                 2.7078

                     37                     38                     39
                      A                      A                      A
 Frequencies --   1486.8083              1500.0093              1507.0204
 Red. masses --      1.0644                 1.0394                 1.0764
 Frc consts  --      1.3863                 1.3779                 1.4403
 IR Inten    --      1.8481                 6.4654                 2.9361

                     40                     41                     42
                      A                      A                      A
 Frequencies --   1817.3902              1825.2827              2850.7108
 Red. masses --     10.1399                10.2276                 1.0817
 Frc consts  --     19.7324                20.0763                 5.1794
 IR Inten    --    322.4261               197.7638                91.4235

                     43                     44                     45
                      A                      A                      A
 Frequencies --   2884.4739              3033.6493              3037.7434
 Red. masses --      1.0819                 1.0605                 1.0372
 Frc consts  --      5.3034                 5.7501                 5.6394
 IR Inten    --     77.2816                16.2825                25.2981

                     46                     47                     48
                      A                      A                      A
 Frequencies --   3070.4064              3106.7073              3114.4768
 Red. masses --      1.0988                 1.1012                 1.1017
 Frc consts  --      6.1032                 6.2620                 6.2964
 IR Inten    --      5.6568                24.0728                26.5822

                     49                     50                     51
                      A                      A                      A
 Frequencies --   3121.7836              3165.7775              3167.6927
 Red. masses --      1.0877                 1.0908                 1.0864
 Frc consts  --      6.2456                 6.4413                 6.4230
 IR Inten    --     19.3300                 0.3153                 7.2223

 - Thermochemistry -
 -------------------
 Temperature   298.150 Kelvin.  Pressure   1.00000 Atm.
 Atom     1 has atomic number  6 and mass  12.00000

 Molecular mass:   126.06808 amu.
 Principal axes and moments of inertia in atomic units:
                           1         2         3
     Eigenvalues --  1203.710701402.483982420.37077
           X            0.95512   0.29620  -0.00267
           Y           -0.29611   0.95499   0.01767
           Z            0.00779  -0.01609   0.99984
 This molecule is an asymmetric top.
 Rotational symmetry number  1.
 Warning -- assumption of classical behavior for rotation
           may cause significant error
 Rotational temperatures (Kelvin)      0.07196     0.06176     0.03579
 Rotational constants (GHZ):           1.49931     1.28682     0.74565
 Zero-point vibrational energy     410518.9 (Joules/Mol)
                                   98.11637 (Kcal/Mol)
 Warning -- explicit consideration of  13 degrees of freedom as
           vibrations may cause significant error
 Vibrational temperatures:     98.63   104.92   155.14   243.32   250.85
          (Kelvin)            328.93   340.65   409.60   482.78   589.37
                              645.11   709.14   802.44  1090.35  1167.39
                             1268.46  1320.40  1377.00  1435.87  1494.74
                             1501.17  1523.87  1532.71  1596.21  1631.31
                             1700.03  1704.66  1751.27  1815.38  1874.46
                             1926.77  1958.00  2034.20  2046.32  2066.39
                             2104.07  2139.18  2158.18  2168.26  2614.82
                             2626.17  4101.53  4150.11  4364.74  4370.63
                             4417.62  4469.85  4481.03  4491.54  4554.84
                             4557.60

 Zero-point correction=                           0.156358 (Hartree/Particle)
 Thermal correction to Energy=                    0.166187
 Thermal correction to Enthalpy=                  0.167131
 Thermal correction to Gibbs Free Energy=         0.120720
 Sum of electronic and zero-point Energies=           -423.040660
 Sum of electronic and thermal Energies=              -423.030832
 Sum of electronic and thermal Enthalpies=            -423.029888
 Sum of electronic and thermal Free Energies=         -423.076298

                     E (Thermal)             CV                S
                      KCal/Mol        Cal/Mol-Kelvin    Cal/Mol-Kelvin
 Total                  104.284             34.514             97.679
 Electronic               0.000              0.000              0.000
 Translational            0.889              2.981             40.409
 Rotational               0.889              2.981             29.792
 Vibrational            102.506             28.552             27.479
 Vibration     1          0.598              1.969              4.195
 Vibration     2          0.599              1.967              4.073
 Vibration     3          0.606              1.943              3.308
 Vibration     4          0.625              1.880              2.445
 Vibration     5          0.627              1.874              2.388
 Vibration     6          0.651              1.797              1.890
 Vibration     7          0.656              1.784              1.827
 Vibration     8          0.683              1.702              1.505
 Vibration     9          0.717              1.605              1.233
 Vibration    10          0.774              1.449              0.928
 Vibration    11          0.807              1.364              0.801
 Vibration    12          0.849              1.266              0.676
 Vibration    13          0.913              1.123              0.528

 Optimization completed.
    -- Stationary point found.
 Normal termination of Gaussian 09 at Tue Jan 28 13:20:50 2020.
