 Gaussian 09, Revision D.01,
 Gaussian 09:  ES64L-G09RevD.01 24-Apr-2013

 -----------------------------
 # b3lyp 6-31G(2df,p) opt Freq
 -----------------------------

 -----
 titel
 -----
 Symbolic Z-matrix:
 Charge =  0 Multiplicity = 1

 SCF Done:  E(RB3LYP) =  -423.155578234     A.U. after   14 cycles
 Optimization completed.
    -- Stationary point found.
 Normal termination of Gaussian 09 at Mon Jan 27 16:07:04 2020.

 ----------------------------------------------------------------------
 #N Geom=AllCheck Guess=TCheck SCRF=Check GenChk RB3LYP/6-31G(2df,p) Fr
 eq
 ----------------------------------------------------------------------

 Structure from the checkpoint file:  "/scratch/puck/g09_03acff1a-efbc-4394-a9f4-e0dabd238da3/Gau-83598.chk"
 -----
 titel
 -----
 Charge =  0 Multiplicity = 1

                         Standard orientation:
 ---------------------------------------------------------------------
 Center     Atomic      Atomic             Coordinates (Angstroms)
 Number     Number       Type             X           Y           Z
 ---------------------------------------------------------------------
      1          6           0       -1.283425   -1.823763   -0.395515
      2          6           0       -1.001908   -0.392833    0.033606
      3          6           0       -1.957533    0.148888    1.079420
      4          6           0       -0.467626    0.480523   -1.045943
      5          8           0       -0.326519    1.836702   -0.670437
      6          6           0        0.644340    1.484046    0.359116
      7          6           0        0.493136   -0.006013    0.074625
      8          6           0        1.635968   -0.921226    0.038944
      9          8           0        2.755499   -0.596395    0.371286
     10          1           0       -2.323614   -1.910488   -0.726122
     11          1           0       -0.645810   -2.145540   -1.224457
     12          1           0       -1.135964   -2.525600    0.432003
     13          1           0       -1.806059   -0.344210    2.045271
     14          1           0       -1.842772    1.225696    1.211741
     15          1           0       -2.991239   -0.036296    0.767497
     16          1           0       -0.484936    0.243872   -2.105584
     17          1           0        1.638670    1.850790    0.092596
     18          1           0        0.357018    1.854226    1.347935
     19          1           0        1.425151   -1.952644   -0.313188
 ---------------------------------------------------------------------

 SCF Done:  E(RB3LYP) =  -423.155578234     A.U. after    1 cycles

 The electronic state is 1-A.
 Alpha  occ. eigenvalues --  -19.15522 -19.13131 -10.26911 -10.26177 -10.24273
 Alpha  occ. eigenvalues --  -10.22447 -10.21163 -10.19789 -10.18761  -1.06961
 Alpha  occ. eigenvalues --   -1.03747  -0.86782  -0.75138  -0.71331  -0.70387
 Alpha  occ. eigenvalues --   -0.64638  -0.57358  -0.54325  -0.50950  -0.48526
 Alpha  occ. eigenvalues --   -0.47653  -0.45873  -0.42980  -0.42084  -0.40443
 Alpha  occ. eigenvalues --   -0.40074  -0.39442  -0.38778  -0.36433  -0.35895
 Alpha  occ. eigenvalues --   -0.33338  -0.27568  -0.25854  -0.24351
 Alpha virt. eigenvalues --   -0.02707   0.06967   0.08199   0.10059   0.11467
 Alpha virt. eigenvalues --    0.11995   0.13328   0.14125   0.15402   0.15764
 Alpha virt. eigenvalues --    0.17195   0.19044   0.19601   0.20081   0.21173

 Mulliken charges:
               1
     1  C   -0.464196
     2  C    0.212915
     3  C   -0.465358
     4  C    0.029520
     5  O   -0.277759
     6  C   -0.155920
     7  C    0.140831
     8  C    0.049415
     9  O   -0.278596
    10  H    0.127896
    11  H    0.123171
    12  H    0.130693
    13  H    0.122483
    14  H    0.142596
    15  H    0.122238
    16  H    0.115807
    17  H    0.138065
    18  H    0.114835
    19  H    0.071362
 Sum of Mulliken charges =   0.00000

 Dipole moment (field-independent basis, Debye):
    X=             -2.6948    Y=             -1.3083    Z=             -0.2649  Tot=              3.0073
 Quadrupole moment (field-independent basis, Debye-Ang):
   XX=            -61.9268   YY=            -54.2813   ZZ=            -51.2948
   XY=              3.5986   XZ=             -1.8639   YZ=              2.8791

  Exact polarizability:  90.282   2.038  77.983   2.582   3.006  65.466
 Approx polarizability: 138.388  -0.301 112.833  12.981  -0.491 102.936

                      1                      2                      3
                      A                      A                      A
 Frequencies --     99.8945               172.4379               182.3388
 Red. masses --      4.7016                 1.2752                 2.2727
 Frc consts  --      0.0276                 0.0223                 0.0445
 IR Inten    --      4.7162                 0.7465                 2.0374

                      4                      5                      6
                      A                      A                      A
 Frequencies --    205.1578               255.9865               263.2308
 Red. masses --      2.2128                 1.3914                 3.0187
 Frc consts  --      0.0549                 0.0537                 0.1232
 IR Inten    --      3.5236                 1.5664                 7.5758

                      7                      8                      9
                      A                      A                      A
 Frequencies --    293.6135               315.1030               359.2307
 Red. masses --      2.5663                 2.3500                 2.2462
 Frc consts  --      0.1304                 0.1375                 0.1708
 IR Inten    --      1.2225                 3.0293                 0.0253

                     10                     11                     12
                      A                      A                      A
 Frequencies --    415.4237               535.3233               546.7731
 Red. masses --      2.7218                 3.2979                 3.8000
 Frc consts  --      0.2768                 0.5568                 0.6693
 IR Inten    --      2.8374                 5.2082                 3.3990

                     13                     14                     15
                      A                      A                      A
 Frequencies --    632.6817               722.4220               776.9380
 Red. masses --      3.9400                 5.0794                 3.2153
 Frc consts  --      0.9292                 1.5619                 1.1435
 IR Inten    --     10.0354                56.7603                 1.0523

                     16                     17                     18
                      A                      A                      A
 Frequencies --    872.9085               943.1380               970.4465
 Red. masses --      2.9502                 2.8928                 1.5534
 Frc consts  --      1.3244                 1.5160                 0.8619
 IR Inten    --      8.1516                 9.2782                12.3949

                     19                     20                     21
                      A                      A                      A
 Frequencies --    973.9616               981.6334              1005.9498
 Red. masses --      1.4265                 2.5883                 1.7728
 Frc consts  --      0.7972                 1.4695                 1.0570
 IR Inten    --     13.9687                31.1962                12.0398

                     22                     23                     24
                      A                      A                      A
 Frequencies --   1030.5441              1060.2533              1078.2353
 Red. masses --      1.4569                 2.1975                 2.2130
 Frc consts  --      0.9116                 1.4555                 1.5159
 IR Inten    --      9.0292                53.8946                 4.5458

                     25                     26                     27
                      A                      A                      A
 Frequencies --   1118.5021              1152.8890              1159.6132
 Red. masses --      2.2332                 1.6896                 1.4427
 Frc consts  --      1.6461                 1.3232                 1.1430
 IR Inten    --      2.9189                18.7951                 6.6561

                     28                     29                     30
                      A                      A                      A
 Frequencies --   1214.6922              1250.1653              1319.5895
 Red. masses --      3.3045                 1.4853                 1.6370
 Frc consts  --      2.8727                 1.3678                 1.6795
 IR Inten    --     20.0128                23.7174                 4.7884

                     31                     32                     33
                      A                      A                      A
 Frequencies --   1347.7313              1402.4768              1412.8284
 Red. masses --      3.3990                 1.5051                 1.5490
 Frc consts  --      3.6376                 1.7442                 1.8217
 IR Inten    --     20.4600                 5.0068                17.1726

                     34                     35                     36
                      A                      A                      A
 Frequencies --   1429.3475              1448.4401              1484.2667
 Red. masses --      1.2902                 1.5429                 1.0517
 Frc consts  --      1.5531                 1.9072                 1.3651
 IR Inten    --      5.3875                19.6995                 1.4207

                     37                     38                     39
                      A                      A                      A
 Frequencies --   1490.4205              1503.4498              1513.4265
 Red. masses --      1.0543                 1.0516                 1.1555
 Frc consts  --      1.3798                 1.4005                 1.5594
 IR Inten    --      2.6357                 6.9754                 6.5362

                     40                     41                     42
                      A                      A                      A
 Frequencies --   1524.2012              1780.4140              2908.5634
 Red. masses --      1.0918                10.0474                 1.0818
 Frc consts  --      1.4944                18.7650                 5.3921
 IR Inten    --      3.1121               253.1104                90.7400

                     43                     44                     45
                      A                      A                      A
 Frequencies --   3033.3060              3038.3562              3052.5855
 Red. masses --      1.0357                 1.0382                 1.0567
 Frc consts  --      5.6146                 5.6468                 5.8012
 IR Inten    --     20.0263                33.3915                41.1048

                     46                     47                     48
                      A                      A                      A
 Frequencies --   3095.4168              3099.5569              3106.4061
 Red. masses --      1.1013                 1.1013                 1.1007
 Frc consts  --      6.2171                 6.2340                 6.2578
 IR Inten    --      5.6003                28.2638                20.7154

                     49                     50                     51
                      A                      A                      A
 Frequencies --   3112.1533              3139.3077              3162.4426
 Red. masses --      1.1097                 1.0978                 1.0926
 Frc consts  --      6.3323                 6.3743                 6.4380
 IR Inten    --     18.7767                10.1792                16.2133

 - Thermochemistry -
 -------------------
 Temperature   298.150 Kelvin.  Pressure   1.00000 Atm.
 Atom     1 has atomic number  6 and mass  12.00000

 Molecular mass:   126.06808 amu.
 Principal axes and moments of inertia in atomic units:
                           1         2         3
     Eigenvalues --   793.894731165.530431570.29961
           X            0.99651   0.08075  -0.02136
           Y           -0.07949   0.99536   0.05418
           Z            0.02563  -0.05230   0.99830
 This molecule is an asymmetric top.
 Rotational symmetry number  1.
 Warning -- assumption of classical behavior for rotation
           may cause significant error
 Rotational temperatures (Kelvin)      0.10910     0.07431     0.05516
 Rotational constants (GHZ):           2.27328     1.54843     1.14930
 Zero-point vibrational energy     412676.8 (Joules/Mol)
                                   98.63212 (Kcal/Mol)
 Warning -- explicit consideration of  12 degrees of freedom as
           vibrations may cause significant error
 Vibrational temperatures:    143.73   248.10   262.34   295.18   368.31
          (Kelvin)            378.73   422.44   453.36   516.85   597.70
                              770.21   786.68   910.29  1039.40  1117.84
                             1255.92  1356.96  1396.25  1401.31  1412.35
                             1447.34  1482.72  1525.47  1551.34  1609.27
                             1658.75  1668.42  1747.67  1798.71  1898.59
                             1939.08  2017.85  2032.74  2056.51  2083.98
                             2135.53  2144.38  2163.13  2177.48  2192.98
                             2561.62  4184.77  4364.25  4371.51  4391.98
                             4453.61  4459.57  4469.42  4477.69  4516.76
                             4550.04

 Zero-point correction=                           0.157180 (Hartree/Particle)
 Thermal correction to Energy=                    0.166157
 Thermal correction to Enthalpy=                  0.167101
 Thermal correction to Gibbs Free Energy=         0.123905
 Sum of electronic and zero-point Energies=           -422.998398
 Sum of electronic and thermal Energies=              -422.989421
 Sum of electronic and thermal Enthalpies=            -422.988477
 Sum of electronic and thermal Free Energies=         -423.031673

                     E (Thermal)             CV                S
                      KCal/Mol        Cal/Mol-Kelvin    Cal/Mol-Kelvin
 Total                  104.265             33.747             90.913
 Electronic               0.000              0.000              0.000
 Translational            0.889              2.981             40.409
 Rotational               0.889              2.981             28.765
 Vibrational            102.488             27.785             21.740
 Vibration     1          0.604              1.949              3.456
 Vibration     2          0.626              1.876              2.409
 Vibration     3          0.630              1.864              2.304
 Vibration     4          0.640              1.833              2.086
 Vibration     5          0.666              1.753              1.689
 Vibration     6          0.670              1.740              1.640
 Vibration     7          0.688              1.686              1.453
 Vibration     8          0.702              1.645              1.335
 Vibration     9          0.734              1.556              1.125
 Vibration    10          0.779              1.437              0.908
 Vibration    11          0.890              1.172              0.575
 Vibration    12          0.902              1.147              0.551

 Optimization completed.
    -- Stationary point found.
 Normal termination of Gaussian 09 at Mon Jan 27 16:53:17 2020.
