 Gaussian 09, Revision D.01,
 Gaussian 09:  ES64L-G09RevD.01 24-Apr-2013

 -----------------------------
 # b3lyp 6-31G(2df,p) opt Freq
 -----------------------------

 -----
 titel
 -----
 Symbolic Z-matrix:
 Charge =  0 Multiplicity = 1

 SCF Done:  E(RB3LYP) =  -423.186314155     A.U. after   14 cycles
 Optimization completed.
    -- Stationary point found.
 Normal termination of Gaussian 09 at Tue Jan 28 00:42:58 2020.

 ----------------------------------------------------------------------
 #N Geom=AllCheck Guess=TCheck SCRF=Check GenChk RB3LYP/6-31G(2df,p) Fr
 eq
 ----------------------------------------------------------------------

 Structure from the checkpoint file:  "/scratch/puck/g09_ffcf4f12-5be1-4808-9182-9e0d2f125a0c/Gau-81515.chk"
 -----
 titel
 -----
 Charge =  0 Multiplicity = 1

                         Standard orientation:
 ---------------------------------------------------------------------
 Center     Atomic      Atomic             Coordinates (Angstroms)
 Number     Number       Type             X           Y           Z
 ---------------------------------------------------------------------
      1          8           0        2.455916   -1.231875   -0.062407
      2          6           0        1.301472   -0.494683    0.338481
      3          6           0        0.029369   -1.080698   -0.289463
      4          6           0       -1.289117   -0.613662    0.337829
      5          8           0       -2.382418   -1.357952   -0.208994
      6          6           0       -1.586071    0.860826    0.244364
      7          6           0       -0.762474    1.889585   -0.002612
      8          6           0        0.685791    1.916108   -0.206883
      9          6           0        1.577098    0.929068   -0.060662
     10          1           0        2.326542   -2.147879    0.202602
     11          1           0        1.201665   -0.535169    1.439393
     12          1           0        0.029899   -0.862406   -1.363923
     13          1           0        0.054465   -2.171649   -0.183109
     14          1           0       -1.292584   -0.899115    1.399540
     15          1           0       -2.483251   -1.082073   -1.127299
     16          1           0       -2.640918    1.078914    0.398562
     17          1           0       -1.227323    2.872797   -0.041701
     18          1           0        1.077589    2.891211   -0.486086
     19          1           0        2.629519    1.134714   -0.233089
 ---------------------------------------------------------------------

 SCF Done:  E(RB3LYP) =  -423.186314155     A.U. after    1 cycles

 The electronic state is 1-A.
 Alpha  occ. eigenvalues --  -19.13760 -19.13700 -10.23984 -10.23878 -10.19007
 Alpha  occ. eigenvalues --  -10.18629 -10.18517 -10.18476 -10.18407  -1.02124
 Alpha  occ. eigenvalues --   -1.01825  -0.82321  -0.75964  -0.75696  -0.65376
 Alpha  occ. eigenvalues --   -0.64866  -0.57096  -0.52887  -0.50630  -0.50150
 Alpha  occ. eigenvalues --   -0.47278  -0.45047  -0.44228  -0.40601  -0.39953
 Alpha  occ. eigenvalues --   -0.38864  -0.36861  -0.34329  -0.33470  -0.31656
 Alpha  occ. eigenvalues --   -0.31543  -0.28103  -0.26790  -0.22090
 Alpha virt. eigenvalues --   -0.03661   0.07183   0.08256   0.08958   0.10290
 Alpha virt. eigenvalues --    0.12668   0.13784   0.14157   0.15318   0.16619
 Alpha virt. eigenvalues --    0.19791   0.19959   0.21261   0.22520   0.24900

 Mulliken charges:
               1
     1  O   -0.442004
     2  C    0.059261
     3  C   -0.250911
     4  C    0.066526
     5  O   -0.431537
     6  C   -0.109202
     7  C   -0.075584
     8  C   -0.085759
     9  C   -0.058545
    10  H    0.281902
    11  H    0.081588
    12  H    0.104180
    13  H    0.095268
    14  H    0.099989
    15  H    0.277778
    16  H    0.098887
    17  H    0.090884
    18  H    0.090476
    19  H    0.106802
 Sum of Mulliken charges =   0.00000

 Dipole moment (field-independent basis, Debye):
    X=             -0.1892    Y=              0.1348    Z=             -0.0831  Tot=              0.2467
 Quadrupole moment (field-independent basis, Debye-Ang):
   XX=            -58.7293   YY=            -49.5112   ZZ=            -52.2193
   XY=             -3.7972   XZ=              3.5019   YZ=             -1.2309

  Exact polarizability:  97.894  -0.276  89.684  -1.899  -4.109  53.575
 Approx polarizability: 151.457   1.865 130.954  -4.793  -8.879  86.156

                      1                      2                      3
                      A                      A                      A
 Frequencies --     51.5502               157.9183               243.8973
 Red. masses --      3.3741                 3.5358                 2.2738
 Frc consts  --      0.0053                 0.0520                 0.0797
 IR Inten    --      0.8663                 4.2260                 6.7829

                      4                      5                      6
                      A                      A                      A
 Frequencies --    273.6708               296.1721               330.8533
 Red. masses --      2.7488                 1.1759                 3.8183
 Frc consts  --      0.1213                 0.0608                 0.2463
 IR Inten    --      4.1324                95.9109                12.3323

                      7                      8                      9
                      A                      A                      A
 Frequencies --    335.3596               376.7239               397.0422
 Red. masses --      1.5484                 3.1289                 4.5198
 Frc consts  --      0.1026                 0.2616                 0.4198
 IR Inten    --     80.6864                 2.2917                 5.4473

                     10                     11                     12
                      A                      A                      A
 Frequencies --    458.8032               499.4767               591.1755
 Red. masses --      3.7210                 2.2447                 3.3432
 Frc consts  --      0.4615                 0.3299                 0.6884
 IR Inten    --      0.0950                 6.9879                 1.4886

                     13                     14                     15
                      A                      A                      A
 Frequencies --    649.6812               712.8140               797.1028
 Red. masses --      3.2973                 1.4125                 2.1373
 Frc consts  --      0.8200                 0.4229                 0.8001
 IR Inten    --      2.2078                32.1075                 0.9287

                     16                     17                     18
                      A                      A                      A
 Frequencies --    847.7567               853.4718               923.2922
 Red. masses --      2.2971                 3.5846                 2.9643
 Frc consts  --      0.9727                 1.5384                 1.4889
 IR Inten    --      4.1914                 4.8057                 8.0804

                     19                     20                     21
                      A                      A                      A
 Frequencies --    949.1833              1003.8772              1018.5008
 Red. masses --      2.3356                 1.2560                 1.6374
 Frc consts  --      1.2398                 0.7458                 1.0008
 IR Inten    --      2.3428                 4.7539                42.5019

                     22                     23                     24
                      A                      A                      A
 Frequencies --   1025.3544              1038.7878              1075.1556
 Red. masses --      1.7473                 3.5410                 2.3415
 Frc consts  --      1.0823                 2.2513                 1.5947
 IR Inten    --     40.6154                43.1909                44.6714

                     25                     26                     27
                      A                      A                      A
 Frequencies --   1094.1759              1128.3629              1177.4994
 Red. masses --      3.4174                 2.4642                 1.2651
 Frc consts  --      2.4106                 1.8485                 1.0335
 IR Inten    --     35.6297                24.2087                 0.6064

                     28                     29                     30
                      A                      A                      A
 Frequencies --   1231.8096              1245.0047              1259.8929
 Red. masses --      1.0770                 1.2068                 1.1260
 Frc consts  --      0.9629                 1.1022                 1.0531
 IR Inten    --     80.2888                 6.7429                27.0760

                     31                     32                     33
                      A                      A                      A
 Frequencies --   1273.9914              1314.4085              1371.1001
 Red. masses --      1.1017                 1.3025                 1.3063
 Frc consts  --      1.0535                 1.3259                 1.4468
 IR Inten    --      5.9948                 2.1097                10.6955

                     34                     35                     36
                      A                      A                      A
 Frequencies --   1383.8486              1396.2833              1413.2083
 Red. masses --      1.5206                 1.4068                 1.1825
 Frc consts  --      1.7157                 1.6160                 1.3914
 IR Inten    --      5.3208                14.0666                60.2126

                     37                     38                     39
                      A                      A                      A
 Frequencies --   1441.6291              1453.1481              1486.5527
 Red. masses --      1.4640                 1.5954                 1.1337
 Frc consts  --      1.7927                 1.9848                 1.4761
 IR Inten    --      7.0980                 1.6970                 2.4603

                     40                     41                     42
                      A                      A                      A
 Frequencies --   1687.0985              1717.9829              2918.6715
 Red. masses --      9.4247                 5.9715                 1.0799
 Frc consts  --     15.8052                10.3842                 5.4199
 IR Inten    --      1.0837                 0.1576                38.9240

                     43                     44                     45
                      A                      A                      A
 Frequencies --   3004.4605              3029.5616              3076.0988
 Red. masses --      1.0821                 1.0590                 1.1044
 Frc consts  --      5.7553                 5.7268                 6.1574
 IR Inten    --     22.4272                29.7587                29.9169

                     46                     47                     48
                      A                      A                      A
 Frequencies --   3132.6796              3149.7577              3160.9000
 Red. masses --      1.0825                 1.0859                 1.0917
 Frc consts  --      6.2590                 6.3476                 6.4265
 IR Inten    --      3.7498                13.7358                25.2794

                     49                     50                     51
                      A                      A                      A
 Frequencies --   3180.7608              3794.2811              3822.3300
 Red. masses --      1.0932                 1.0661                 1.0661
 Frc consts  --      6.5167                 9.0425                 9.1773
 IR Inten    --     12.3464                14.9791                16.4841

 - Thermochemistry -
 -------------------
 Temperature   298.150 Kelvin.  Pressure   1.00000 Atm.
 Atom     1 has atomic number  8 and mass  15.99491

 Molecular mass:   126.06808 amu.
 Principal axes and moments of inertia in atomic units:
                           1         2         3
     Eigenvalues --   808.951001232.938771945.29706
           X            0.99983  -0.01843   0.00317
           Y            0.01845   0.99982  -0.00515
           Z           -0.00307   0.00520   0.99998
 This molecule is an asymmetric top.
 Rotational symmetry number  1.
 Warning -- assumption of classical behavior for rotation
           may cause significant error
 Rotational temperatures (Kelvin)      0.10707     0.07025     0.04452
 Rotational constants (GHZ):           2.23096     1.46377     0.92775
 Zero-point vibrational energy     420207.0 (Joules/Mol)
                                  100.43188 (Kcal/Mol)
 Warning -- explicit consideration of  12 degrees of freedom as
           vibrations may cause significant error
 Vibrational temperatures:     74.17   227.21   350.91   393.75   426.13
          (Kelvin)            476.02   482.51   542.02   571.25   660.11
                              718.63   850.57   934.75  1025.58  1146.85
                             1219.73  1227.95  1328.41  1365.66  1444.35
                             1465.39  1475.25  1494.58  1546.91  1574.27
                             1623.46  1694.16  1772.30  1791.28  1812.70
                             1832.99  1891.14  1972.70  1991.05  2008.94
                             2033.29  2074.18  2090.75  2138.82  2427.36
                             2471.79  4199.31  4322.74  4358.86  4425.81
                             4507.22  4531.79  4547.82  4576.40  5459.12
                             5499.47

 Zero-point correction=                           0.160048 (Hartree/Particle)
 Thermal correction to Energy=                    0.168660
 Thermal correction to Enthalpy=                  0.169605
 Thermal correction to Gibbs Free Energy=         0.126698
 Sum of electronic and zero-point Energies=           -423.026266
 Sum of electronic and thermal Energies=              -423.017654
 Sum of electronic and thermal Enthalpies=            -423.016710
 Sum of electronic and thermal Free Energies=         -423.059616

                     E (Thermal)             CV                S
                      KCal/Mol        Cal/Mol-Kelvin    Cal/Mol-Kelvin
 Total                  105.836             33.386             90.305
 Electronic               0.000              0.000              0.000
 Translational            0.889              2.981             40.409
 Rotational               0.889              2.981             29.052
 Vibrational            104.059             27.424             20.844
 Vibration     1          0.596              1.977              4.757
 Vibration     2          0.621              1.894              2.575
 Vibration     3          0.659              1.773              1.774
 Vibration     4          0.676              1.722              1.573
 Vibration     5          0.690              1.681              1.438
 Vibration     6          0.713              1.614              1.256
 Vibration     7          0.716              1.605              1.234
 Vibration     8          0.747              1.520              1.052
 Vibration     9          0.764              1.476              0.974
 Vibration    10          0.817              1.341              0.770
 Vibration    11          0.855              1.251              0.659
 Vibration    12          0.949              1.051              0.465

 Normal termination of Gaussian 09 at Tue Jan 28 01:25:38 2020.
