 Gaussian 09, Revision D.01,
 Gaussian 09:  ES64L-G09RevD.01 24-Apr-2013

 -----------------------------
 # b3lyp 6-31G(2df,p) opt Freq
 -----------------------------

 -----
 titel
 -----
 Symbolic Z-matrix:
 Charge =  0 Multiplicity = 1

 SCF Done:  E(RB3LYP) =  -423.112378502     A.U. after   12 cycles
 Optimization completed.
    -- Stationary point found.
 Normal termination of Gaussian 09 at Mon Jan 27 17:02:17 2020.

 ----------------------------------------------------------------------
 #N Geom=AllCheck Guess=TCheck SCRF=Check GenChk RB3LYP/6-31G(2df,p) Fr
 eq
 ----------------------------------------------------------------------

 Structure from the checkpoint file:  "/scratch/puck/g09_8654af47-5fe8-42ca-8880-bb6f31dbe20b/Gau-85697.chk"
 -----
 titel
 -----
 Charge =  0 Multiplicity = 1

                         Standard orientation:
 ---------------------------------------------------------------------
 Center     Atomic      Atomic             Coordinates (Angstroms)
 Number     Number       Type             X           Y           Z
 ---------------------------------------------------------------------
      1          8           0       -2.305018   -0.441713    0.000052
      2          6           0       -0.931088   -0.548976    0.000089
      3          6           0        0.002136   -1.176192   -1.089972
      4          6           0        0.933166   -0.545760    0.000099
      5          8           0        2.306718   -0.433769    0.000075
      6          6           0        0.002124   -1.176124    1.090223
      7          6           0       -0.001065    0.667725    0.000030
      8          6           0       -0.003646    1.939349    0.765723
      9          6           0       -0.003634    1.939231   -0.765863
     10          1           0       -2.684504   -1.326312   -0.001538
     11          1           0        0.004041   -2.269547   -1.159113
     12          1           0        0.001314   -0.694002   -2.069474
     13          1           0        2.689282   -1.317042   -0.001638
     14          1           0        0.004024   -2.269466    1.159466
     15          1           0        0.001292   -0.693847    2.069677
     16          1           0       -0.917266    2.242834    1.267512
     17          1           0        0.908746    2.246647    1.267425
     18          1           0       -0.917248    2.242630   -1.267714
     19          1           0        0.908769    2.246444   -1.267597
 ---------------------------------------------------------------------

 SCF Done:  E(RB3LYP) =  -423.112378502     A.U. after    1 cycles

 The electronic state is 1-A.
 Alpha  occ. eigenvalues --  -19.15037 -19.15036 -10.24821 -10.24819 -10.19054
 Alpha  occ. eigenvalues --  -10.18055 -10.18050 -10.17482 -10.17460  -1.04037
 Alpha  occ. eigenvalues --   -1.03363  -0.90757  -0.82379  -0.66951  -0.62508
 Alpha  occ. eigenvalues --   -0.62112  -0.59019  -0.55211  -0.51045  -0.47208
 Alpha  occ. eigenvalues --   -0.46930  -0.45670  -0.43210  -0.40126  -0.40008
 Alpha  occ. eigenvalues --   -0.35618  -0.35511  -0.35422  -0.35004  -0.30483
 Alpha  occ. eigenvalues --   -0.28425  -0.27675  -0.25959  -0.24554
 Alpha virt. eigenvalues --    0.06819   0.08190   0.11499   0.12042   0.13071
 Alpha virt. eigenvalues --    0.13520   0.15089   0.15551   0.16270   0.17079
 Alpha virt. eigenvalues --    0.19516   0.19551   0.22504   0.22684   0.23550

 Mulliken charges:
               1
     1  O   -0.475824
     2  C    0.326210
     3  C   -0.361752
     4  C    0.326133
     5  O   -0.475822
     6  C   -0.361664
     7  C    0.387737
     8  C   -0.381442
     9  C   -0.381439
    10  H    0.286112
    11  H    0.074981
    12  H    0.101936
    13  H    0.286112
    14  H    0.074972
    15  H    0.101934
    16  H    0.117962
    17  H    0.117954
    18  H    0.117953
    19  H    0.117945
 Sum of Mulliken charges =   0.00000

 Dipole moment (field-independent basis, Debye):
    X=              0.0042    Y=             -2.4522    Z=             -0.0050  Tot=              2.4522
 Quadrupole moment (field-independent basis, Debye-Ang):
   XX=            -52.7015   YY=            -48.1827   ZZ=            -53.5985
   XY=             -0.0076   XZ=             -0.0006   YZ=              0.0089

  Exact polarizability:  73.370  -0.021  84.234   0.000   0.005  71.255
 Approx polarizability: 108.784  -0.014 116.002   0.000   0.010 106.842

                      1                      2                      3
                      A                      A                      A
 Frequencies --    156.6799               190.2356               206.6139
 Red. masses --      3.7089                 1.1236                 1.8283
 Frc consts  --      0.0536                 0.0240                 0.0460
 IR Inten    --      2.5683                 0.0004                75.4168

                      4                      5                      6
                      A                      A                      A
 Frequencies --    211.4144               221.5933               252.6492
 Red. masses --      1.6017                 1.8687                 5.0344
 Frc consts  --      0.0422                 0.0541                 0.1893
 IR Inten    --     62.5560                 0.0004                 1.1002

                      7                      8                      9
                      A                      A                      A
 Frequencies --    324.0751               454.2618               478.7419
 Red. masses --      4.0413                 3.2742                 2.4004
 Frc consts  --      0.2501                 0.3981                 0.3241
 IR Inten    --     71.0875                 0.0000                 0.1045

                     10                     11                     12
                      A                      A                      A
 Frequencies --    502.4986               616.0277               619.6988
 Red. masses --      2.5507                 9.0435                 2.8228
 Frc consts  --      0.3795                 2.0220                 0.6387
 IR Inten    --     10.9688                 0.1647                 4.0548

                     13                     14                     15
                      A                      A                      A
 Frequencies --    668.2806               678.1292               750.8361
 Red. masses --      2.5049                 3.0084                 2.3402
 Frc consts  --      0.6591                 0.8151                 0.7773
 IR Inten    --      0.2209                10.1884                 2.0973

                     16                     17                     18
                      A                      A                      A
 Frequencies --    764.7320               788.0449               914.9098
 Red. masses --      3.4762                 1.0696                 1.2028
 Frc consts  --      1.1978                 0.3913                 0.5932
 IR Inten    --      0.0001                 0.2337                 0.0000

                     19                     20                     21
                      A                      A                      A
 Frequencies --    958.1814               960.3701               989.7620
 Red. masses --      3.4398                 1.8293                 3.0327
 Frc consts  --      1.8607                 0.9941                 1.7504
 IR Inten    --      0.2432                 3.0889                 5.1529

                     22                     23                     24
                      A                      A                      A
 Frequencies --   1042.9242              1048.6425              1053.9169
 Red. masses --      1.2443                 1.3635                 3.6192
 Frc consts  --      0.7974                 0.8834                 2.3685
 IR Inten    --      0.0003                 7.2954                23.0276

                     25                     26                     27
                      A                      A                      A
 Frequencies --   1081.6968              1087.5325              1121.2384
 Red. masses --      1.6013                 1.2595                 1.5501
 Frc consts  --      1.1039                 0.8777                 1.1482
 IR Inten    --      0.6352                96.1737                 0.0125

                     28                     29                     30
                      A                      A                      A
 Frequencies --   1123.2887              1123.5377              1128.7817
 Red. masses --      1.5677                 4.5033                 1.3578
 Frc consts  --      1.1654                 3.3493                 1.0193
 IR Inten    --      6.4240                 7.3455                 0.0001

                     31                     32                     33
                      A                      A                      A
 Frequencies --   1160.6468              1183.8763              1269.9097
 Red. masses --      1.7914                 1.2648                 1.9018
 Frc consts  --      1.4218                 1.0444                 1.8070
 IR Inten    --     30.6760                 0.0000               404.9479

                     34                     35                     36
                      A                      A                      A
 Frequencies --   1309.5528              1355.5274              1364.8905
 Red. masses --      1.6665                 4.0572                 2.3217
 Frc consts  --      1.6838                 4.3923                 2.5483
 IR Inten    --     10.2420                 1.2376                39.9023

                     37                     38                     39
                      A                      A                      A
 Frequencies --   1455.8164              1456.9202              1481.9306
 Red. masses --      1.4514                 1.0910                 1.1054
 Frc consts  --      1.8124                 1.3644                 1.4303
 IR Inten    --      2.4532                 0.9825                 1.0995

                     40                     41                     42
                      A                      A                      A
 Frequencies --   1512.4137              1570.5529              3036.8933
 Red. masses --      1.4769                 2.3929                 1.0572
 Frc consts  --      1.9904                 3.4776                 5.7446
 IR Inten    --      0.1313                 0.0190                30.8742

                     43                     44                     45
                      A                      A                      A
 Frequencies --   3043.9781              3120.7108              3123.8269
 Red. masses --      1.0573                 1.0521                 1.0576
 Frc consts  --      5.7720                 6.0370                 6.0807
 IR Inten    --     65.1555                 8.4107                10.1092

                     46                     47                     48
                      A                      A                      A
 Frequencies --   3125.0137              3127.1728              3199.4202
 Red. masses --      1.1052                 1.1075                 1.1176
 Frc consts  --      6.3594                 6.3811                 6.7404
 IR Inten    --     29.4033                35.8568                 0.0000

                     49                     50                     51
                      A                      A                      A
 Frequencies --   3213.1351              3819.4063              3820.0675
 Red. masses --      1.1152                 1.0659                 1.0657
 Frc consts  --      6.7836                 9.1617                 9.1628
 IR Inten    --     13.8134                32.4638                30.6636

 - Thermochemistry -
 -------------------
 Temperature   298.150 Kelvin.  Pressure   1.00000 Atm.
 Atom     1 has atomic number  8 and mass  15.99491

 Molecular mass:   126.06808 amu.
 Principal axes and moments of inertia in atomic units:
                           1         2         3
     Eigenvalues --   848.94567 961.579481379.04458
           X            1.00000  -0.00103   0.00000
           Y            0.00103   1.00000   0.00003
           Z            0.00000  -0.00003   1.00000
 This molecule is an asymmetric top.
 Rotational symmetry number  1.
 Warning -- assumption of classical behavior for rotation
           may cause significant error
 Rotational temperatures (Kelvin)      0.10203     0.09007     0.06281
 Rotational constants (GHZ):           2.12586     1.87685     1.30869
 Zero-point vibrational energy     414332.3 (Joules/Mol)
                                   99.02780 (Kcal/Mol)
 Warning -- explicit consideration of  12 degrees of freedom as
           vibrations may cause significant error
 Vibrational temperatures:    225.43   273.71   297.27   304.18   318.82
          (Kelvin)            363.51   466.27   653.58   688.80   722.98
                              886.33   891.61   961.51   975.68  1080.28
                             1100.28  1133.82  1316.35  1378.61  1381.76
                             1424.05  1500.53  1508.76  1516.35  1556.32
                             1564.71  1613.21  1616.16  1616.52  1624.06
                             1669.91  1703.33  1827.11  1884.15  1950.30
                             1963.77  2094.59  2096.18  2132.16  2176.02
                             2259.67  4369.41  4379.60  4490.00  4494.48
                             4496.19  4499.30  4603.25  4622.98  5495.27
                             5496.22

 Zero-point correction=                           0.157811 (Hartree/Particle)
 Thermal correction to Energy=                    0.166397
 Thermal correction to Enthalpy=                  0.167341
 Thermal correction to Gibbs Free Energy=         0.125314
 Sum of electronic and zero-point Energies=           -422.954568
 Sum of electronic and thermal Energies=              -422.945981
 Sum of electronic and thermal Enthalpies=            -422.945037
 Sum of electronic and thermal Free Energies=         -422.987064

                     E (Thermal)             CV                S
                      KCal/Mol        Cal/Mol-Kelvin    Cal/Mol-Kelvin
 Total                  104.416             34.025             88.453
 Electronic               0.000              0.000              0.000
 Translational            0.889              2.981             40.409
 Rotational               0.889              2.981             28.511
 Vibrational            102.638             28.063             19.533
 Vibration     1          0.620              1.895              2.589
 Vibration     2          0.634              1.853              2.226
 Vibration     3          0.641              1.830              2.073
 Vibration     4          0.643              1.823              2.031
 Vibration     5          0.648              1.808              1.946
 Vibration     6          0.664              1.758              1.712
 Vibration     7          0.709              1.627              1.289
 Vibration     8          0.813              1.351              0.783
 Vibration     9          0.835              1.297              0.713
 Vibration    10          0.858              1.244              0.652
 Vibration    11          0.976              0.998              0.423
 Vibration    12          0.980              0.990              0.417

 Normal termination of Gaussian 09 at Mon Jan 27 17:50:46 2020.
