 Gaussian 09, Revision D.01,
 Gaussian 09:  ES64L-G09RevD.01 24-Apr-2013

 -----------------------------
 # b3lyp 6-31G(2df,p) opt Freq
 -----------------------------

 -----
 titel
 -----
 Symbolic Z-matrix:
 Charge =  0 Multiplicity = 1

 SCF Done:  E(RB3LYP) =  -423.214566014     A.U. after   14 cycles
 Optimization completed.
    -- Stationary point found.
 Normal termination of Gaussian 09 at Tue Jan 28 03:57:52 2020.

 ----------------------------------------------------------------------
 #N Geom=AllCheck Guess=TCheck SCRF=Check GenChk RB3LYP/6-31G(2df,p) Fr
 eq
 ----------------------------------------------------------------------

 Structure from the checkpoint file:  "/scratch/puck/g09_a1342180-7fc1-4a49-b64d-ef90199ecf69/Gau-32166.chk"
 -----
 titel
 -----
 Charge =  0 Multiplicity = 1

                         Standard orientation:
 ---------------------------------------------------------------------
 Center     Atomic      Atomic             Coordinates (Angstroms)
 Number     Number       Type             X           Y           Z
 ---------------------------------------------------------------------
      1          6           0       -2.927681   -0.665344    0.594887
      2          6           0       -1.881839   -0.181198   -0.411196
      3          8           0       -1.568409    1.196660   -0.168082
      4          6           0       -0.163012    1.377924   -0.039337
      5          6           0        0.425044   -0.013037   -0.107259
      6          6           0       -0.561034   -0.885199   -0.328642
      7          6           0        1.861298   -0.374148    0.029162
      8          6           0        2.835155    0.765493    0.262876
      9          8           0        2.231533   -1.528418   -0.043404
     10          1           0       -3.817465   -0.032842    0.536140
     11          1           0       -3.221799   -1.697333    0.378096
     12          1           0       -2.531951   -0.617680    1.613315
     13          1           0       -2.303393   -0.278191   -1.427205
     14          1           0        0.210768    2.027101   -0.848120
     15          1           0        0.055407    1.890632    0.909525
     16          1           0       -0.432617   -1.954452   -0.437357
     17          1           0        2.580778    1.303179    1.183893
     18          1           0        3.849687    0.373208    0.335588
     19          1           0        2.778003    1.493498   -0.554934
 ---------------------------------------------------------------------

 SCF Done:  E(RB3LYP) =  -423.214566014     A.U. after    1 cycles

 The electronic state is 1-A.
 Alpha  occ. eigenvalues --  -19.14076 -19.12672 -10.27359 -10.24479 -10.23997
 Alpha  occ. eigenvalues --  -10.20297 -10.19803 -10.19176 -10.18207  -1.04124
 Alpha  occ. eigenvalues --   -1.03595  -0.81005  -0.77991  -0.74255  -0.68214
 Alpha  occ. eigenvalues --   -0.62199  -0.58148  -0.53849  -0.49552  -0.48366
 Alpha  occ. eigenvalues --   -0.45252  -0.44807  -0.43704  -0.42895  -0.40369
 Alpha  occ. eigenvalues --   -0.39488  -0.38596  -0.38362  -0.36488  -0.35711
 Alpha  occ. eigenvalues --   -0.32905  -0.28256  -0.24916  -0.24310
 Alpha virt. eigenvalues --   -0.05516   0.06402   0.08349   0.09564   0.12350
 Alpha virt. eigenvalues --    0.13058   0.13776   0.14576   0.15283   0.16309
 Alpha virt. eigenvalues --    0.17229   0.17818   0.19898   0.21900   0.22002

 Mulliken charges:
               1
     1  C   -0.390006
     2  C    0.100778
     3  O   -0.283136
     4  C   -0.177559
     5  C    0.195789
     6  C   -0.182090
     7  C    0.296168
     8  C   -0.492195
     9  O   -0.306298
    10  H    0.131423
    11  H    0.117555
    12  H    0.123078
    13  H    0.090464
    14  H    0.106569
    15  H    0.109901
    16  H    0.133664
    17  H    0.141306
    18  H    0.143865
    19  H    0.140724
 Sum of Mulliken charges =   0.00000

 Dipole moment (field-independent basis, Debye):
    X=             -0.5901    Y=              1.1867    Z=              0.0668  Tot=              1.3270
 Quadrupole moment (field-independent basis, Debye-Ang):
   XX=            -54.2893   YY=            -56.4712   ZZ=            -52.2080
   XY=             10.1674   XZ=              0.8749   YZ=              0.6027

  Exact polarizability: 105.811   8.935  79.594   3.108   2.497  56.734
 Approx polarizability: 140.422   9.746 126.533   7.269   5.704  87.167

                      1                      2                      3
                      A                      A                      A
 Frequencies --     49.1868                88.3000               128.2444
 Red. masses --      3.5068                 2.6328                 3.5736
 Frc consts  --      0.0050                 0.0121                 0.0346
 IR Inten    --      5.3928                 0.3210                 3.1235

                      4                      5                      6
                      A                      A                      A
 Frequencies --    145.8886               170.0526               231.7358
 Red. masses --      1.0683                 3.2121                 1.1131
 Frc consts  --      0.0134                 0.0547                 0.0352
 IR Inten    --      0.2630                 4.7590                 0.5480

                      7                      8                      9
                      A                      A                      A
 Frequencies --    302.1467               366.8111               371.2215
 Red. masses --      3.1552                 2.9011                 3.6450
 Frc consts  --      0.1697                 0.2300                 0.2959
 IR Inten    --      0.6384                 1.2896                 4.3066

                     10                     11                     12
                      A                      A                      A
 Frequencies --    465.3258               511.1291               602.7057
 Red. masses --      4.5944                 2.5845                 2.2133
 Frc consts  --      0.5861                 0.3978                 0.4737
 IR Inten    --      2.2995                 0.3224                 4.2146

                     13                     14                     15
                      A                      A                      A
 Frequencies --    617.8914               729.7180               842.3835
 Red. masses --      3.6537                 3.5073                 3.5933
 Frc consts  --      0.8219                 1.1003                 1.5023
 IR Inten    --     29.4455                 3.3928                15.1336

                     16                     17                     18
                      A                      A                      A
 Frequencies --    873.3847               898.6280               914.3954
 Red. masses --      4.8628                 1.3425                 2.0024
 Frc consts  --      2.1855                 0.6388                 0.9864
 IR Inten    --     19.8250                 9.4380                 4.5510

                     19                     20                     21
                      A                      A                      A
 Frequencies --    978.0562              1003.9743              1025.6527
 Red. masses --      1.8105                 1.9197                 1.5746
 Frc consts  --      1.0204                 1.1400                 0.9760
 IR Inten    --      7.2552                 6.7848                 1.9360

                     22                     23                     24
                      A                      A                      A
 Frequencies --   1054.6663              1058.8993              1095.1629
 Red. masses --      2.8949                 2.1771                 1.8590
 Frc consts  --      1.8972                 1.4383                 1.3136
 IR Inten    --     32.4912                18.6001                 5.6172

                     25                     26                     27
                      A                      A                      A
 Frequencies --   1121.5139              1134.0616              1204.3550
 Red. masses --      2.7530                 2.3402                 1.0889
 Frc consts  --      2.0401                 1.7733                 0.9305
 IR Inten    --      3.4275                40.8246                 1.9719

                     28                     29                     30
                      A                      A                      A
 Frequencies --   1264.5726              1276.8270              1338.1435
 Red. masses --      2.2244                 1.9507                 1.7553
 Frc consts  --      2.0958                 1.8737                 1.8518
 IR Inten    --    124.8280                59.4009                 3.1412

                     31                     32                     33
                      A                      A                      A
 Frequencies --   1363.7864              1381.1204              1389.3534
 Red. masses --      1.4072                 1.3736                 1.4912
 Frc consts  --      1.5420                 1.5437                 1.6959
 IR Inten    --     23.7133                33.9175                19.9751

                     34                     35                     36
                      A                      A                      A
 Frequencies --   1399.6398              1461.8113              1475.1199
 Red. masses --      1.2612                 1.0570                 1.0480
 Frc consts  --      1.4557                 1.3307                 1.3436
 IR Inten    --      3.2932                12.3966                 9.0573

                     37                     38                     39
                      A                      A                      A
 Frequencies --   1485.0763              1494.8384              1523.0574
 Red. masses --      1.0552                 1.0504                 1.0841
 Frc consts  --      1.3711                 1.3829                 1.4816
 IR Inten    --      2.1866                 1.8770                 2.4047

                     40                     41                     42
                      A                      A                      A
 Frequencies --   1681.2666              1779.9944              2944.9507
 Red. masses --      8.2819                10.7675                 1.0809
 Frc consts  --     13.7928                20.1002                 5.5234
 IR Inten    --     97.8486               126.3156                57.2608

                     43                     44                     45
                      A                      A                      A
 Frequencies --   2966.7944              2995.5027              3031.9705
 Red. masses --      1.0660                 1.0953                 1.0379
 Frc consts  --      5.5284                 5.7906                 5.6214
 IR Inten    --     66.6295                40.8982                 3.6790

                     46                     47                     48
                      A                      A                      A
 Frequencies --   3040.6509              3090.6088              3116.1847
 Red. masses --      1.0342                 1.0981                 1.1015
 Frc consts  --      5.6338                 6.1799                 6.3018
 IR Inten    --     18.9591                 8.6513                18.8953

                     49                     50                     51
                      A                      A                      A
 Frequencies --   3125.4304              3155.6286              3228.4821
 Red. masses --      1.1031                 1.1009                 1.0948
 Frc consts  --      6.3487                 6.4589                 6.7235
 IR Inten    --     19.7921                 9.8063                 0.2241

 - Thermochemistry -
 -------------------
 Temperature   298.150 Kelvin.  Pressure   1.00000 Atm.
 Atom     1 has atomic number  6 and mass  12.00000

 Molecular mass:   126.06808 amu.
 Principal axes and moments of inertia in atomic units:
                           1         2         3
     Eigenvalues --   509.572971763.526652146.53876
           X            0.99869   0.05106  -0.00252
           Y           -0.05105   0.99869   0.00388
           Z            0.00272  -0.00374   0.99999
 This molecule is an asymmetric top.
 Rotational symmetry number  1.
 Warning -- assumption of classical behavior for rotation
           may cause significant error
 Rotational temperatures (Kelvin)      0.16997     0.04911     0.04035
 Rotational constants (GHZ):           3.54167     1.02337     0.84077
 Zero-point vibrational energy     412689.5 (Joules/Mol)
                                   98.63517 (Kcal/Mol)
 Warning -- explicit consideration of  13 degrees of freedom as
           vibrations may cause significant error
 Vibrational temperatures:     70.77   127.04   184.51   209.90   244.67
          (Kelvin)            333.42   434.72   527.76   534.10   669.50
                              735.40   867.16   889.01  1049.90  1212.00
                             1256.60  1292.92  1315.61  1407.20  1444.49
                             1475.68  1517.43  1523.52  1575.69  1613.61
                             1631.66  1732.80  1819.44  1837.07  1925.29
                             1962.18  1987.12  1998.97  2013.77  2103.22
                             2122.37  2136.69  2150.74  2191.34  2418.96
                             2561.01  4237.12  4268.55  4309.85  4362.32
                             4374.81  4446.69  4483.49  4496.79  4540.24
                             4645.06

 Zero-point correction=                           0.157185 (Hartree/Particle)
 Thermal correction to Energy=                    0.166626
 Thermal correction to Enthalpy=                  0.167570
 Thermal correction to Gibbs Free Energy=         0.122161
 Sum of electronic and zero-point Energies=           -423.057381
 Sum of electronic and thermal Energies=              -423.047940
 Sum of electronic and thermal Enthalpies=            -423.046996
 Sum of electronic and thermal Free Energies=         -423.092405

                     E (Thermal)             CV                S
                      KCal/Mol        Cal/Mol-Kelvin    Cal/Mol-Kelvin
 Total                  104.559             33.719             95.571
 Electronic               0.000              0.000              0.000
 Translational            0.889              2.981             40.409
 Rotational               0.889              2.981             29.046
 Vibrational            102.782             27.758             26.116
 Vibration     1          0.595              1.978              4.850
 Vibration     2          0.601              1.957              3.697
 Vibration     3          0.611              1.925              2.972
 Vibration     4          0.617              1.907              2.725
 Vibration     5          0.625              1.879              2.435
 Vibration     6          0.653              1.792              1.865
 Vibration     7          0.694              1.670              1.405
 Vibration     8          0.740              1.541              1.093
 Vibration     9          0.743              1.531              1.075
 Vibration    10          0.823              1.327              0.751
 Vibration    11          0.866              1.225              0.631
 Vibration    12          0.961              1.026              0.445
 Vibration    13          0.978              0.994              0.420

 Normal termination of Gaussian 09 at Tue Jan 28 04:39:08 2020.
