 Gaussian 09, Revision D.01,
 Gaussian 09:  ES64L-G09RevD.01 24-Apr-2013

 -----------------------------
 # b3lyp 6-31G(2df,p) opt Freq
 -----------------------------

 -----
 titel
 -----
 Symbolic Z-matrix:
 Charge =  0 Multiplicity = 1

 SCF Done:  E(RB3LYP) =  -423.105879123     A.U. after   13 cycles
 Optimization completed.
    -- Stationary point found.
 Normal termination of Gaussian 09 at Mon Jan 27 17:09:36 2020.

 ----------------------------------------------------------------------
 #N Geom=AllCheck Guess=TCheck SCRF=Check GenChk RB3LYP/6-31G(2df,p) Fr
 eq
 ----------------------------------------------------------------------

 Structure from the checkpoint file:  "/scratch/puck/g09_30b2ab59-ffb1-413f-8cc9-d67f3f009d41/Gau-62604.chk"
 -----
 titel
 -----
 Charge =  0 Multiplicity = 1

                         Standard orientation:
 ---------------------------------------------------------------------
 Center     Atomic      Atomic             Coordinates (Angstroms)
 Number     Number       Type             X           Y           Z
 ---------------------------------------------------------------------
      1          8           0       -1.434532    1.848179   -0.058519
      2          6           0       -1.171668    0.493074   -0.012847
      3          6           0       -1.918335   -0.540481   -0.885204
      4          6           0       -0.894651   -1.352449   -0.036445
      5          6           0       -1.341894   -0.498202    1.185089
      6          6           0        0.158230   -0.255588   -0.398685
      7          6           0        1.419161   -0.083978    0.396077
      8          6           0        2.526974    0.740533   -0.112749
      9          8           0        2.596148   -0.681864   -0.168423
     10          1           0       -0.880700    2.292013    0.592661
     11          1           0       -2.974271   -0.695187   -0.651411
     12          1           0       -1.738663   -0.493651   -1.962054
     13          1           0       -0.737402   -2.427602   -0.056795
     14          1           0       -2.366685   -0.655508    1.530847
     15          1           0       -0.654828   -0.412745    2.028916
     16          1           0        0.402300   -0.206855   -1.465282
     17          1           0        1.355860   -0.209446    1.476274
     18          1           0        2.421330    1.242031   -1.074457
     19          1           0        3.213224    1.218970    0.585422
 ---------------------------------------------------------------------

 SCF Done:  E(RB3LYP) =  -423.105879123     A.U. after    1 cycles

 The electronic state is 1-A.
 Alpha  occ. eigenvalues --  -19.15070 -19.14938 -10.25371 -10.23783 -10.23400
 Alpha  occ. eigenvalues --  -10.20596 -10.19483 -10.18890 -10.18803  -1.06894
 Alpha  occ. eigenvalues --   -1.03757  -0.91135  -0.71892  -0.67512  -0.65868
 Alpha  occ. eigenvalues --   -0.62262  -0.60539  -0.54735  -0.53851  -0.49924
 Alpha  occ. eigenvalues --   -0.47560  -0.45190  -0.43062  -0.40972  -0.39774
 Alpha  occ. eigenvalues --   -0.37972  -0.35850  -0.34343  -0.33423  -0.32404
 Alpha  occ. eigenvalues --   -0.31349  -0.29077  -0.27107  -0.25640
 Alpha virt. eigenvalues --    0.06618   0.09393   0.10179   0.11311   0.12028
 Alpha virt. eigenvalues --    0.12718   0.13917   0.14916   0.15154   0.15788
 Alpha virt. eigenvalues --    0.16626   0.18185   0.19285   0.21122   0.21940

 Mulliken charges:
               1
     1  O   -0.466719
     2  C    0.378337
     3  C   -0.255625
     4  C   -0.071744
     5  C   -0.300944
     6  C   -0.030888
     7  C    0.025584
     8  C   -0.186867
     9  O   -0.235250
    10  H    0.284081
    11  H    0.095176
    12  H    0.096329
    13  H    0.089180
    14  H    0.096109
    15  H    0.091876
    16  H    0.073059
    17  H    0.092029
    18  H    0.114065
    19  H    0.112212
 Sum of Mulliken charges =   0.00000

 Dipole moment (field-independent basis, Debye):
    X=             -0.2417    Y=              0.9940    Z=              1.2662  Tot=              1.6278
 Quadrupole moment (field-independent basis, Debye-Ang):
   XX=            -58.5207   YY=            -53.1447   ZZ=            -51.2189
   XY=              7.5228   XZ=              0.3361   YZ=              2.0303

  Exact polarizability:  88.028   7.534  70.197  -0.070  -0.332  70.301
 Approx polarizability: 116.747   4.558 109.881  -1.789  -0.463 107.068

                      1                      2                      3
                      A                      A                      A
 Frequencies --     49.8163               136.5690               210.9562
 Red. masses --      3.8717                 3.6814                 2.3113
 Frc consts  --      0.0057                 0.0405                 0.0606
 IR Inten    --      2.4551                 3.4664                14.0359

                      4                      5                      6
                      A                      A                      A
 Frequencies --    244.8651               306.7991               356.9100
 Red. masses --      1.3042                 4.7685                 3.2299
 Frc consts  --      0.0461                 0.2644                 0.2424
 IR Inten    --     75.0957                12.7317                 4.4566

                      7                      8                      9
                      A                      A                      A
 Frequencies --    378.0828               496.9024               531.8265
 Red. masses --      3.8581                 3.1546                 2.6474
 Frc consts  --      0.3249                 0.4589                 0.4412
 IR Inten    --     10.6768                 7.8368                 6.3950

                     10                     11                     12
                      A                      A                      A
 Frequencies --    591.7884               656.4813               766.0747
 Red. masses --      2.0246                 4.2194                 2.9794
 Frc consts  --      0.4178                 1.0714                 1.0302
 IR Inten    --      2.9934                 9.1918                 1.3337

                     13                     14                     15
                      A                      A                      A
 Frequencies --    805.6732               849.2923               860.4172
 Red. masses --      3.3018                 3.4424                 2.3961
 Frc consts  --      1.2628                 1.4629                 1.0451
 IR Inten    --      0.4018                17.8669                11.7996

                     16                     17                     18
                      A                      A                      A
 Frequencies --    907.0989               932.9064               949.2716
 Red. masses --      2.6995                 2.6090                 1.6193
 Frc consts  --      1.3087                 1.3378                 0.8597
 IR Inten    --      7.4914                13.0812                 5.4076

                     19                     20                     21
                      A                      A                      A
 Frequencies --    955.9398              1000.1278              1022.1269
 Red. masses --      2.0524                 1.4381                 1.4362
 Frc consts  --      1.1050                 0.8475                 0.8841
 IR Inten    --      0.2302                 4.8434                 0.4338

                     22                     23                     24
                      A                      A                      A
 Frequencies --   1036.5542              1086.8705              1104.8651
 Red. masses --      1.4939                 1.3504                 1.4144
 Frc consts  --      0.9457                 0.9399                 1.0173
 IR Inten    --     25.4540                 3.5750                 1.6925

                     25                     26                     27
                      A                      A                      A
 Frequencies --   1111.3666              1129.5216              1153.9686
 Red. masses --      1.4062                 1.4188                 1.5003
 Frc consts  --      1.0233                 1.0665                 1.1771
 IR Inten    --      6.5691                 1.0660                 2.9628

                     28                     29                     30
                      A                      A                      A
 Frequencies --   1161.2391              1165.3575              1187.6266
 Red. masses --      1.5635                 1.4267                 2.0307
 Frc consts  --      1.2422                 1.1415                 1.6875
 IR Inten    --      1.5500                 2.1901                 2.0173

                     31                     32                     33
                      A                      A                      A
 Frequencies --   1198.0836              1219.5312              1229.0943
 Red. masses --      1.6911                 1.7813                 1.8256
 Frc consts  --      1.4302                 1.5609                 1.6249
 IR Inten    --      9.2462                 0.0573                 1.3455

                     34                     35                     36
                      A                      A                      A
 Frequencies --   1281.8790              1297.3858              1341.1928
 Red. masses --      2.1310                 1.6453                 1.5787
 Frc consts  --      2.0632                 1.6316                 1.6731
 IR Inten    --    248.1176                 2.0833                30.3357

                     37                     38                     39
                      A                      A                      A
 Frequencies --   1369.8373              1466.2525              1503.8732
 Red. masses --      2.1108                 1.5399                 1.1069
 Frc consts  --      2.3336                 1.9506                 1.4749
 IR Inten    --      8.7235                 6.6213                 1.4759

                     40                     41                     42
                      A                      A                      A
 Frequencies --   1528.7217              1548.6714              3053.0208
 Red. masses --      1.3450                 1.2071                 1.0794
 Frc consts  --      1.8520                 1.7058                 5.9275
 IR Inten    --      3.2641                10.1413                18.8985

                     43                     44                     45
                      A                      A                      A
 Frequencies --   3058.4241              3065.6572              3077.0304
 Red. masses --      1.0569                 1.0577                 1.0500
 Frc consts  --      5.8246                 5.8567                 5.8574
 IR Inten    --     56.8721                13.4202                30.6329

                     46                     47                     48
                      A                      A                      A
 Frequencies --   3112.6949              3127.2529              3130.4425
 Red. masses --      1.0941                 1.1101                 1.1041
 Frc consts  --      6.2455                 6.3963                 6.3750
 IR Inten    --     16.6556                40.5439                39.8297

                     49                     50                     51
                      A                      A                      A
 Frequencies --   3154.3402              3163.1060              3811.1086
 Red. masses --      1.0934                 1.1189                 1.0657
 Frc consts  --      6.4096                 6.5956                 9.1202
 IR Inten    --     26.7160                32.7183                23.8050

 - Thermochemistry -
 -------------------
 Temperature   298.150 Kelvin.  Pressure   1.00000 Atm.
 Atom     1 has atomic number  8 and mass  15.99491

 Molecular mass:   126.06808 amu.
 Principal axes and moments of inertia in atomic units:
                           1         2         3
     Eigenvalues --   585.191651498.287561742.38901
           X            0.99908   0.04293   0.00204
           Y           -0.04295   0.99905   0.00677
           Z           -0.00175  -0.00685   0.99997
 This molecule is an asymmetric top.
 Rotational symmetry number  1.
 Warning -- assumption of classical behavior for rotation
           may cause significant error
 Rotational temperatures (Kelvin)      0.14801     0.05781     0.04971
 Rotational constants (GHZ):           3.08402     1.20454     1.03579
 Zero-point vibrational energy     418004.5 (Joules/Mol)
                                   99.90547 (Kcal/Mol)
 Warning -- explicit consideration of  10 degrees of freedom as
           vibrations may cause significant error
 Vibrational temperatures:     71.67   196.49   303.52   352.31   441.41
          (Kelvin)            513.51   543.98   714.93   765.18   851.45
                              944.53  1102.21  1159.18  1221.94  1237.95
                             1305.11  1342.24  1365.79  1375.38  1438.96
                             1470.61  1491.37  1563.76  1589.65  1599.01
                             1625.13  1660.30  1670.76  1676.69  1708.73
                             1723.77  1754.63  1768.39  1844.34  1866.65
                             1929.67  1970.89  2109.61  2163.74  2199.49
                             2228.19  4392.61  4400.38  4410.79  4427.15
                             4478.47  4499.41  4504.00  4538.39  4551.00
                             5483.33

 Zero-point correction=                           0.159210 (Hartree/Particle)
 Thermal correction to Energy=                    0.167268
 Thermal correction to Enthalpy=                  0.168212
 Thermal correction to Gibbs Free Energy=         0.126139
 Sum of electronic and zero-point Energies=           -422.946670
 Sum of electronic and thermal Energies=              -422.938611
 Sum of electronic and thermal Enthalpies=            -422.937667
 Sum of electronic and thermal Free Energies=         -422.979740

                     E (Thermal)             CV                S
                      KCal/Mol        Cal/Mol-Kelvin    Cal/Mol-Kelvin
 Total                  104.962             31.382             88.550
 Electronic               0.000              0.000              0.000
 Translational            0.889              2.981             40.409
 Rotational               0.889              2.981             28.815
 Vibrational            103.185             25.421             19.327
 Vibration     1          0.595              1.978              4.825
 Vibration     2          0.614              1.917              2.851
 Vibration     3          0.643              1.824              2.035
 Vibration     4          0.660              1.771              1.767
 Vibration     5          0.697              1.661              1.380
 Vibration     6          0.732              1.561              1.136
 Vibration     7          0.748              1.517              1.047
 Vibration     8          0.852              1.257              0.666
 Vibration     9          0.887              1.180              0.583
 Vibration    10          0.949              1.049              0.464

 Optimization completed.
    -- Stationary point found.
 Normal termination of Gaussian 09 at Mon Jan 27 17:49:29 2020.
