 Gaussian 09, Revision D.01,
 Gaussian 09:  ES64L-G09RevD.01 24-Apr-2013

 -----------------------------
 # b3lyp 6-31G(2df,p) opt Freq
 -----------------------------

 -----
 titel
 -----
 Symbolic Z-matrix:
 Charge =  0 Multiplicity = 1

 SCF Done:  E(RB3LYP) =  -423.147837099     A.U. after   13 cycles
 Optimization completed.
    -- Stationary point found.
 Normal termination of Gaussian 09 at Mon Jan 27 18:06:18 2020.

 ----------------------------------------------------------------------
 #N Geom=AllCheck Guess=TCheck SCRF=Check GenChk RB3LYP/6-31G(2df,p) Fr
 eq
 ----------------------------------------------------------------------

 Structure from the checkpoint file:  "/scratch/puck/g09_5ea1a0c1-54a9-4761-a899-18cfe52a7005/Gau-89133.chk"
 -----
 titel
 -----
 Charge =  0 Multiplicity = 1

                         Standard orientation:
 ---------------------------------------------------------------------
 Center     Atomic      Atomic             Coordinates (Angstroms)
 Number     Number       Type             X           Y           Z
 ---------------------------------------------------------------------
      1          6           0       -2.383160    0.348665    0.288476
      2          6           0       -0.896046    0.178057    0.076527
      3          6           0       -0.110298    1.491127    0.121909
      4          8           0        1.194311    1.345470   -0.395329
      5          6           0        1.964112    0.298159    0.166319
      6          6           0        1.205931   -0.998002    0.384945
      7          6           0        0.086895   -1.529560   -0.479517
      8          8           0       -0.612941   -0.512804   -1.188407
      9          6           0       -0.220649   -0.953713    0.877311
     10          1           0       -2.813071    0.962095   -0.509506
     11          1           0       -2.883633   -0.623502    0.284229
     12          1           0       -2.583917    0.837742    1.248416
     13          1           0       -0.588812    2.248992   -0.506902
     14          1           0       -0.102100    1.861859    1.162398
     15          1           0        2.802637    0.152698   -0.523041
     16          1           0        2.383577    0.612198    1.139309
     17          1           0        1.805931   -1.784291    0.838918
     18          1           0        0.041472   -2.539575   -0.870710
     19          1           0       -0.593742   -1.397948    1.790944
 ---------------------------------------------------------------------

 SCF Done:  E(RB3LYP) =  -423.147837099     A.U. after    1 cycles

 The electronic state is 1-A.
 Alpha  occ. eigenvalues --  -19.13480 -19.13215 -10.24186 -10.23958 -10.22876
 Alpha  occ. eigenvalues --  -10.22463 -10.19611 -10.19190 -10.18179  -1.05638
 Alpha  occ. eigenvalues --   -1.02072  -0.83968  -0.78031  -0.71698  -0.66331
 Alpha  occ. eigenvalues --   -0.63111  -0.56610  -0.53671  -0.51069  -0.48240
 Alpha  occ. eigenvalues --   -0.47958  -0.46125  -0.44213  -0.41518  -0.40191
 Alpha  occ. eigenvalues --   -0.38978  -0.37704  -0.37078  -0.34380  -0.33656
 Alpha  occ. eigenvalues --   -0.29653  -0.27047  -0.24889  -0.22624
 Alpha virt. eigenvalues --    0.08335   0.09331   0.10375   0.11453   0.12283
 Alpha virt. eigenvalues --    0.13587   0.15159   0.15517   0.15947   0.16832
 Alpha virt. eigenvalues --    0.17344   0.17784   0.18329   0.21615   0.22946

 Mulliken charges:
               1
     1  C   -0.461686
     2  C    0.385783
     3  C   -0.109921
     4  O   -0.241799
     5  C   -0.094941
     6  C   -0.090326
     7  C    0.088778
     8  O   -0.319588
     9  C   -0.209231
    10  H    0.129673
    11  H    0.127305
    12  H    0.117486
    13  H    0.109557
    14  H    0.084733
    15  H    0.113057
    16  H    0.085254
    17  H    0.092186
    18  H    0.103161
    19  H    0.090517
 Sum of Mulliken charges =   0.00000

 Dipole moment (field-independent basis, Debye):
    X=             -0.3679    Y=             -1.0940    Z=              2.2655  Tot=              2.5426
 Quadrupole moment (field-independent basis, Debye-Ang):
   XX=            -50.9578   YY=            -51.2179   ZZ=            -55.3052
   XY=             -3.6742   XZ=             -0.1987   YZ=              0.3732

  Exact polarizability:  83.756  -4.969  74.655   0.287   1.374  64.321
 Approx polarizability: 111.899  -6.461 105.799   0.319   2.299 106.994

                      1                      2                      3
                      A                      A                      A
 Frequencies --    174.3461               214.9646               244.1485
 Red. masses --      2.1876                 1.1081                 2.8942
 Frc consts  --      0.0392                 0.0302                 0.1016
 IR Inten    --      1.1186                 0.3952                 3.1324

                      4                      5                      6
                      A                      A                      A
 Frequencies --    273.8889               341.2699               377.9523
 Red. masses --      2.8806                 2.6622                 2.5213
 Frc consts  --      0.1273                 0.1827                 0.2122
 IR Inten    --      0.4329                 1.4957                 3.8267

                      7                      8                      9
                      A                      A                      A
 Frequencies --    403.1256               485.5936               582.6493
 Red. masses --      3.5792                 4.9156                 4.3437
 Frc consts  --      0.3427                 0.6829                 0.8688
 IR Inten    --      0.8430                 1.5750                 7.1064

                     10                     11                     12
                      A                      A                      A
 Frequencies --    673.5171               724.3153               775.1732
 Red. masses --      4.5818                 2.3001                 2.4223
 Frc consts  --      1.2246                 0.7110                 0.8576
 IR Inten    --      8.7995                 4.7339                10.1109

                     13                     14                     15
                      A                      A                      A
 Frequencies --    813.2827               838.4853               857.9798
 Red. masses --      3.0503                 3.1476                 1.8530
 Frc consts  --      1.1887                 1.3038                 0.8037
 IR Inten    --     20.3507                23.3517                 4.9458

                     16                     17                     18
                      A                      A                      A
 Frequencies --    893.8093               915.5976               976.4069
 Red. masses --      2.6771                 1.7624                 2.0131
 Frc consts  --      1.2601                 0.8705                 1.1308
 IR Inten    --      1.4568                 3.3680                12.1076

                     19                     20                     21
                      A                      A                      A
 Frequencies --    989.4565              1018.2784              1032.3123
 Red. masses --      1.5737                 2.0838                 1.9076
 Frc consts  --      0.9077                 1.2731                 1.1977
 IR Inten    --     12.0439                 4.2300                10.6157

                     22                     23                     24
                      A                      A                      A
 Frequencies --   1055.0111              1067.8273              1095.0050
 Red. masses --      1.5210                 3.6025                 2.0875
 Frc consts  --      0.9975                 2.4202                 1.4747
 IR Inten    --      7.7826                12.9120                46.8287

                     25                     26                     27
                      A                      A                      A
 Frequencies --   1118.3391              1151.2951              1173.4974
 Red. masses --      1.7941                 2.1119                 3.3865
 Frc consts  --      1.3221                 1.6493                 2.7477
 IR Inten    --     18.9125                 1.3130                78.7960

                     28                     29                     30
                      A                      A                      A
 Frequencies --   1209.0144              1238.5139              1266.3116
 Red. masses --      2.1083                 2.1876                 1.3150
 Frc consts  --      1.8157                 1.9770                 1.2424
 IR Inten    --      8.7435                 9.5261                 9.8750

                     31                     32                     33
                      A                      A                      A
 Frequencies --   1298.5385              1317.4056              1333.8149
 Red. masses --      1.6696                 1.6345                 1.4110
 Frc consts  --      1.6587                 1.6714                 1.4790
 IR Inten    --     17.4011                 1.6431                11.5206

                     34                     35                     36
                      A                      A                      A
 Frequencies --   1387.1634              1407.4325              1419.0142
 Red. masses --      1.4927                 1.3061                 1.8071
 Frc consts  --      1.6923                 1.5244                 2.1439
 IR Inten    --      3.7737                 7.5865                 8.1641

                     37                     38                     39
                      A                      A                      A
 Frequencies --   1443.2926              1481.3844              1486.8490
 Red. masses --      1.8424                 1.0865                 1.0741
 Frc consts  --      2.2612                 1.4048                 1.3991
 IR Inten    --      5.6869                 1.3331                 2.7784

                     40                     41                     42
                      A                      A                      A
 Frequencies --   1491.6245              1501.2602              2938.7618
 Red. masses --      1.0501                 1.0917                 1.0720
 Frc consts  --      1.3766                 1.4497                 5.4550
 IR Inten    --      3.9134                 1.1336                73.8058

                     43                     44                     45
                      A                      A                      A
 Frequencies --   2953.1464              3034.0685              3064.1978
 Red. masses --      1.0702                 1.0357                 1.0891
 Frc consts  --      5.4991                 5.6172                 6.0247
 IR Inten    --     66.9420                18.4510                36.7043

                     46                     47                     48
                      A                      A                      A
 Frequencies --   3073.6540              3104.5927              3118.2614
 Red. masses --      1.0917                 1.0999                 1.1021
 Frc consts  --      6.0767                 6.2464                 6.3137
 IR Inten    --     24.8221                17.5743                16.5155

                     49                     50                     51
                      A                      A                      A
 Frequencies --   3136.1856              3176.0346              3194.2548
 Red. masses --      1.0866                 1.0897                 1.0986
 Frc consts  --      6.2968                 6.4764                 6.6042
 IR Inten    --     12.2038                26.0319                14.0899

 - Thermochemistry -
 -------------------
 Temperature   298.150 Kelvin.  Pressure   1.00000 Atm.
 Atom     1 has atomic number  6 and mass  12.00000

 Molecular mass:   126.06808 amu.
 Principal axes and moments of inertia in atomic units:
                           1         2         3
     Eigenvalues --   664.84832 936.854191243.64195
           X            0.99769  -0.06779  -0.00529
           Y            0.06780   0.99769   0.00310
           Z            0.00507  -0.00345   0.99998
 This molecule is an asymmetric top.
 Rotational symmetry number  1.
 Warning -- assumption of classical behavior for rotation
           may cause significant error
 Rotational temperatures (Kelvin)      0.13028     0.09245     0.06965
 Rotational constants (GHZ):           2.71452     1.92638     1.45117
 Zero-point vibrational energy     420740.4 (Joules/Mol)
                                  100.55937 (Kcal/Mol)
 Warning -- explicit consideration of   9 degrees of freedom as
           vibrations may cause significant error
 Vibrational temperatures:    250.84   309.29   351.27   394.06   491.01
          (Kelvin)            543.79   580.01   698.66   838.30   969.04
                             1042.13  1115.30  1170.13  1206.39  1234.44
                             1285.99  1317.34  1404.83  1423.61  1465.07
                             1485.27  1517.92  1536.36  1575.47  1609.04
                             1656.45  1688.40  1739.50  1781.94  1821.94
                             1868.30  1895.45  1919.06  1995.82  2024.98
                             2041.64  2076.57  2131.38  2139.24  2146.11
                             2159.98  4228.22  4248.91  4365.34  4408.69
                             4422.30  4466.81  4486.48  4512.27  4569.60
                             4595.81

 Zero-point correction=                           0.160252 (Hartree/Particle)
 Thermal correction to Energy=                    0.167626
 Thermal correction to Enthalpy=                  0.168570
 Thermal correction to Gibbs Free Energy=         0.128965
 Sum of electronic and zero-point Energies=           -422.987586
 Sum of electronic and thermal Energies=              -422.980212
 Sum of electronic and thermal Enthalpies=            -422.979267
 Sum of electronic and thermal Free Energies=         -423.018873

                     E (Thermal)             CV                S
                      KCal/Mol        Cal/Mol-Kelvin    Cal/Mol-Kelvin
 Total                  105.187             30.011             83.356
 Electronic               0.000              0.000              0.000
 Translational            0.889              2.981             40.409
 Rotational               0.889              2.981             28.140
 Vibrational            103.409             24.049             14.808
 Vibration     1          0.627              1.874              2.388
 Vibration     2          0.645              1.818              2.001
 Vibration     3          0.659              1.772              1.772
 Vibration     4          0.676              1.722              1.572
 Vibration     5          0.721              1.593              1.206
 Vibration     6          0.748              1.517              1.047
 Vibration     7          0.769              1.463              0.951
 Vibration     8          0.842              1.282              0.695
 Vibration     9          0.939              1.069              0.480

 Normal termination of Gaussian 09 at Mon Jan 27 18:53:18 2020.
