 Gaussian 09, Revision D.01,
 Gaussian 09:  ES64L-G09RevD.01 24-Apr-2013

 -----------------------------
 # b3lyp 6-31G(2df,p) opt Freq
 -----------------------------

 -----
 titel
 -----
 Symbolic Z-matrix:
 Charge =  0 Multiplicity = 1

 SCF Done:  E(RB3LYP) =  -423.113223604     A.U. after   12 cycles
 Optimization completed.
    -- Stationary point found.
 Normal termination of Gaussian 09 at Mon Jan 27 22:52:01 2020.

 ----------------------------------------------------------------------
 #N Geom=AllCheck Guess=TCheck SCRF=Check GenChk RB3LYP/6-31G(2df,p) Fr
 eq
 ----------------------------------------------------------------------

 Structure from the checkpoint file:  "/scratch/puck/g09_226aff13-4a51-4ace-ab8f-505d3acdb99a/Gau-101185.chk"
 -----
 titel
 -----
 Charge =  0 Multiplicity = 1

                         Standard orientation:
 ---------------------------------------------------------------------
 Center     Atomic      Atomic             Coordinates (Angstroms)
 Number     Number       Type             X           Y           Z
 ---------------------------------------------------------------------
      1          8           0       -3.215998   -0.746067   -0.004453
      2          6           0       -2.056370   -0.117017    0.455380
      3          6           0       -1.334943    0.779743   -0.511171
      4          8           0       -0.219125    1.403911    0.120445
      5          6           0        0.407887    0.092402    0.341054
      6          6           0        1.685465   -0.048185   -0.427422
      7          6           0        2.983941    0.400275    0.192619
      8          6           0        2.706185   -1.069592    0.018311
      9          6           0       -0.813423   -0.614450   -0.243883
     10          1           0       -3.930797   -0.100661    0.014500
     11          1           0       -2.024104    0.121105    1.521377
     12          1           0       -1.783621    1.249407   -1.379838
     13          1           0        0.587956   -0.072683    1.412638
     14          1           0        1.576092    0.100361   -1.497748
     15          1           0        3.719436    0.868198   -0.451604
     16          1           0        2.948852    0.808822    1.197086
     17          1           0        3.247796   -1.614565   -0.746357
     18          1           0        2.486224   -1.654069    0.905941
     19          1           0       -0.819308   -1.507731   -0.853268
 ---------------------------------------------------------------------

 SCF Done:  E(RB3LYP) =  -423.113223604     A.U. after    1 cycles

 The electronic state is 1-A.
 Alpha  occ. eigenvalues --  -19.14905 -19.13428 -10.23939 -10.23617 -10.23398
 Alpha  occ. eigenvalues --  -10.19108 -10.19039 -10.18864 -10.18633  -1.05220
 Alpha  occ. eigenvalues --   -1.02764  -0.85931  -0.81816  -0.70916  -0.60582
 Alpha  occ. eigenvalues --   -0.59973  -0.58889  -0.55380  -0.53153  -0.49179
 Alpha  occ. eigenvalues --   -0.48681  -0.46359  -0.46023  -0.42646  -0.39489
 Alpha  occ. eigenvalues --   -0.36815  -0.36591  -0.33718  -0.33227  -0.30474
 Alpha  occ. eigenvalues --   -0.29479  -0.28480  -0.26669  -0.22468
 Alpha virt. eigenvalues --    0.06862   0.08569   0.09959   0.10169   0.12847
 Alpha virt. eigenvalues --    0.13363   0.13828   0.14645   0.15268   0.16484
 Alpha virt. eigenvalues --    0.17857   0.18656   0.20486   0.22399   0.23419

 Mulliken charges:
               1
     1  O   -0.424934
     2  C    0.042969
     3  C    0.043296
     4  O   -0.303892
     5  C    0.100943
     6  C    0.027167
     7  C   -0.271741
     8  C   -0.275181
     9  C   -0.156593
    10  H    0.291749
    11  H    0.089488
    12  H    0.103127
    13  H    0.074908
    14  H    0.087120
    15  H    0.115629
    16  H    0.117344
    17  H    0.115257
    18  H    0.114337
    19  H    0.109008
 Sum of Mulliken charges =   0.00000

 Dipole moment (field-independent basis, Debye):
    X=             -0.1830    Y=             -0.2108    Z=             -0.2676  Tot=              0.3867
 Quadrupole moment (field-independent basis, Debye-Ang):
   XX=            -46.8212   YY=            -57.4211   ZZ=            -50.7790
   XY=             -5.2302   XZ=             -0.5199   YZ=             -0.6504

  Exact polarizability:  97.240  -2.229  67.086   1.408  -0.633  64.412
 Approx polarizability: 118.363  -2.562 107.548   3.268  -1.204  98.445

                      1                      2                      3
                      A                      A                      A
 Frequencies --     75.4753               116.3999               154.7607
 Red. masses --      3.4357                 3.2885                 2.6140
 Frc consts  --      0.0115                 0.0263                 0.0369
 IR Inten    --      0.1801                 0.4123                 1.6458

                      4                      5                      6
                      A                      A                      A
 Frequencies --    282.4250               291.0976               315.7712
 Red. masses --      2.8365                 3.9096                 2.5088
 Frc consts  --      0.1333                 0.1952                 0.1474
 IR Inten    --      7.7774                 4.7845                46.3324

                      7                      8                      9
                      A                      A                      A
 Frequencies --    336.0017               388.9218               480.5259
 Red. masses --      1.6067                 2.7778                 3.2632
 Frc consts  --      0.1069                 0.2476                 0.4439
 IR Inten    --     61.9572                 2.8291                11.0864

                     10                     11                     12
                      A                      A                      A
 Frequencies --    512.0220               771.6150               809.3431
 Red. masses --      6.3638                 1.0815                 1.4680
 Frc consts  --      0.9830                 0.3794                 0.5666
 IR Inten    --      0.9098                 0.5682                12.2840

                     13                     14                     15
                      A                      A                      A
 Frequencies --    827.4259               843.8873               875.5730
 Red. masses --      1.5284                 2.8178                 1.9497
 Frc consts  --      0.6165                 1.1823                 0.8806
 IR Inten    --      3.9041                11.1145                 2.8498

                     16                     17                     18
                      A                      A                      A
 Frequencies --    917.6873               924.4213               930.8883
 Red. masses --      3.3162                 3.0043                 3.9616
 Frc consts  --      1.6454                 1.5126                 2.0226
 IR Inten    --     27.2399                15.9327                 4.8656

                     19                     20                     21
                      A                      A                      A
 Frequencies --    950.3160               958.9371              1013.3107
 Red. masses --      2.6902                 2.6883                 2.0423
 Frc consts  --      1.4314                 1.4565                 1.2355
 IR Inten    --      4.8288                16.5515                93.3477

                     22                     23                     24
                      A                      A                      A
 Frequencies --   1041.7131              1052.0695              1062.6515
 Red. masses --      1.5500                 1.6812                 1.4002
 Frc consts  --      0.9910                 1.0964                 0.9316
 IR Inten    --     12.6912                 1.6455                10.6980

                     25                     26                     27
                      A                      A                      A
 Frequencies --   1080.0375              1089.5954              1135.2108
 Red. masses --      1.3604                 1.5842                 1.1380
 Frc consts  --      0.9349                 1.1081                 0.8641
 IR Inten    --      2.4521                57.2606                 2.3122

                     28                     29                     30
                      A                      A                      A
 Frequencies --   1139.1598              1186.9828              1195.5703
 Red. masses --      2.6292                 1.7187                 2.4321
 Frc consts  --      2.0102                 1.4267                 2.0483
 IR Inten    --     41.1078                10.1886                 0.6543

                     31                     32                     33
                      A                      A                      A
 Frequencies --   1196.1003              1219.3046              1223.3912
 Red. masses --      1.4209                 1.7497                 1.7567
 Frc consts  --      1.1977                 1.5326                 1.5491
 IR Inten    --      1.0844                 7.3334                 1.5843

                     34                     35                     36
                      A                      A                      A
 Frequencies --   1274.0553              1293.2098              1305.0391
 Red. masses --      1.3420                 1.5161                 1.4753
 Frc consts  --      1.2835                 1.4939                 1.4803
 IR Inten    --      6.9091                53.2871                14.7452

                     37                     38                     39
                      A                      A                      A
 Frequencies --   1326.7435              1435.2881              1441.3420
 Red. masses --      1.4270                 2.1391                 1.7369
 Frc consts  --      1.4800                 2.5964                 2.1259
 IR Inten    --     18.1748                 3.5007                24.5113

                     40                     41                     42
                      A                      A                      A
 Frequencies --   1470.2318              1506.2587              3007.6791
 Red. masses --      1.0871                 1.4122                 1.0842
 Frc consts  --      1.3845                 1.8878                 5.7784
 IR Inten    --      1.4117                 0.9923                41.9554

                     43                     44                     45
                      A                      A                      A
 Frequencies --   3069.5441              3132.3108              3136.9960
 Red. masses --      1.0877                 1.0513                 1.0579
 Frc consts  --      6.0383                 6.0773                 6.1337
 IR Inten    --     38.8475                17.4045                13.2433

                     46                     47                     48
                      A                      A                      A
 Frequencies --   3152.3227              3171.0160              3210.9470
 Red. masses --      1.0892                 1.0919                 1.1174
 Frc consts  --      6.3772                 6.4688                 6.7878
 IR Inten    --      7.3867                25.1856                 0.6720

                     49                     50                     51
                      A                      A                      A
 Frequencies --   3211.6950              3226.0337              3802.1145
 Red. masses --      1.0959                 1.1152                 1.0662
 Frc consts  --      6.6605                 6.8384                 9.0814
 IR Inten    --      3.6958                17.8866                26.7268

 - Thermochemistry -
 -------------------
 Temperature   298.150 Kelvin.  Pressure   1.00000 Atm.
 Atom     1 has atomic number  8 and mass  15.99491

 Molecular mass:   126.06808 amu.
 Principal axes and moments of inertia in atomic units:
                           1         2         3
     Eigenvalues --   363.330812020.324662220.08513
           X            0.99995  -0.00971   0.00038
           Y            0.00971   0.99994  -0.00403
           Z           -0.00034   0.00404   0.99999
 This molecule is an asymmetric top.
 Rotational symmetry number  1.
 Rotational temperatures (Kelvin)      0.23839     0.04287     0.03901
 Rotational constants (GHZ):           4.96721     0.89329     0.81292
 Zero-point vibrational energy     416129.5 (Joules/Mol)
                                   99.45734 (Kcal/Mol)
 Warning -- explicit consideration of  10 degrees of freedom as
           vibrations may cause significant error
 Vibrational temperatures:    108.59   167.47   222.67   406.35   418.82
          (Kelvin)            454.32   483.43   559.57   691.37   736.68
                             1110.18  1164.46  1190.48  1214.16  1259.75
                             1320.35  1330.03  1339.34  1367.29  1379.69
                             1457.93  1498.79  1513.69  1528.92  1553.93
                             1567.68  1633.31  1638.99  1707.80  1720.16
                             1720.92  1754.31  1760.18  1833.08  1860.64
                             1877.66  1908.89  2065.06  2073.77  2115.33
                             2167.17  4327.37  4416.38  4506.69  4513.43
                             4535.48  4562.38  4619.83  4620.91  4641.54
                             5470.39

 Zero-point correction=                           0.158495 (Hartree/Particle)
 Thermal correction to Energy=                    0.166843
 Thermal correction to Enthalpy=                  0.167787
 Thermal correction to Gibbs Free Energy=         0.125295
 Sum of electronic and zero-point Energies=           -422.954728
 Sum of electronic and thermal Energies=              -422.946381
 Sum of electronic and thermal Enthalpies=            -422.945437
 Sum of electronic and thermal Free Energies=         -422.987929

                     E (Thermal)             CV                S
                      KCal/Mol        Cal/Mol-Kelvin    Cal/Mol-Kelvin
 Total                  104.695             32.100             89.431
 Electronic               0.000              0.000              0.000
 Translational            0.889              2.981             40.409
 Rotational               0.889              2.981             28.879
 Vibrational            102.918             26.139             20.144
 Vibration     1          0.599              1.965              4.005
 Vibration     2          0.608              1.936              3.159
 Vibration     3          0.620              1.897              2.613
 Vibration     4          0.681              1.706              1.519
 Vibration     5          0.687              1.690              1.468
 Vibration     6          0.703              1.644              1.332
 Vibration     7          0.717              1.604              1.231
 Vibration     8          0.757              1.494              1.004
 Vibration     9          0.837              1.293              0.709
 Vibration    10          0.867              1.223              0.629

 Optimization completed.
    -- Stationary point found.
 Normal termination of Gaussian 09 at Mon Jan 27 23:31:58 2020.
