 Gaussian 09, Revision D.01,
 Gaussian 09:  ES64L-G09RevD.01 24-Apr-2013

 -----------------------------
 # b3lyp 6-31G(2df,p) opt Freq
 -----------------------------

 -----
 titel
 -----
 Symbolic Z-matrix:
 Charge =  0 Multiplicity = 1

 SCF Done:  E(RB3LYP) =  -423.127990755     A.U. after   14 cycles
 Optimization completed.
    -- Stationary point found.
 Normal termination of Gaussian 09 at Tue Jan 28 08:11:58 2020.

 ----------------------------------------------------------------------
 #N Geom=AllCheck Guess=TCheck SCRF=Check GenChk RB3LYP/6-31G(2df,p) Fr
 eq
 ----------------------------------------------------------------------

 Structure from the checkpoint file:  "/scratch/puck/g09_babf1c3b-3e61-40ee-9e94-07c65ff7b7a7/Gau-104655.chk"
 -----
 titel
 -----
 Charge =  0 Multiplicity = 1

                         Standard orientation:
 ---------------------------------------------------------------------
 Center     Atomic      Atomic             Coordinates (Angstroms)
 Number     Number       Type             X           Y           Z
 ---------------------------------------------------------------------
      1          6           0       -3.727069   -0.364508   -0.629760
      2          6           0       -2.940071    0.009212    0.639609
      3          6           0       -1.509025    0.166001    0.403527
      4          6           0       -0.333184    0.306067    0.184764
      5          6           0        1.095130    0.416024   -0.057498
      6          8           0        1.395519    1.758844   -0.369690
      7          6           0        2.002254   -0.274577    1.010948
      8          8           0        2.418526   -1.283903    0.075518
      9          6           0        1.693545   -0.672654   -1.004932
     10          1           0       -3.369471   -1.310895   -1.044372
     11          1           0       -4.791568   -0.468902   -0.400197
     12          1           0       -3.613018    0.405179   -1.397662
     13          1           0       -3.338279    0.942037    1.058728
     14          1           0       -3.096983   -0.757339    1.409343
     15          1           0        2.343888    1.818640   -0.531799
     16          1           0        2.834351    0.363016    1.342798
     17          1           0        1.492521   -0.695343    1.883084
     18          1           0        2.357039   -0.251482   -1.774057
     19          1           0        0.979687   -1.357828   -1.472437
 ---------------------------------------------------------------------

 SCF Done:  E(RB3LYP) =  -423.127990755     A.U. after    1 cycles

 The electronic state is 1-A.
 Alpha  occ. eigenvalues --  -19.14961 -19.13826 -10.26568 -10.23375 -10.23357
 Alpha  occ. eigenvalues --  -10.20997 -10.18432 -10.17917 -10.17065  -1.05481
 Alpha  occ. eigenvalues --   -1.02347  -0.80002  -0.76412  -0.70331  -0.69924
 Alpha  occ. eigenvalues --   -0.64083  -0.59973  -0.52363  -0.51821  -0.47683
 Alpha  occ. eigenvalues --   -0.46452  -0.45744  -0.43963  -0.41307  -0.39870
 Alpha  occ. eigenvalues --   -0.39679  -0.38018  -0.37227  -0.36438  -0.31047
 Alpha  occ. eigenvalues --   -0.28231  -0.26427  -0.25142  -0.24832
 Alpha virt. eigenvalues --    0.03484   0.04516   0.07342   0.08677   0.10549
 Alpha virt. eigenvalues --    0.12970   0.14510   0.14849   0.15167   0.15958
 Alpha virt. eigenvalues --    0.16818   0.17908   0.19091   0.20476   0.21018

 Mulliken charges:
               1
     1  C   -0.365564
     2  C   -0.317491
     3  C    0.081486
     4  C    0.099572
     5  C    0.107305
     6  O   -0.461427
     7  C   -0.110908
     8  O   -0.268617
     9  C   -0.111126
    10  H    0.128129
    11  H    0.116063
    12  H    0.131713
    13  H    0.134758
    14  H    0.131505
    15  H    0.283320
    16  H    0.094012
    17  H    0.117092
    18  H    0.093687
    19  H    0.116490
 Sum of Mulliken charges =   0.00000

 Dipole moment (field-independent basis, Debye):
    X=             -0.6820    Y=              0.2194    Z=             -0.0333  Tot=              0.7172
 Quadrupole moment (field-independent basis, Debye-Ang):
   XX=            -45.5351   YY=            -57.8503   ZZ=            -50.9666
   XY=              5.9475   XZ=             -2.0538   YZ=              0.3956

  Exact polarizability: 111.625   4.641  63.474  -3.391   0.670  68.929
 Approx polarizability: 150.668   6.549  94.683  -9.398  -0.745  97.510

                      1                      2                      3
                      A                      A                      A
 Frequencies --     29.7786                45.2873                87.7288
 Red. masses --      2.6378                 4.0505                 3.2933
 Frc consts  --      0.0014                 0.0049                 0.0149
 IR Inten    --      0.0905                 4.2042                 1.0299

                      4                      5                      6
                      A                      A                      A
 Frequencies --    109.1538               190.8148               220.3692
 Red. masses --      2.6651                 3.1873                 1.3064
 Frc consts  --      0.0187                 0.0684                 0.0374
 IR Inten    --      6.3612                 0.0124                 0.2614

                      7                      8                      9
                      A                      A                      A
 Frequencies --    308.5069               333.3231               353.0717
 Red. masses --      1.1138                 2.3708                 3.0489
 Frc consts  --      0.0625                 0.1552                 0.2239
 IR Inten    --     67.1331                 2.4068                10.3938

                     10                     11                     12
                      A                      A                      A
 Frequencies --    377.3194               477.9081               519.7258
 Red. masses --      3.2898                 3.8894                 6.0403
 Frc consts  --      0.2760                 0.5234                 0.9613
 IR Inten    --     13.6218                10.5308                 3.1017

                     13                     14                     15
                      A                      A                      A
 Frequencies --    551.5515               595.6409               785.8929
 Red. masses --      5.2273                 4.1388                 1.1838
 Frc consts  --      0.9369                 0.8651                 0.4308
 IR Inten    --      2.5929                 0.3286                 2.2656

                     16                     17                     18
                      A                      A                      A
 Frequencies --    799.1572               868.7002               938.8760
 Red. masses --      3.8104                 3.0966                 2.0868
 Frc consts  --      1.4338                 1.3768                 1.0838
 IR Inten    --     18.3627                18.4708                11.0906

                     19                     20                     21
                      A                      A                      A
 Frequencies --    943.9968               996.5498              1025.1901
 Red. masses --      1.3390                 3.9281                 7.7874
 Frc consts  --      0.7030                 2.2984                 4.8223
 IR Inten    --      0.5317                 5.6950                 0.0176

                     22                     23                     24
                      A                      A                      A
 Frequencies --   1041.0709              1045.0561              1085.5168
 Red. masses --      2.5845                10.7602                 1.7545
 Frc consts  --      1.6504                 6.9239                 1.2181
 IR Inten    --     12.5394               104.5135                 0.8019

                     25                     26                     27
                      A                      A                      A
 Frequencies --   1104.3572              1149.3865              1151.1903
 Red. masses --      1.4798                 1.1092                 1.3374
 Frc consts  --      1.0633                 0.8633                 1.0443
 IR Inten    --      0.0998                 0.7199                 5.9104

                     28                     29                     30
                      A                      A                      A
 Frequencies --   1167.8597              1202.4361              1287.0256
 Red. masses --      2.5526                 2.3199                 1.1491
 Frc consts  --      2.0512                 1.9762                 1.1214
 IR Inten    --      5.9531               173.6153                 0.0028

                     31                     32                     33
                      A                      A                      A
 Frequencies --   1291.2331              1350.0640              1358.0373
 Red. masses --      1.2814                 1.4748                 1.4524
 Frc consts  --      1.2588                 1.5838                 1.5782
 IR Inten    --      0.6760                24.7556                 5.0683

                     34                     35                     36
                      A                      A                      A
 Frequencies --   1410.1724              1418.3819              1472.6861
 Red. masses --      1.2228                 2.0615                 1.0732
 Frc consts  --      1.4327                 2.4435                 1.3713
 IR Inten    --      1.2533                61.0978                 3.0234

                     37                     38                     39
                      A                      A                      A
 Frequencies --   1495.1271              1501.7283              1505.3892
 Red. masses --      1.0395                 1.0746                 1.0571
 Frc consts  --      1.3691                 1.4279                 1.4114
 IR Inten    --      4.7809                 0.3814                 1.1836

                     40                     41                     42
                      A                      A                      A
 Frequencies --   1528.2118              2369.0535              2992.3330
 Red. masses --      1.1113                11.9227                 1.0604
 Frc consts  --      1.5291                39.4252                 5.5942
 IR Inten    --      0.7429                15.3386                86.3310

                     43                     44                     45
                      A                      A                      A
 Frequencies --   3003.5286              3022.2375              3045.5014
 Red. masses --      1.0674                 1.0590                 1.0344
 Frc consts  --      5.6734                 5.6991                 5.6525
 IR Inten    --     45.2183                21.6136                28.3270

                     46                     47                     48
                      A                      A                      A
 Frequencies --   3050.3225              3078.5483              3080.8800
 Red. masses --      1.1008                 1.1008                 1.1028
 Frc consts  --      6.0348                 6.1471                 6.1672
 IR Inten    --      7.9132                15.7222                46.7354

                     49                     50                     51
                      A                      A                      A
 Frequencies --   3119.1661              3125.2087              3799.2271
 Red. masses --      1.1022                 1.1030                 1.0657
 Frc consts  --      6.3179                 6.3470                 9.0629
 IR Inten    --     29.5284                23.3295                14.8791

 - Thermochemistry -
 -------------------
 Temperature   298.150 Kelvin.  Pressure   1.00000 Atm.
 Atom     1 has atomic number  6 and mass  12.00000

 Molecular mass:   126.06808 amu.
 Principal axes and moments of inertia in atomic units:
                           1         2         3
     Eigenvalues --   545.593342383.347192528.65405
           X            0.99990   0.01294   0.00475
           Y           -0.01312   0.99914   0.03932
           Z           -0.00424  -0.03938   0.99922
 This molecule is an asymmetric top.
 Rotational symmetry number  1.
 Warning -- assumption of classical behavior for rotation
           may cause significant error
 Rotational temperatures (Kelvin)      0.15875     0.03634     0.03425
 Rotational constants (GHZ):           3.30785     0.75723     0.71372
 Zero-point vibrational energy     411572.1 (Joules/Mol)
                                   98.36809 (Kcal/Mol)
 Warning -- explicit consideration of  14 degrees of freedom as
           vibrations may cause significant error
 Vibrational temperatures:     42.84    65.16   126.22   157.05   274.54
          (Kelvin)            317.06   443.87   479.58   507.99   542.88
                              687.60   747.77   793.56   856.99  1130.72
                             1149.81  1249.86  1350.83  1358.20  1433.81
                             1475.02  1497.87  1503.60  1561.81  1588.92
                             1653.71  1656.30  1680.29  1730.04  1851.74
                             1857.79  1942.44  1953.91  2028.92  2040.73
                             2118.86  2151.15  2160.65  2165.92  2198.75
                             3408.54  4305.29  4321.40  4348.32  4381.79
                             4388.73  4429.34  4432.69  4487.78  4496.47
                             5466.23

 Zero-point correction=                           0.156760 (Hartree/Particle)
 Thermal correction to Energy=                    0.166832
 Thermal correction to Enthalpy=                  0.167776
 Thermal correction to Gibbs Free Energy=         0.119872
 Sum of electronic and zero-point Energies=           -422.971231
 Sum of electronic and thermal Energies=              -422.961159
 Sum of electronic and thermal Enthalpies=            -422.960215
 Sum of electronic and thermal Free Energies=         -423.008119

                     E (Thermal)             CV                S
                      KCal/Mol        Cal/Mol-Kelvin    Cal/Mol-Kelvin
 Total                  104.689             35.295            100.823
 Electronic               0.000              0.000              0.000
 Translational            0.889              2.981             40.409
 Rotational               0.889              2.981             29.576
 Vibrational            102.911             29.333             30.838
 Vibration     1          0.594              1.984              5.844
 Vibration     2          0.595              1.979              5.013
 Vibration     3          0.601              1.958              3.710
 Vibration     4          0.606              1.942              3.284
 Vibration     5          0.634              1.853              2.220
 Vibration     6          0.647              1.810              1.956
 Vibration     7          0.698              1.658              1.370
 Vibration     8          0.715              1.609              1.244
 Vibration     9          0.729              1.569              1.152
 Vibration    10          0.748              1.518              1.050
 Vibration    11          0.834              1.299              0.716
 Vibration    12          0.875              1.206              0.611
 Vibration    13          0.907              1.136              0.541
 Vibration    14          0.953              1.041              0.457

 Optimization completed.
    -- Stationary point found.
 Normal termination of Gaussian 09 at Tue Jan 28 08:45:03 2020.
