 Gaussian 09, Revision D.01,
 Gaussian 09:  ES64L-G09RevD.01 24-Apr-2013

 -----------------------------
 # b3lyp 6-31G(2df,p) opt Freq
 -----------------------------

 -----
 titel
 -----
 Symbolic Z-matrix:
 Charge =  0 Multiplicity = 1

 SCF Done:  E(RB3LYP) =  -423.153333860     A.U. after   13 cycles
 Optimization completed.
    -- Stationary point found.
 Normal termination of Gaussian 09 at Mon Jan 27 11:16:30 2020.

 ----------------------------------------------------------------------
 #N Geom=AllCheck Guess=TCheck SCRF=Check GenChk RB3LYP/6-31G(2df,p) Fr
 eq
 ----------------------------------------------------------------------

 Structure from the checkpoint file:  "/scratch/puck/g09_462614eb-8ec4-4127-b25a-ef5089af1f42/Gau-149673.chk"
 -----
 titel
 -----
 Charge =  0 Multiplicity = 1

                         Standard orientation:
 ---------------------------------------------------------------------
 Center     Atomic      Atomic             Coordinates (Angstroms)
 Number     Number       Type             X           Y           Z
 ---------------------------------------------------------------------
      1          6           0        0.523834   -0.269088    1.336008
      2          6           0        1.170959   -1.065199    0.170735
      3          6           0        2.111050    0.035982   -0.385694
      4          8           0        1.246708    1.215769   -0.333314
      5          6           0        0.051318    0.609027    0.130915
      6          6           0       -1.302191    1.260637    0.082192
      7          6           0       -2.205046   -0.012372   -0.037730
      8          8           0       -1.361795   -1.161259   -0.309785
      9          6           0       -0.085491   -0.694264   -0.674050
     10          1           0       -0.278206   -0.811582    1.831504
     11          1           0        1.185491    0.217634    2.055770
     12          1           0        1.586657   -2.067887    0.265958
     13          1           0        2.995643    0.195643    0.239294
     14          1           0        2.427003   -0.135650   -1.421126
     15          1           0       -1.555172    1.860455    0.959598
     16          1           0       -1.383443    1.893988   -0.806511
     17          1           0       -2.744722   -0.219163    0.891866
     18          1           0       -2.942720    0.095146   -0.841786
     19          1           0        0.043564   -0.653005   -1.764028
 ---------------------------------------------------------------------

 SCF Done:  E(RB3LYP) =  -423.153333860     A.U. after    1 cycles

 The electronic state is 1-A.
 Alpha  occ. eigenvalues --  -19.14032 -19.13852 -10.23566 -10.23399 -10.23137
 Alpha  occ. eigenvalues --  -10.22280 -10.19972 -10.19215 -10.18104  -1.05305
 Alpha  occ. eigenvalues --   -1.02500  -0.82672  -0.77788  -0.71044  -0.67193
 Alpha  occ. eigenvalues --   -0.61272  -0.56822  -0.54659  -0.50671  -0.49230
 Alpha  occ. eigenvalues --   -0.47497  -0.46557  -0.44016  -0.40946  -0.40364
 Alpha  occ. eigenvalues --   -0.37446  -0.36641  -0.35327  -0.34141  -0.32985
 Alpha  occ. eigenvalues --   -0.32487  -0.28709  -0.25345  -0.23582
 Alpha virt. eigenvalues --    0.07622   0.08807   0.10644   0.11845   0.13251
 Alpha virt. eigenvalues --    0.13966   0.14500   0.15720   0.15969   0.16994
 Alpha virt. eigenvalues --    0.18429   0.18752   0.19741   0.20640   0.22597

 Mulliken charges:
               1
     1  C   -0.289650
     2  C   -0.137785
     3  C   -0.088394
     4  O   -0.350126
     5  C    0.480283
     6  C   -0.384946
     7  C   -0.070993
     8  O   -0.293838
     9  C    0.111871
    10  H    0.119027
    11  H    0.094878
    12  H    0.076551
    13  H    0.108934
    14  H    0.106476
    15  H    0.113498
    16  H    0.120258
    17  H    0.112244
    18  H    0.108010
    19  H    0.063700
 Sum of Mulliken charges =   0.00000

 Dipole moment (field-independent basis, Debye):
    X=             -0.0753    Y=              0.0310    Z=              0.4214  Tot=              0.4292
 Quadrupole moment (field-independent basis, Debye-Ang):
   XX=            -49.7253   YY=            -57.3987   ZZ=            -51.7376
   XY=             -5.6878   XZ=             -0.4959   YZ=              0.4028

  Exact polarizability:  87.285  -4.791  65.497  -1.179   0.132  68.761
 Approx polarizability: 115.684  -3.524 102.605  -2.271   0.079 104.205

                      1                      2                      3
                      A                      A                      A
 Frequencies --     85.4757               262.4468               301.0464
 Red. masses --      2.0291                 2.8790                 2.7764
 Frc consts  --      0.0087                 0.1168                 0.1483
 IR Inten    --      1.6702                 6.1002                 0.2419

                      4                      5                      6
                      A                      A                      A
 Frequencies --    360.9695               410.4981               472.2093
 Red. masses --      3.5717                 2.4401                 2.8162
 Frc consts  --      0.2742                 0.2423                 0.3700
 IR Inten    --      9.2224                 2.2255                 1.2624

                      7                      8                      9
                      A                      A                      A
 Frequencies --    554.0741               648.8104               674.9628
 Red. masses --      3.5152                 5.0911                 3.7040
 Frc consts  --      0.6358                 1.2627                 0.9942
 IR Inten    --      1.4595                 1.1177                 4.6809

                     10                     11                     12
                      A                      A                      A
 Frequencies --    735.7174               826.5083               844.0503
 Red. masses --      3.7674                 1.5726                 2.6936
 Frc consts  --      1.2015                 0.6329                 1.1306
 IR Inten    --      4.2385                 1.8260                 2.6263

                     13                     14                     15
                      A                      A                      A
 Frequencies --    869.0490               893.1583               919.3376
 Red. masses --      2.3582                 2.8034                 2.3220
 Frc consts  --      1.0493                 1.3176                 1.1563
 IR Inten    --      6.6548                 4.4341                 0.6671

                     16                     17                     18
                      A                      A                      A
 Frequencies --    928.3136               936.9678               953.1231
 Red. masses --      3.4143                 2.7223                 1.9436
 Frc consts  --      1.7336                 1.4081                 1.0403
 IR Inten    --     29.9097                11.7507                 4.6938

                     19                     20                     21
                      A                      A                      A
 Frequencies --    974.1011              1007.5561              1024.0435
 Red. masses --      3.5262                 2.2182                 1.5451
 Frc consts  --      1.9714                 1.3267                 0.9547
 IR Inten    --     51.6235                18.2784                10.8678

                     22                     23                     24
                      A                      A                      A
 Frequencies --   1077.3041              1108.4253              1119.7454
 Red. masses --      1.5470                 2.7715                 2.1891
 Frc consts  --      1.0578                 2.0062                 1.6172
 IR Inten    --     11.0796                44.5309                18.5958

                     25                     26                     27
                      A                      A                      A
 Frequencies --   1136.8682              1162.2731              1184.4125
 Red. masses --      2.3449                 1.5534                 1.3162
 Frc consts  --      1.7857                 1.2363                 1.0879
 IR Inten    --     24.5139                 6.9731                 6.5813

                     28                     29                     30
                      A                      A                      A
 Frequencies --   1208.2058              1226.7919              1236.0384
 Red. masses --      1.4256                 1.4138                 1.2313
 Frc consts  --      1.2261                 1.2536                 1.1084
 IR Inten    --      8.2897                 2.5227                 9.9688

                     31                     32                     33
                      A                      A                      A
 Frequencies --   1247.7515              1268.3219              1293.4937
 Red. masses --      1.5738                 1.6695                 1.6012
 Frc consts  --      1.4436                 1.5823                 1.5784
 IR Inten    --      0.9768                 0.6582                16.8426

                     34                     35                     36
                      A                      A                      A
 Frequencies --   1328.7977              1348.8744              1375.0031
 Red. masses --      2.4965                 1.4198                 1.4036
 Frc consts  --      2.5972                 1.5220                 1.5635
 IR Inten    --     25.1733                29.5404                 4.7506

                     37                     38                     39
                      A                      A                      A
 Frequencies --   1399.3566              1480.8596              1493.4654
 Red. masses --      1.5162                 1.1290                 1.1067
 Frc consts  --      1.7493                 1.4587                 1.4543
 IR Inten    --      2.4994                 5.5908                 3.2648

                     40                     41                     42
                      A                      A                      A
 Frequencies --   1519.3109              1524.5518              3011.6985
 Red. masses --      1.1043                 1.0982                 1.0840
 Frc consts  --      1.5018                 1.5038                 5.7931
 IR Inten    --      0.6434                 0.4347                50.1527

                     43                     44                     45
                      A                      A                      A
 Frequencies --   3029.9778              3032.4511              3060.0818
 Red. masses --      1.0610                 1.0581                 1.0611
 Frc consts  --      5.7390                 5.7326                 5.8543
 IR Inten    --     94.7030                43.0890                26.0521

                     46                     47                     48
                      A                      A                      A
 Frequencies --   3072.7404              3078.2601              3081.6163
 Red. masses --      1.1039                 1.0989                 1.0718
 Frc consts  --      6.1407                 6.1353                 5.9970
 IR Inten    --     22.9386                 8.8206                49.5409

                     49                     50                     51
                      A                      A                      A
 Frequencies --   3112.0773              3123.4631              3167.0606
 Red. masses --      1.1055                 1.0904                 1.1048
 Frc consts  --      6.3085                 6.2677                 6.5288
 IR Inten    --     24.0008                39.7072                12.9990

 - Thermochemistry -
 -------------------
 Temperature   298.150 Kelvin.  Pressure   1.00000 Atm.
 Atom     1 has atomic number  6 and mass  12.00000

 Molecular mass:   126.06808 amu.
 Principal axes and moments of inertia in atomic units:
                           1         2         3
     Eigenvalues --   535.382921054.579191242.55221
           X            0.99859  -0.05296  -0.00396
           Y            0.05295   0.99859  -0.00338
           Z            0.00413   0.00317   0.99999
 This molecule is an asymmetric top.
 Rotational symmetry number  1.
 Warning -- assumption of classical behavior for rotation
           may cause significant error
 Rotational temperatures (Kelvin)      0.16178     0.08213     0.06971
 Rotational constants (GHZ):           3.37094     1.71134     1.45245
 Zero-point vibrational energy     425820.9 (Joules/Mol)
                                  101.77364 (Kcal/Mol)
 Warning -- explicit consideration of   7 degrees of freedom as
           vibrations may cause significant error
 Vibrational temperatures:    122.98   377.60   433.14   519.35   590.61
          (Kelvin)            679.40   797.19   933.49   971.12  1058.53
                             1189.16  1214.40  1250.37  1285.05  1322.72
                             1335.63  1348.09  1371.33  1401.51  1449.65
                             1473.37  1550.00  1594.77  1611.06  1635.70
                             1672.25  1704.10  1738.34  1765.08  1778.38
                             1795.23  1824.83  1861.05  1911.84  1940.73
                             1978.32  2013.36  2130.62  2148.76  2185.95
                             2193.49  4333.16  4359.46  4363.02  4402.77
                             4420.98  4428.92  4433.75  4477.58  4493.96
                             4556.69

 Zero-point correction=                           0.162187 (Hartree/Particle)
 Thermal correction to Energy=                    0.168933
 Thermal correction to Enthalpy=                  0.169878
 Thermal correction to Gibbs Free Energy=         0.131082
 Sum of electronic and zero-point Energies=           -422.991147
 Sum of electronic and thermal Energies=              -422.984400
 Sum of electronic and thermal Enthalpies=            -422.983456
 Sum of electronic and thermal Free Energies=         -423.022252

                     E (Thermal)             CV                S
                      KCal/Mol        Cal/Mol-Kelvin    Cal/Mol-Kelvin
 Total                  106.007             27.908             81.652
 Electronic               0.000              0.000              0.000
 Translational            0.889              2.981             40.409
 Rotational               0.889              2.981             28.041
 Vibrational            104.230             21.947             13.202
 Vibration     1          0.601              1.959              3.761
 Vibration     2          0.670              1.742              1.645
 Vibration     3          0.693              1.672              1.411
 Vibration     4          0.735              1.553              1.118
 Vibration     5          0.775              1.447              0.925
 Vibration     6          0.829              1.312              0.731
 Vibration     7          0.909              1.131              0.536

 Optimization completed.
    -- Stationary point found.
 Normal termination of Gaussian 09 at Mon Jan 27 12:10:30 2020.
