 Gaussian 09, Revision D.01,
 Gaussian 09:  ES64L-G09RevD.01 24-Apr-2013

 -----------------------------
 # b3lyp 6-31G(2df,p) opt Freq
 -----------------------------

 -----
 titel
 -----
 Symbolic Z-matrix:
 Charge =  0 Multiplicity = 1

 SCF Done:  E(RB3LYP) =  -423.155595228     A.U. after   14 cycles
 Optimization completed.
    -- Stationary point found.
 Normal termination of Gaussian 09 at Mon Jan 27 12:12:58 2020.

 ----------------------------------------------------------------------
 #N Geom=AllCheck Guess=TCheck SCRF=Check GenChk RB3LYP/6-31G(2df,p) Fr
 eq
 ----------------------------------------------------------------------

 Structure from the checkpoint file:  "/scratch/puck/g09_0fc4c846-c448-495a-b04c-253376832225/Gau-35090.chk"
 -----
 titel
 -----
 Charge =  0 Multiplicity = 1

                         Standard orientation:
 ---------------------------------------------------------------------
 Center     Atomic      Atomic             Coordinates (Angstroms)
 Number     Number       Type             X           Y           Z
 ---------------------------------------------------------------------
      1          6           0        2.657357   -0.729844    0.175847
      2          8           0        2.577648    0.665524   -0.121563
      3          6           0        1.417481    0.022080    0.409316
      4          6           0        0.221807   -0.078131   -0.512802
      5          6           0       -0.583696    1.249900   -0.591167
      6          6           0       -1.674793    1.154916    0.505907
      7          6           0       -1.912284   -0.334848    0.649616
      8          8           0       -2.067231   -1.009720   -0.607774
      9          6           0       -0.792646   -1.068093    0.042220
     10          1           0        2.729337   -1.386910   -0.690347
     11          1           0        3.301297   -0.994882    1.013250
     12          1           0        1.191698    0.309611    1.438852
     13          1           0        0.581667   -0.377547   -1.502923
     14          1           0        0.063060    2.122256   -0.473183
     15          1           0       -1.058389    1.321024   -1.571032
     16          1           0       -1.324042    1.553198    1.466071
     17          1           0       -2.582659    1.704008    0.238635
     18          1           0       -2.503880   -0.736921    1.468357
     19          1           0       -0.480782   -2.056154    0.373394
 ---------------------------------------------------------------------

 SCF Done:  E(RB3LYP) =  -423.155595228     A.U. after    1 cycles

 The electronic state is 1-A.
 Alpha  occ. eigenvalues --  -19.15244 -19.14913 -10.24129 -10.23655 -10.23578
 Alpha  occ. eigenvalues --  -10.23546 -10.19616 -10.18919 -10.18428  -1.07340
 Alpha  occ. eigenvalues --   -1.07100  -0.81766  -0.74153  -0.67570  -0.66222
 Alpha  occ. eigenvalues --   -0.62766  -0.57527  -0.56943  -0.53043  -0.49718
 Alpha  occ. eigenvalues --   -0.48338  -0.44876  -0.44162  -0.41288  -0.39545
 Alpha  occ. eigenvalues --   -0.37364  -0.36771  -0.36276  -0.35399  -0.34351
 Alpha  occ. eigenvalues --   -0.30126  -0.29288  -0.27239  -0.25929
 Alpha virt. eigenvalues --    0.08541   0.09117   0.10162   0.10816   0.11402
 Alpha virt. eigenvalues --    0.12107   0.12347   0.14758   0.15986   0.16481
 Alpha virt. eigenvalues --    0.16673   0.17725   0.18334   0.19512   0.21026

 Mulliken charges:
               1
     1  C   -0.186738
     2  O   -0.240439
     3  C    0.091676
     4  C   -0.059488
     5  C   -0.239326
     6  C   -0.243341
     7  C    0.058165
     8  O   -0.267397
     9  C    0.042258
    10  H    0.115316
    11  H    0.115856
    12  H    0.091323
    13  H    0.085072
    14  H    0.115222
    15  H    0.119525
    16  H    0.104727
    17  H    0.111831
    18  H    0.092887
    19  H    0.092871
 Sum of Mulliken charges =   0.00000

 Dipole moment (field-independent basis, Debye):
    X=              0.1080    Y=             -0.6299    Z=              1.7095  Tot=              1.8251
 Quadrupole moment (field-independent basis, Debye-Ang):
   XX=            -58.0195   YY=            -52.8975   ZZ=            -51.7898
   XY=             -7.2949   XZ=             -1.9106   YZ=             -0.8672

  Exact polarizability:  86.496  -7.417  71.157  -2.813   0.772  64.815
 Approx polarizability: 115.265  -6.622 106.139  -2.767   3.360 101.815

                      1                      2                      3
                      A                      A                      A
 Frequencies --     67.2936               108.6988               165.6741
 Red. masses --      3.7936                 3.0562                 3.6421
 Frc consts  --      0.0101                 0.0213                 0.0589
 IR Inten    --      3.6616                 0.5762                 4.0330

                      4                      5                      6
                      A                      A                      A
 Frequencies --    267.3076               321.2729               365.1469
 Red. masses --      2.0697                 4.6600                 2.6088
 Frc consts  --      0.0871                 0.2834                 0.2049
 IR Inten    --      1.6785                 1.7588                 2.7936

                      7                      8                      9
                      A                      A                      A
 Frequencies --    434.0454               473.6157               678.5430
 Red. masses --      4.7038                 3.3201                 2.8318
 Frc consts  --      0.5221                 0.4388                 0.7682
 IR Inten    --      3.4062                15.6562                 3.0948

                     10                     11                     12
                      A                      A                      A
 Frequencies --    724.4608               790.3626               828.8673
 Red. masses --      3.6741                 2.0189                 4.5522
 Frc consts  --      1.1361                 0.7431                 1.8427
 IR Inten    --      2.3565                 3.1505                 6.6429

                     13                     14                     15
                      A                      A                      A
 Frequencies --    857.0341               862.2687               869.2160
 Red. masses --      2.0038                 2.1229                 5.6114
 Frc consts  --      0.8672                 0.9300                 2.4979
 IR Inten    --     15.6154                25.3521                10.1239

                     16                     17                     18
                      A                      A                      A
 Frequencies --    904.9998               935.0382               976.5706
 Red. masses --      3.3765                 2.5664                 2.0635
 Frc consts  --      1.6294                 1.3220                 1.1595
 IR Inten    --     16.0599                14.9871                10.9245

                     19                     20                     21
                      A                      A                      A
 Frequencies --    992.0272              1015.8625              1037.6127
 Red. masses --      1.7789                 2.0502                 1.4281
 Frc consts  --      1.0314                 1.2466                 0.9059
 IR Inten    --      7.3688                 1.8149                 6.8712

                     22                     23                     24
                      A                      A                      A
 Frequencies --   1049.5845              1094.3797              1129.2475
 Red. masses --      1.6180                 1.2466                 1.5475
 Frc consts  --      1.0502                 0.8796                 1.1627
 IR Inten    --      0.5904                 0.2238                 3.7615

                     25                     26                     27
                      A                      A                      A
 Frequencies --   1141.4214              1158.2746              1174.8196
 Red. masses --      1.9739                 1.3710                 1.3719
 Frc consts  --      1.5152                 1.0837                 1.1156
 IR Inten    --      4.2290                 1.3553                 1.4811

                     28                     29                     30
                      A                      A                      A
 Frequencies --   1199.7263              1211.7134              1250.2636
 Red. masses --      1.4087                 1.6248                 1.3652
 Frc consts  --      1.1947                 1.4055                 1.2573
 IR Inten    --      0.1834                 0.7553                 5.1108

                     31                     32                     33
                      A                      A                      A
 Frequencies --   1278.3973              1288.6149              1293.8270
 Red. masses --      1.3285                 1.4129                 1.5865
 Frc consts  --      1.2792                 1.3824                 1.5647
 IR Inten    --      5.7256                 6.8832                 2.9691

                     34                     35                     36
                      A                      A                      A
 Frequencies --   1317.6891              1332.2642              1360.1589
 Red. masses --      1.5115                 1.3813                 1.5186
 Frc consts  --      1.5462                 1.4445                 1.6553
 IR Inten    --      0.4669                 7.0647                 0.6858

                     37                     38                     39
                      A                      A                      A
 Frequencies --   1434.4463              1450.7066              1482.3770
 Red. masses --      2.8710                 1.7249                 1.1033
 Frc consts  --      3.4806                 2.1388                 1.4285
 IR Inten    --      9.1672                11.9121                 1.6445

                     40                     41                     42
                      A                      A                      A
 Frequencies --   1495.0018              1529.7014              3036.0009
 Red. masses --      1.1024                 1.3645                 1.0640
 Frc consts  --      1.4517                 1.8813                 5.7782
 IR Inten    --      4.4986                 2.7587                24.7291

                     43                     44                     45
                      A                      A                      A
 Frequencies --   3053.1775              3078.5637              3080.4135
 Red. masses --      1.0831                 1.0708                 1.0546
 Frc consts  --      5.9486                 5.9796                 5.8960
 IR Inten    --      6.1482                16.1029                38.6119

                     46                     47                     48
                      A                      A                      A
 Frequencies --   3084.9747              3087.3126              3125.8855
 Red. masses --      1.0816                 1.0905                 1.1058
 Frc consts  --      6.0649                 6.1242                 6.3660
 IR Inten    --      9.6613                33.5418                17.7892

                     49                     50                     51
                      A                      A                      A
 Frequencies --   3135.9132              3151.0050              3167.6383
 Red. masses --      1.0871                 1.0949                 1.1194
 Frc consts  --      6.2988                 6.4052                 6.6177
 IR Inten    --     18.6067                34.9933                27.0765

 - Thermochemistry -
 -------------------
 Temperature   298.150 Kelvin.  Pressure   1.00000 Atm.
 Atom     1 has atomic number  6 and mass  12.00000

 Molecular mass:   126.06808 amu.
 Principal axes and moments of inertia in atomic units:
                           1         2         3
     Eigenvalues --   485.501461597.083181817.62727
           X            0.99927  -0.03775  -0.00600
           Y            0.03763   0.99911  -0.01898
           Z            0.00671   0.01874   0.99980
 This molecule is an asymmetric top.
 Rotational symmetry number  1.
 Warning -- assumption of classical behavior for rotation
           may cause significant error
 Rotational temperatures (Kelvin)      0.17840     0.05423     0.04765
 Rotational constants (GHZ):           3.71727     1.13002     0.99291
 Zero-point vibrational energy     420783.0 (Joules/Mol)
                                  100.56954 (Kcal/Mol)
 Warning -- explicit consideration of   8 degrees of freedom as
           vibrations may cause significant error
 Vibrational temperatures:     96.82   156.39   238.37   384.60   462.24
          (Kelvin)            525.36   624.49   681.43   976.27  1042.34
                             1137.15  1192.55  1233.08  1240.61  1250.61
                             1302.09  1345.31  1405.07  1427.30  1461.60
                             1492.89  1510.12  1574.57  1624.73  1642.25
                             1666.50  1690.30  1726.14  1743.38  1798.85
                             1839.33  1854.03  1861.53  1895.86  1916.83
                             1956.96  2063.85  2087.24  2132.81  2150.97
                             2200.90  4368.12  4392.84  4429.36  4432.02
                             4438.58  4441.95  4497.45  4511.87  4533.59
                             4557.52

 Zero-point correction=                           0.160268 (Hartree/Particle)
 Thermal correction to Energy=                    0.168041
 Thermal correction to Enthalpy=                  0.168986
 Thermal correction to Gibbs Free Energy=         0.127391
 Sum of electronic and zero-point Energies=           -422.995327
 Sum of electronic and thermal Energies=              -422.987554
 Sum of electronic and thermal Enthalpies=            -422.986610
 Sum of electronic and thermal Free Energies=         -423.028204

                     E (Thermal)             CV                S
                      KCal/Mol        Cal/Mol-Kelvin    Cal/Mol-Kelvin
 Total                  105.448             29.802             87.543
 Electronic               0.000              0.000              0.000
 Translational            0.889              2.981             40.409
 Rotational               0.889              2.981             28.735
 Vibrational            103.670             23.840             18.400
 Vibration     1          0.598              1.970              4.231
 Vibration     2          0.606              1.942              3.292
 Vibration     3          0.624              1.885              2.484
 Vibration     4          0.672              1.733              1.614
 Vibration     5          0.707              1.633              1.304
 Vibration     6          0.738              1.544              1.100
 Vibration     7          0.795              1.396              0.846
 Vibration     8          0.830              1.309              0.727

 Optimization completed.
    -- Stationary point found.
 Normal termination of Gaussian 09 at Mon Jan 27 12:54:14 2020.
