 Gaussian 09, Revision D.01,
 Gaussian 09:  ES64L-G09RevD.01 24-Apr-2013

 -----------------------------
 # b3lyp 6-31G(2df,p) opt Freq
 -----------------------------

 -----
 titel
 -----
 Symbolic Z-matrix:
 Charge =  0 Multiplicity = 1

 SCF Done:  E(RB3LYP) =  -423.175068204     A.U. after   14 cycles
 Optimization completed.
    -- Stationary point found.
 Normal termination of Gaussian 09 at Tue Jan 28 08:48:19 2020.

 ----------------------------------------------------------------------
 #N Geom=AllCheck Guess=TCheck SCRF=Check GenChk RB3LYP/6-31G(2df,p) Fr
 eq
 ----------------------------------------------------------------------

 Structure from the checkpoint file:  "/scratch/puck/g09_ab99d878-617d-468c-ba29-e642a54f77f2/Gau-129540.chk"
 -----
 titel
 -----
 Charge =  0 Multiplicity = 1

                         Standard orientation:
 ---------------------------------------------------------------------
 Center     Atomic      Atomic             Coordinates (Angstroms)
 Number     Number       Type             X           Y           Z
 ---------------------------------------------------------------------
      1          8           0        2.509648   -0.568989   -0.657648
      2          6           0        1.633687    0.538991   -0.635264
      3          6           0        0.403984    0.252685    0.239719
      4          8           0        0.968318   -0.062456    1.521663
      5          6           0       -0.560586    1.427028    0.286002
      6          6           0       -1.729357    1.141168   -0.290940
      7          6           0       -1.785406   -0.283139   -0.742346
      8          6           0       -1.701469   -1.293271    0.387516
      9          6           0       -0.450550   -0.874331   -0.350115
     10          1           0        2.614550   -0.822319    0.268599
     11          1           0        2.133470    1.443541   -0.254083
     12          1           0        1.317549    0.731948   -1.664339
     13          1           0        0.301721   -0.543843    2.022587
     14          1           0       -0.288435    2.361580    0.762596
     15          1           0       -2.570017    1.819839   -0.386218
     16          1           0       -2.296417   -0.554236   -1.658766
     17          1           0       -1.892159   -0.929376    1.393451
     18          1           0       -2.060738   -2.299391    0.197804
     19          1           0        0.054935   -1.610960   -0.961179
 ---------------------------------------------------------------------

 SCF Done:  E(RB3LYP) =  -423.175068204     A.U. after    1 cycles

 The electronic state is 1-A.
 Alpha  occ. eigenvalues --  -19.14272 -19.12488 -10.23948 -10.21865 -10.19914
 Alpha  occ. eigenvalues --  -10.19695 -10.19149 -10.19118 -10.17981  -1.03137
 Alpha  occ. eigenvalues --   -1.00022  -0.88864  -0.77347  -0.72371  -0.63827
 Alpha  occ. eigenvalues --   -0.61540  -0.57275  -0.54752  -0.53190  -0.48951
 Alpha  occ. eigenvalues --   -0.48080  -0.44332  -0.42868  -0.41876  -0.40505
 Alpha  occ. eigenvalues --   -0.39139  -0.35682  -0.35113  -0.32592  -0.32228
 Alpha  occ. eigenvalues --   -0.30002  -0.27808  -0.25886  -0.23724
 Alpha virt. eigenvalues --    0.00255   0.07708   0.09952   0.11841   0.12840
 Alpha virt. eigenvalues --    0.13544   0.14194   0.14558   0.16616   0.17517
 Alpha virt. eigenvalues --    0.18232   0.19072   0.20737   0.22554   0.23793

 Mulliken charges:
               1
     1  O   -0.428822
     2  C   -0.078183
     3  C    0.323048
     4  O   -0.487698
     5  C   -0.159389
     6  C   -0.084523
     7  C   -0.075138
     8  C   -0.315101
     9  C   -0.087242
    10  H    0.287825
    11  H    0.087920
    12  H    0.110198
    13  H    0.281600
    14  H    0.100687
    15  H    0.102068
    16  H    0.093683
    17  H    0.106630
    18  H    0.116842
    19  H    0.105596
 Sum of Mulliken charges =   0.00000

 Dipole moment (field-independent basis, Debye):
    X=             -2.3054    Y=             -0.0832    Z=              0.7148  Tot=              2.4151
 Quadrupole moment (field-independent basis, Debye-Ang):
   XX=            -56.4360   YY=            -50.6626   ZZ=            -52.4580
   XY=              1.3095   XZ=              2.4740   YZ=             -1.8453

  Exact polarizability:  86.584   2.685  75.649   4.712   0.073  65.089
 Approx polarizability: 128.104   3.908 110.324  12.066   0.557 103.735

                      1                      2                      3
                      A                      A                      A
 Frequencies --    127.8158               144.6108               200.5874
 Red. masses --      4.2291                 3.5690                 2.9130
 Frc consts  --      0.0407                 0.0440                 0.0691
 IR Inten    --      5.0980                 0.8353                 2.9797

                      4                      5                      6
                      A                      A                      A
 Frequencies --    266.1494               311.1882               346.8180
 Red. masses --      1.9029                 1.8491                 2.3175
 Frc consts  --      0.0794                 0.1055                 0.1642
 IR Inten    --     12.1721                43.4919                 9.6964

                      7                      8                      9
                      A                      A                      A
 Frequencies --    378.4231               455.6733               464.7650
 Red. masses --      2.3828                 3.2543                 1.9564
 Frc consts  --      0.2010                 0.3981                 0.2490
 IR Inten    --      0.8639                 7.2206                35.9589

                     10                     11                     12
                      A                      A                      A
 Frequencies --    513.9413               586.4972               643.3794
 Red. masses --      1.5742                 3.1229                 4.4698
 Frc consts  --      0.2450                 0.6329                 1.0901
 IR Inten    --     95.7771                10.6218                12.1767

                     13                     14                     15
                      A                      A                      A
 Frequencies --    739.0042               765.1998               797.0794
 Red. masses --      2.5724                 2.1568                 1.7821
 Frc consts  --      0.8277                 0.7440                 0.6671
 IR Inten    --      9.7894                 7.8996                26.3425

                     16                     17                     18
                      A                      A                      A
 Frequencies --    822.3129               861.4274               927.5510
 Red. masses --      1.6343                 2.7256                 2.1657
 Frc consts  --      0.6511                 1.1916                 1.0978
 IR Inten    --      9.8847                 0.4655                28.7911

                     19                     20                     21
                      A                      A                      A
 Frequencies --    949.9887               968.6291               988.6672
 Red. masses --      1.8750                 1.5235                 2.5744
 Frc consts  --      0.9970                 0.8422                 1.4826
 IR Inten    --      7.2526                 4.0661                 6.7764

                     22                     23                     24
                      A                      A                      A
 Frequencies --   1004.2003              1048.6400              1071.6893
 Red. masses --      1.7446                 1.8652                 1.7524
 Frc consts  --      1.0365                 1.2084                 1.1858
 IR Inten    --      9.1129                40.1076                51.0618

                     25                     26                     27
                      A                      A                      A
 Frequencies --   1077.0002              1084.5413              1105.4012
 Red. masses --      1.5374                 1.7239                 1.6448
 Frc consts  --      1.0507                 1.1947                 1.1842
 IR Inten    --     10.3882                40.7282                29.0250

                     28                     29                     30
                      A                      A                      A
 Frequencies --   1108.5578              1142.0871              1183.9751
 Red. masses --      1.6471                 1.4603                 1.8108
 Frc consts  --      1.1926                 1.1223                 1.4956
 IR Inten    --     39.8244                 1.1062                 5.2685

                     31                     32                     33
                      A                      A                      A
 Frequencies --   1200.6787              1243.3538              1289.7403
 Red. masses --      1.7238                 1.5121                 1.4006
 Frc consts  --      1.4642                 1.3773                 1.3727
 IR Inten    --      1.1744                18.4283                14.4922

                     34                     35                     36
                      A                      A                      A
 Frequencies --   1345.0904              1360.9484              1376.1799
 Red. masses --      1.6379                 2.3244                 1.3091
 Frc consts  --      1.7460                 2.5366                 1.4608
 IR Inten    --     15.5591                 3.1296                 7.1350

                     37                     38                     39
                      A                      A                      A
 Frequencies --   1394.7755              1437.4763              1477.8859
 Red. masses --      1.8143                 1.2717                 1.2210
 Frc consts  --      2.0796                 1.5482                 1.5713
 IR Inten    --     61.7950                72.7819                 4.4879

                     40                     41                     42
                      A                      A                      A
 Frequencies --   1498.1646              1665.7418              2981.7075
 Red. masses --      1.0882                 6.5975                 1.0700
 Frc consts  --      1.4391                10.7856                 5.6047
 IR Inten    --      1.4658                 2.9085                58.2464

                     43                     44                     45
                      A                      A                      A
 Frequencies --   3091.7580              3115.7515              3176.4085
 Red. masses --      1.0932                 1.0545                 1.0888
 Frc consts  --      6.1567                 6.0312                 6.4722
 IR Inten    --     21.6554                17.0442                 5.7212

                     46                     47                     48
                      A                      A                      A
 Frequencies --   3186.5434              3196.0854              3208.5292
 Red. masses --      1.0873                 1.0979                 1.1079
 Frc consts  --      6.5047                 6.6078                 6.7200
 IR Inten    --     13.9420                 0.6407                20.4634

                     49                     50                     51
                      A                      A                      A
 Frequencies --   3212.5018              3774.0207              3815.3540
 Red. masses --      1.1042                 1.0648                 1.0659
 Frc consts  --      6.7139                 8.9356                 9.1421
 IR Inten    --      9.8219                35.2111                14.4273

 - Thermochemistry -
 -------------------
 Temperature   298.150 Kelvin.  Pressure   1.00000 Atm.
 Atom     1 has atomic number  8 and mass  15.99491

 Molecular mass:   126.06808 amu.
 Principal axes and moments of inertia in atomic units:
                           1         2         3
     Eigenvalues --   629.362151331.709721426.74179
           X            0.99979   0.02045  -0.00043
           Y           -0.02045   0.99897  -0.04052
           Z           -0.00040   0.04052   0.99918
 This molecule is an asymmetric top.
 Rotational symmetry number  1.
 Warning -- assumption of classical behavior for rotation
           may cause significant error
 Rotational temperatures (Kelvin)      0.13762     0.06504     0.06071
 Rotational constants (GHZ):           2.86757     1.35521     1.26494
 Zero-point vibrational energy     419497.4 (Joules/Mol)
                                  100.26230 (Kcal/Mol)
 Warning -- explicit consideration of  11 degrees of freedom as
           vibrations may cause significant error
 Vibrational temperatures:    183.90   208.06   288.60   382.93   447.73
          (Kelvin)            498.99   544.47   655.61   668.69   739.45
                              843.84   925.68  1063.26  1100.95  1146.82
                             1183.12  1239.40  1334.54  1366.82  1393.64
                             1422.47  1444.82  1508.76  1541.92  1549.56
                             1560.41  1590.42  1594.97  1643.21  1703.47
                             1727.51  1788.91  1855.65  1935.28  1958.10
                             1980.01  2006.77  2068.21  2126.35  2155.52
                             2396.63  4290.01  4448.34  4482.87  4570.14
                             4584.72  4598.45  4616.35  4622.07  5429.97
                             5489.44

 Zero-point correction=                           0.159778 (Hartree/Particle)
 Thermal correction to Energy=                    0.168008
 Thermal correction to Enthalpy=                  0.168952
 Thermal correction to Gibbs Free Energy=         0.127439
 Sum of electronic and zero-point Energies=           -423.015290
 Sum of electronic and thermal Energies=              -423.007061
 Sum of electronic and thermal Enthalpies=            -423.006116
 Sum of electronic and thermal Free Energies=         -423.047629

                     E (Thermal)             CV                S
                      KCal/Mol        Cal/Mol-Kelvin    Cal/Mol-Kelvin
 Total                  105.426             32.917             87.371
 Electronic               0.000              0.000              0.000
 Translational            0.889              2.981             40.409
 Rotational               0.889              2.981             28.571
 Vibrational            103.649             26.955             18.391
 Vibration     1          0.611              1.925              2.979
 Vibration     2          0.616              1.908              2.742
 Vibration     3          0.638              1.839              2.128
 Vibration     4          0.672              1.735              1.621
 Vibration     5          0.700              1.652              1.356
 Vibration     6          0.725              1.582              1.181
 Vibration     7          0.749              1.516              1.045
 Vibration     8          0.814              1.348              0.779
 Vibration     9          0.822              1.328              0.752
 Vibration    10          0.869              1.219              0.624
 Vibration    11          0.944              1.061              0.473

 Normal termination of Gaussian 09 at Tue Jan 28 09:32:50 2020.
