 Gaussian 09, Revision D.01,
 Gaussian 09:  ES64L-G09RevD.01 24-Apr-2013

 -----------------------------
 # b3lyp 6-31G(2df,p) opt Freq
 -----------------------------

 -----
 titel
 -----
 Symbolic Z-matrix:
 Charge =  0 Multiplicity = 1

 SCF Done:  E(RB3LYP) =  -423.199577192     A.U. after   14 cycles
 Optimization completed.
    -- Stationary point found.
 Normal termination of Gaussian 09 at Tue Jan 28 13:26:51 2020.

 ----------------------------------------------------------------------
 #N Geom=AllCheck Guess=TCheck SCRF=Check GenChk RB3LYP/6-31G(2df,p) Fr
 eq
 ----------------------------------------------------------------------

 Structure from the checkpoint file:  "/scratch/puck/g09_7f9ae102-3fce-4f60-9a54-6664e1901c7f/Gau-30992.chk"
 -----
 titel
 -----
 Charge =  0 Multiplicity = 1

                         Standard orientation:
 ---------------------------------------------------------------------
 Center     Atomic      Atomic             Coordinates (Angstroms)
 Number     Number       Type             X           Y           Z
 ---------------------------------------------------------------------
      1          6           0       -3.064500   -1.080555   -0.063186
      2          6           0       -2.352946    0.260863   -0.253870
      3          6           0       -1.015797    0.333471    0.492840
      4          8           0       -0.120242   -0.692429    0.023468
      5          6           0        1.084196   -0.128315   -0.472423
      6          6           0        2.271999   -0.641339    0.345687
      7          8           0        3.401374   -0.683065   -0.062348
      8          6           0        0.922651    1.361682   -0.292279
      9          6           0       -0.251144    1.611340    0.275756
     10          1           0       -4.004466   -1.110083   -0.621895
     11          1           0       -2.432489   -1.902078   -0.410183
     12          1           0       -3.296860   -1.258227    0.992874
     13          1           0       -2.164213    0.445458   -1.318107
     14          1           0       -2.988434    1.081403    0.104002
     15          1           0       -1.204155    0.156831    1.564763
     16          1           0        1.250605   -0.411893   -1.522056
     17          1           0        1.987642   -0.953850    1.375857
     18          1           0        1.686852    2.069512   -0.583771
     19          1           0       -0.650300    2.584002    0.534400
 ---------------------------------------------------------------------

 SCF Done:  E(RB3LYP) =  -423.199577192     A.U. after    1 cycles

 The electronic state is 1-A.
 Alpha  occ. eigenvalues --  -19.14969 -19.14415 -10.27113 -10.24719 -10.24425
 Alpha  occ. eigenvalues --  -10.20274 -10.20030 -10.18777 -10.17543  -1.05584
 Alpha  occ. eigenvalues --   -1.04369  -0.80528  -0.79473  -0.73307  -0.65272
 Alpha  occ. eigenvalues --   -0.60351  -0.58001  -0.56505  -0.52272  -0.48661
 Alpha  occ. eigenvalues --   -0.46572  -0.44319  -0.43444  -0.42011  -0.41657
 Alpha  occ. eigenvalues --   -0.40593  -0.37642  -0.36222  -0.35155  -0.34182
 Alpha  occ. eigenvalues --   -0.32906  -0.29068  -0.27791  -0.23519
 Alpha virt. eigenvalues --   -0.03357   0.01279   0.08954   0.11505   0.12079
 Alpha virt. eigenvalues --    0.13202   0.14224   0.14566   0.15128   0.16034
 Alpha virt. eigenvalues --    0.16643   0.17806   0.19019   0.19626   0.22159

 Mulliken charges:
               1
     1  C   -0.382454
     2  C   -0.177056
     3  C    0.084218
     4  O   -0.287487
     5  C   -0.006914
     6  C    0.136434
     7  O   -0.240577
     8  C   -0.115118
     9  C   -0.097674
    10  H    0.112658
    11  H    0.136903
    12  H    0.113127
    13  H    0.102558
    14  H    0.094494
    15  H    0.086344
    16  H    0.111015
    17  H    0.087390
    18  H    0.126732
    19  H    0.115407
 Sum of Mulliken charges =   0.00000

 Dipole moment (field-independent basis, Debye):
    X=             -2.5309    Y=              1.8388    Z=              0.4005  Tot=              3.1539
 Quadrupole moment (field-independent basis, Debye-Ang):
   XX=            -62.5376   YY=            -51.8610   ZZ=            -51.9236
   XY=              1.5773   XZ=             -0.1391   YZ=              0.1217

  Exact polarizability: 102.742  -2.865  70.406  -7.927  -0.333  63.606
 Approx polarizability: 141.900  -8.654 101.661 -19.896   1.629 100.219

                      1                      2                      3
                      A                      A                      A
 Frequencies --     58.8684                68.1817               105.9152
 Red. masses --      5.1092                 4.3837                 2.2389
 Frc consts  --      0.0104                 0.0120                 0.0148
 IR Inten    --      1.6238                 5.7698                 0.7937

                      4                      5                      6
                      A                      A                      A
 Frequencies --    146.6346               208.2418               260.3091
 Red. masses --      2.5921                 1.4161                 1.9894
 Frc consts  --      0.0328                 0.0362                 0.0794
 IR Inten    --      2.3892                 0.3159                 0.2658

                      7                      8                      9
                      A                      A                      A
 Frequencies --    278.7303               394.6486               417.5320
 Red. masses --      2.8577                 3.0336                 3.8264
 Frc consts  --      0.1308                 0.2784                 0.3930
 IR Inten    --      8.7654                 1.3515                 9.0538

                     10                     11                     12
                      A                      A                      A
 Frequencies --    470.3886               541.9601               725.7735
 Red. masses --      3.9061                 3.1802                 1.7057
 Frc consts  --      0.5092                 0.5504                 0.5294
 IR Inten    --      8.8319                 4.9814                17.1833

                     13                     14                     15
                      A                      A                      A
 Frequencies --    759.2900               784.4252               826.2601
 Red. masses --      1.3922                 4.1417                 3.4603
 Frc consts  --      0.4729                 1.5015                 1.3919
 IR Inten    --     21.6534                 9.4825                 2.6344

                     16                     17                     18
                      A                      A                      A
 Frequencies --    874.2997               901.7531               938.6953
 Red. masses --      1.8710                 2.3536                 2.0745
 Frc consts  --      0.8426                 1.1276                 1.0770
 IR Inten    --     11.2664                 5.4746                17.2764

                     19                     20                     21
                      A                      A                      A
 Frequencies --    962.4272               993.4173              1040.0578
 Red. masses --      1.2622                 2.6600                 1.7258
 Frc consts  --      0.6888                 1.5466                 1.0999
 IR Inten    --      0.5775                 2.4154                16.1398

                     22                     23                     24
                      A                      A                      A
 Frequencies --   1042.9221              1065.2805              1087.5437
 Red. masses --      2.0310                 3.3721                 2.2692
 Frc consts  --      1.3016                 2.2546                 1.5813
 IR Inten    --      5.5182                17.0852                52.4447

                     25                     26                     27
                      A                      A                      A
 Frequencies --   1124.2342              1135.0792              1140.8870
 Red. masses --      3.0937                 1.4856                 1.9326
 Frc consts  --      2.3038                 1.1278                 1.4821
 IR Inten    --     74.4469                 9.7045                 3.6666

                     28                     29                     30
                      A                      A                      A
 Frequencies --   1257.9862              1282.5659              1294.1849
 Red. masses --      1.3635                 1.2211                 1.3127
 Frc consts  --      1.2713                 1.1835                 1.2954
 IR Inten    --      2.8511                 1.9716                 1.7041

                     31                     32                     33
                      A                      A                      A
 Frequencies --   1304.4462              1343.7571              1366.7844
 Red. masses --      1.3085                 1.6388                 1.3656
 Frc consts  --      1.3118                 1.7435                 1.5030
 IR Inten    --     20.6247                 2.5411                 0.3461

                     34                     35                     36
                      A                      A                      A
 Frequencies --   1387.4973              1392.8595              1408.7026
 Red. masses --      1.3544                 1.3442                 1.2333
 Frc consts  --      1.5362                 1.5365                 1.4420
 IR Inten    --      3.8629                 4.3902                 1.3578

                     37                     38                     39
                      A                      A                      A
 Frequencies --   1476.3512              1496.0228              1508.3955
 Red. masses --      1.0782                 1.0418                 1.0569
 Frc consts  --      1.3846                 1.3738                 1.4168
 IR Inten    --      0.8460                 4.6888                 4.1847

                     40                     41                     42
                      A                      A                      A
 Frequencies --   1682.1982              1836.5238              2885.2978
 Red. masses --      6.8037                10.8037                 1.0847
 Frc consts  --     11.3436                21.4691                 5.3205
 IR Inten    --      0.7556               194.7487                78.4377

                     43                     44                     45
                      A                      A                      A
 Frequencies --   2964.7065              3001.6577              3024.0305
 Red. masses --      1.0823                 1.0834                 1.0604
 Frc consts  --      5.6047                 5.7510                 5.7134
 IR Inten    --     45.5352                34.6107                24.0977

                     46                     47                     48
                      A                      A                      A
 Frequencies --   3037.1181              3065.3904              3103.8307
 Red. masses --      1.0380                 1.1001                 1.1002
 Frc consts  --      5.6412                 6.0904                 6.2448
 IR Inten    --     25.3686                20.9188                36.6941

                     49                     50                     51
                      A                      A                      A
 Frequencies --   3124.3193              3212.2720              3239.5404
 Red. masses --      1.1015                 1.0866                 1.1056
 Frc consts  --      6.3349                 6.6062                 6.8362
 IR Inten    --     21.8735                 1.0964                 4.1856

 - Thermochemistry -
 -------------------
 Temperature   298.150 Kelvin.  Pressure   1.00000 Atm.
 Atom     1 has atomic number  6 and mass  12.00000

 Molecular mass:   126.06808 amu.
 Principal axes and moments of inertia in atomic units:
                           1         2         3
     Eigenvalues --   464.968011930.203412248.68791
           X            0.99980   0.01974   0.00062
           Y           -0.01973   0.99979  -0.00572
           Z           -0.00073   0.00570   0.99998
 This molecule is an asymmetric top.
 Rotational symmetry number  1.
 Warning -- assumption of classical behavior for rotation
           may cause significant error
 Rotational temperatures (Kelvin)      0.18628     0.04487     0.03852
 Rotational constants (GHZ):           3.88143     0.93500     0.80258
 Zero-point vibrational energy     413011.9 (Joules/Mol)
                                   98.71221 (Kcal/Mol)
 Warning -- explicit consideration of  11 degrees of freedom as
           vibrations may cause significant error
 Vibrational temperatures:     84.70    98.10   152.39   210.97   299.61
          (Kelvin)            374.53   401.03   567.81   600.73   676.78
                              779.76  1044.22  1092.45  1128.61  1188.80
                             1257.92  1297.42  1350.57  1384.72  1429.30
                             1496.41  1500.53  1532.70  1564.73  1617.52
                             1633.12  1641.48  1809.96  1845.32  1862.04
                             1876.80  1933.36  1966.50  1996.30  2004.01
                             2026.81  2124.14  2152.44  2170.24  2420.30
                             2642.34  4151.29  4265.55  4318.71  4350.90
                             4369.73  4410.41  4465.71  4495.19  4621.74
                             4660.97

 Zero-point correction=                           0.157308 (Hartree/Particle)
 Thermal correction to Energy=                    0.166521
 Thermal correction to Enthalpy=                  0.167466
 Thermal correction to Gibbs Free Energy=         0.122346
 Sum of electronic and zero-point Energies=           -423.042269
 Sum of electronic and thermal Energies=              -423.033056
 Sum of electronic and thermal Enthalpies=            -423.032112
 Sum of electronic and thermal Free Energies=         -423.077231

                     E (Thermal)             CV                S
                      KCal/Mol        Cal/Mol-Kelvin    Cal/Mol-Kelvin
 Total                  104.494             33.015             94.962
 Electronic               0.000              0.000              0.000
 Translational            0.889              2.981             40.409
 Rotational               0.889              2.981             29.091
 Vibrational            102.716             27.053             25.462
 Vibration     1          0.596              1.974              4.495
 Vibration     2          0.598              1.969              4.205
 Vibration     3          0.605              1.945              3.342
 Vibration     4          0.617              1.906              2.715
 Vibration     5          0.642              1.828              2.059
 Vibration     6          0.668              1.745              1.660
 Vibration     7          0.679              1.713              1.541
 Vibration     8          0.762              1.482              0.983
 Vibration     9          0.781              1.432              0.900
 Vibration    10          0.827              1.316              0.736
 Vibration    11          0.897              1.157              0.561

 Optimization completed.
    -- Stationary point found.
 Normal termination of Gaussian 09 at Tue Jan 28 14:04:43 2020.
