 Gaussian 09, Revision D.01,
 Gaussian 09:  ES64L-G09RevD.01 24-Apr-2013

 -----------------------------
 # b3lyp 6-31G(2df,p) opt Freq
 -----------------------------

 -----
 titel
 -----
 Symbolic Z-matrix:
 Charge =  0 Multiplicity = 1

 SCF Done:  E(RB3LYP) =  -423.223249360     A.U. after   14 cycles
 Optimization completed.
    -- Stationary point found.
 Normal termination of Gaussian 09 at Tue Jan 28 00:38:59 2020.

 ----------------------------------------------------------------------
 #N Geom=AllCheck Guess=TCheck SCRF=Check GenChk RB3LYP/6-31G(2df,p) Fr
 eq
 ----------------------------------------------------------------------

 Structure from the checkpoint file:  "/scratch/puck/g09_25dfb525-c534-4937-aad3-6885b2334c99/Gau-81304.chk"
 -----
 titel
 -----
 Charge =  0 Multiplicity = 1

                         Standard orientation:
 ---------------------------------------------------------------------
 Center     Atomic      Atomic             Coordinates (Angstroms)
 Number     Number       Type             X           Y           Z
 ---------------------------------------------------------------------
      1          6           0        2.874522   -0.024712   -0.172270
      2          6           0        1.387001   -0.060029    0.047846
      3          6           0        0.706829   -1.202565    0.186550
      4          6           0       -0.784871   -1.295216    0.379616
      5          8           0       -1.429648   -1.779719   -0.798981
      6          6           0       -1.388380    0.044680    0.854909
      7          6           0       -0.817563    1.206340    0.069405
      8          8           0       -1.494673    1.996171   -0.545782
      9          6           0        0.702894    1.290731    0.097199
     10          1           0        3.373654    0.553324    0.616112
     11          1           0        3.305658   -1.028672   -0.185844
     12          1           0        3.120581    0.468915   -1.120854
     13          1           0        1.233958   -2.150971    0.115759
     14          1           0       -1.010998   -2.058718    1.132134
     15          1           0       -1.138754   -1.233773   -1.538170
     16          1           0       -2.475437    0.026293    0.759692
     17          1           0       -1.122785    0.187076    1.911223
     18          1           0        1.027163    1.931543   -0.730044
     19          1           0        0.998932    1.817995    1.018561
 ---------------------------------------------------------------------

 SCF Done:  E(RB3LYP) =  -423.223249360     A.U. after    1 cycles

 The electronic state is 1-A.
 Alpha  occ. eigenvalues --  -19.13843 -19.13060 -10.27038 -10.24523 -10.20979
 Alpha  occ. eigenvalues --  -10.20010 -10.19274 -10.18934 -10.18595  -1.04142
 Alpha  occ. eigenvalues --   -1.02012  -0.84117  -0.77074  -0.73449  -0.69819
 Alpha  occ. eigenvalues --   -0.63153  -0.56341  -0.51637  -0.50779  -0.47160
 Alpha  occ. eigenvalues --   -0.47049  -0.45064  -0.43723  -0.41387  -0.41216
 Alpha  occ. eigenvalues --   -0.40443  -0.39354  -0.37636  -0.36280  -0.34503
 Alpha  occ. eigenvalues --   -0.33184  -0.27882  -0.25739  -0.23974
 Alpha virt. eigenvalues --   -0.01815   0.00412   0.08132   0.10088   0.11134
 Alpha virt. eigenvalues --    0.12529   0.14048   0.14842   0.15830   0.16375
 Alpha virt. eigenvalues --    0.17262   0.17665   0.20166   0.22075   0.22377

 Mulliken charges:
               1
     1  C   -0.469799
     2  C    0.297023
     3  C   -0.188791
     4  C    0.078958
     5  O   -0.428627
     6  C   -0.318910
     7  C    0.361751
     8  O   -0.306417
     9  C   -0.387307
    10  H    0.128137
    11  H    0.127575
    12  H    0.130830
    13  H    0.090949
    14  H    0.094873
    15  H    0.281639
    16  H    0.127594
    17  H    0.116656
    18  H    0.130111
    19  H    0.133756
 Sum of Mulliken charges =   0.00000

 Dipole moment (field-independent basis, Debye):
    X=              2.9181    Y=             -0.4686    Z=              1.3182  Tot=              3.2361
 Quadrupole moment (field-independent basis, Debye-Ang):
   XX=            -55.4130   YY=            -59.8672   ZZ=            -50.5921
   XY=              2.2797   XZ=             -2.9727   YZ=              1.0575

  Exact polarizability:  89.531   4.847  84.262  -1.007  -4.036  61.481
 Approx polarizability: 120.952  10.230 132.154   3.759  -9.341  98.537

                      1                      2                      3
                      A                      A                      A
 Frequencies --     76.3518                93.3749               141.3214
 Red. masses --      4.2712                 3.4599                 2.6566
 Frc consts  --      0.0147                 0.0178                 0.0313
 IR Inten    --      4.7933                 1.2672                 0.2805

                      4                      5                      6
                      A                      A                      A
 Frequencies --    198.8763               296.0614               297.8597
 Red. masses --      1.1369                 1.1154                 2.9061
 Frc consts  --      0.0265                 0.0576                 0.1519
 IR Inten    --      0.6920                79.1277                 3.9451

                      7                      8                      9
                      A                      A                      A
 Frequencies --    372.9130               389.6978               414.3501
 Red. masses --      2.9100                 2.1424                 3.9011
 Frc consts  --      0.2384                 0.1917                 0.3946
 IR Inten    --      2.0963                 3.6668                14.1362

                     10                     11                     12
                      A                      A                      A
 Frequencies --    474.5733               491.3318               514.3320
 Red. masses --      2.9535                 4.0228                 2.9220
 Frc consts  --      0.3919                 0.5722                 0.4554
 IR Inten    --      8.8204                 0.4359                 3.4450

                     13                     14                     15
                      A                      A                      A
 Frequencies --    593.5398               690.9293               792.6549
 Red. masses --      4.1960                 3.8312                 2.0349
 Frc consts  --      0.8709                 1.0776                 0.7533
 IR Inten    --      1.1440                 2.3633                 5.4895

                     16                     17                     18
                      A                      A                      A
 Frequencies --    830.7919               873.0602               899.9238
 Red. masses --      2.4574                 2.1941                 1.7036
 Frc consts  --      0.9993                 0.9854                 0.8129
 IR Inten    --      1.9991                 5.2564                10.3158

                     19                     20                     21
                      A                      A                      A
 Frequencies --    934.0677               959.2767              1019.1073
 Red. masses --      3.0196                 2.1035                 1.6477
 Frc consts  --      1.5522                 1.1405                 1.0082
 IR Inten    --      7.9995                22.9903                 6.5066

                     22                     23                     24
                      A                      A                      A
 Frequencies --   1037.1342              1068.1676              1106.0352
 Red. masses --      1.7506                 2.1209                 1.8700
 Frc consts  --      1.1094                 1.4258                 1.3478
 IR Inten    --     24.1044                51.9625                 4.8303

                     25                     26                     27
                      A                      A                      A
 Frequencies --   1132.4780              1164.1464              1214.4935
 Red. masses --      1.5700                 1.9461                 1.3398
 Frc consts  --      1.1863                 1.5539                 1.1643
 IR Inten    --     39.8405                14.0760                12.3369

                     28                     29                     30
                      A                      A                      A
 Frequencies --   1230.8944              1252.2483              1288.6199
 Red. masses --      1.9675                 1.5352                 1.5284
 Frc consts  --      1.7563                 1.4184                 1.4953
 IR Inten    --     23.1119                12.3174                12.1220

                     31                     32                     33
                      A                      A                      A
 Frequencies --   1323.0103              1365.6497              1378.2751
 Red. masses --      1.6240                 1.7260                 1.6094
 Frc consts  --      1.6748                 1.8966                 1.8014
 IR Inten    --     11.3789                 1.6899                29.3869

                     34                     35                     36
                      A                      A                      A
 Frequencies --   1413.2167              1426.1925              1443.2014
 Red. masses --      1.2629                 1.1973                 1.0913
 Frc consts  --      1.4860                 1.4348                 1.3392
 IR Inten    --      2.8973                59.2077                 6.7239

                     37                     38                     39
                      A                      A                      A
 Frequencies --   1456.3844              1478.5529              1488.2451
 Red. masses --      1.1042                 1.0446                 1.0621
 Frc consts  --      1.3800                 1.3455                 1.3860
 IR Inten    --     13.0481                 7.1837                 9.1008

                     40                     41                     42
                      A                      A                      A
 Frequencies --   1730.6358              1820.4031              2990.0152
 Red. masses --      7.0430                11.3308                 1.0693
 Frc consts  --     12.4286                22.1232                 5.6325
 IR Inten    --     11.2419               190.1721                 9.7876

                     43                     44                     45
                      A                      A                      A
 Frequencies --   3018.8777              3025.4153              3048.4928
 Red. masses --      1.0384                 1.0669                 1.0840
 Frc consts  --      5.5755                 5.7536                 5.9354
 IR Inten    --     26.7649                 7.3234                34.8050

                     46                     47                     48
                      A                      A                      A
 Frequencies --   3066.1406              3070.0937              3117.8655
 Red. masses --      1.0977                 1.0899                 1.0995
 Frc consts  --      6.0802                 6.0526                 6.2971
 IR Inten    --     11.5144                14.7398                16.5447

                     49                     50                     51
                      A                      A                      A
 Frequencies --   3124.8779              3156.8272              3799.5380
 Red. masses --      1.0965                 1.0897                 1.0662
 Frc consts  --      6.3083                 6.3982                 9.0685
 IR Inten    --      9.6484                17.3573                13.9523

 - Thermochemistry -
 -------------------
 Temperature   298.150 Kelvin.  Pressure   1.00000 Atm.
 Atom     1 has atomic number  6 and mass  12.00000

 Molecular mass:   126.06808 amu.
 Principal axes and moments of inertia in atomic units:
                           1         2         3
     Eigenvalues --   878.140281157.955461767.97847
           X            0.99839   0.05326  -0.01960
           Y           -0.05327   0.99858   0.00023
           Z            0.01959   0.00081   0.99981
 This molecule is an asymmetric top.
 Rotational symmetry number  1.
 Warning -- assumption of classical behavior for rotation
           may cause significant error
 Rotational temperatures (Kelvin)      0.09863     0.07480     0.04899
 Rotational constants (GHZ):           2.05519     1.55856     1.02079
 Zero-point vibrational energy     416243.8 (Joules/Mol)
                                   99.48465 (Kcal/Mol)
 Warning -- explicit consideration of  13 degrees of freedom as
           vibrations may cause significant error
 Vibrational temperatures:    109.85   134.35   203.33   286.14   425.97
          (Kelvin)            428.55   536.54   560.69   596.16   682.80
                              706.92   740.01   853.97   994.09  1140.45
                             1195.32  1256.14  1294.79  1343.91  1380.18
                             1466.27  1492.20  1536.85  1591.34  1629.38
                             1674.94  1747.38  1770.98  1801.70  1854.03
                             1903.51  1964.86  1983.03  2033.30  2051.97
                             2076.44  2095.41  2127.31  2141.25  2490.00
                             2619.15  4301.96  4343.49  4352.89  4386.10
                             4411.49  4417.17  4485.91  4496.00  4541.96
                             5466.68

 Zero-point correction=                           0.158539 (Hartree/Particle)
 Thermal correction to Energy=                    0.167526
 Thermal correction to Enthalpy=                  0.168470
 Thermal correction to Gibbs Free Energy=         0.124680
 Sum of electronic and zero-point Energies=           -423.064710
 Sum of electronic and thermal Energies=              -423.055724
 Sum of electronic and thermal Enthalpies=            -423.054780
 Sum of electronic and thermal Free Energies=         -423.098569

                     E (Thermal)             CV                S
                      KCal/Mol        Cal/Mol-Kelvin    Cal/Mol-Kelvin
 Total                  105.124             33.751             92.163
 Electronic               0.000              0.000              0.000
 Translational            0.889              2.981             40.409
 Rotational               0.889              2.981             28.976
 Vibrational            103.346             27.789             22.778
 Vibration     1          0.599              1.965              3.983
 Vibration     2          0.602              1.954              3.588
 Vibration     3          0.615              1.912              2.786
 Vibration     4          0.637              1.841              2.143
 Vibration     5          0.690              1.681              1.439
 Vibration     6          0.691              1.678              1.429
 Vibration     7          0.744              1.528              1.068
 Vibration     8          0.758              1.492              1.001
 Vibration     9          0.778              1.439              0.911
 Vibration    10          0.831              1.306              0.725
 Vibration    11          0.847              1.269              0.680
 Vibration    12          0.869              1.218              0.623
 Vibration    13          0.951              1.046              0.461

 Optimization completed.
    -- Stationary point found.
 Normal termination of Gaussian 09 at Tue Jan 28 01:20:50 2020.
