 Gaussian 09, Revision D.01,
 Gaussian 09:  ES64L-G09RevD.01 24-Apr-2013

 -----------------------------
 # b3lyp 6-31G(2df,p) opt Freq
 -----------------------------

 -----
 titel
 -----
 Symbolic Z-matrix:
 Charge =  0 Multiplicity = 1

 SCF Done:  E(RB3LYP) =  -423.207617459     A.U. after   14 cycles
 Optimization completed.
    -- Stationary point found.
 Normal termination of Gaussian 09 at Tue Jan 28 08:13:28 2020.

 ----------------------------------------------------------------------
 #N Geom=AllCheck Guess=TCheck SCRF=Check GenChk RB3LYP/6-31G(2df,p) Fr
 eq
 ----------------------------------------------------------------------

 Structure from the checkpoint file:  "/scratch/puck/g09_576f5e82-f227-4317-9382-d19abb489742/Gau-14191.chk"
 -----
 titel
 -----
 Charge =  0 Multiplicity = 1

                         Standard orientation:
 ---------------------------------------------------------------------
 Center     Atomic      Atomic             Coordinates (Angstroms)
 Number     Number       Type             X           Y           Z
 ---------------------------------------------------------------------
      1          6           0        2.875954   -0.299163   -0.154801
      2          6           0        1.430668   -0.062052    0.282573
      3          8           0        0.888281    0.910405   -0.601672
      4          6           0       -0.142219    1.728651   -0.088298
      5          6           0       -1.253942    0.968513    0.657343
      6          6           0       -1.663094   -0.342331   -0.004564
      7          8           0       -2.763230   -0.499243   -0.493820
      8          6           0       -0.690039   -1.463963    0.062838
      9          6           0        0.630278   -1.350756    0.242691
     10          1           0        3.361223   -1.036334    0.491701
     11          1           0        2.901444   -0.666418   -1.184945
     12          1           0        3.438207    0.635953   -0.107752
     13          1           0        1.440527    0.333050    1.313453
     14          1           0        0.271159    2.498636    0.583179
     15          1           0       -0.562284    2.236352   -0.961529
     16          1           0       -0.918132    0.738126    1.675746
     17          1           0       -2.139363    1.605004    0.730946
     18          1           0       -1.140664   -2.444540   -0.063672
     19          1           0        1.221846   -2.262525    0.300104
 ---------------------------------------------------------------------

 SCF Done:  E(RB3LYP) =  -423.207617459     A.U. after    1 cycles

 The electronic state is 1-A.
 Alpha  occ. eigenvalues --  -19.14761 -19.12324 -10.26593 -10.25240 -10.24149
 Alpha  occ. eigenvalues --  -10.20760 -10.19358 -10.19240 -10.18648  -1.04387
 Alpha  occ. eigenvalues --   -1.03181  -0.81334  -0.79081  -0.73612  -0.65922
 Alpha  occ. eigenvalues --   -0.64867  -0.57354  -0.53815  -0.50293  -0.48619
 Alpha  occ. eigenvalues --   -0.46990  -0.45582  -0.44002  -0.41743  -0.40318
 Alpha  occ. eigenvalues --   -0.39635  -0.38517  -0.37787  -0.36170  -0.35239
 Alpha  occ. eigenvalues --   -0.32092  -0.27671  -0.26245  -0.24102
 Alpha virt. eigenvalues --   -0.05102   0.04176   0.09483   0.09612   0.11533
 Alpha virt. eigenvalues --    0.13115   0.13243   0.15056   0.15787   0.16782
 Alpha virt. eigenvalues --    0.17637   0.17919   0.19001   0.21395   0.22163

 Mulliken charges:
               1
     1  C   -0.403814
     2  C    0.062335
     3  O   -0.247264
     4  C   -0.074778
     5  C   -0.346205
     6  C    0.383807
     7  O   -0.323862
     8  C   -0.168700
     9  C   -0.027817
    10  H    0.117177
    11  H    0.136153
    12  H    0.126663
    13  H    0.086314
    14  H    0.094121
    15  H    0.125411
    16  H    0.118709
    17  H    0.124732
    18  H    0.111437
    19  H    0.105579
 Sum of Mulliken charges =   0.00000

 Dipole moment (field-independent basis, Debye):
    X=              2.7936    Y=              0.2932    Z=              2.0639  Tot=              3.4857
 Quadrupole moment (field-independent basis, Debye-Ang):
   XX=            -60.4872   YY=            -49.3175   ZZ=            -54.0275
   XY=             -4.0695   XZ=             -1.3138   YZ=              0.4033

  Exact polarizability: 102.189  -2.578  79.153   5.000   1.502  56.660
 Approx polarizability: 156.249  -1.917 108.338  14.984   1.311  92.269

                      1                      2                      3
                      A                      A                      A
 Frequencies --     65.4187               146.8481               200.9650
 Red. masses --      4.2220                 3.6912                 2.4058
 Frc consts  --      0.0106                 0.0469                 0.0572
 IR Inten    --      2.1536                 1.9768                 2.9017

                      4                      5                      6
                      A                      A                      A
 Frequencies --    227.6214               286.6134               308.9144
 Red. masses --      1.1339                 3.7698                 2.3249
 Frc consts  --      0.0346                 0.1825                 0.1307
 IR Inten    --      0.4022                 2.6895                 1.6482

                      7                      8                      9
                      A                      A                      A
 Frequencies --    340.0805               359.4607               477.6742
 Red. masses --      3.7611                 4.2197                 3.1574
 Frc consts  --      0.2563                 0.3212                 0.4245
 IR Inten    --      1.4933                 2.2017                 8.0005

                     10                     11                     12
                      A                      A                      A
 Frequencies --    499.6471               589.6113               649.4614
 Red. masses --      2.3799                 3.0654                 3.1398
 Frc consts  --      0.3501                 0.6279                 0.7803
 IR Inten    --      4.0468                 8.0747                 5.2145

                     13                     14                     15
                      A                      A                      A
 Frequencies --    712.0348               758.3316               811.1772
 Red. masses --      4.9208                 2.1780                 2.4833
 Frc consts  --      1.4699                 0.7379                 0.9627
 IR Inten    --      7.2195                 1.6099                 3.5965

                     16                     17                     18
                      A                      A                      A
 Frequencies --    835.5173               891.4058               917.3568
 Red. masses --      1.6304                 2.2042                 2.5914
 Frc consts  --      0.6706                 1.0319                 1.2849
 IR Inten    --     15.4094                 3.3149                10.1849

                     19                     20                     21
                      A                      A                      A
 Frequencies --    970.9801              1010.4028              1050.6164
 Red. masses --      2.0884                 1.2690                 2.1815
 Frc consts  --      1.1601                 0.7633                 1.4187
 IR Inten    --      4.0611                 4.5853                 9.9738

                     22                     23                     24
                      A                      A                      A
 Frequencies --   1067.4154              1092.3351              1138.1643
 Red. masses --      1.7498                 2.2236                 2.0000
 Frc consts  --      1.1747                 1.5632                 1.5265
 IR Inten    --      6.6384                 3.6305                23.7238

                     25                     26                     27
                      A                      A                      A
 Frequencies --   1157.1777              1192.9559              1240.5555
 Red. masses --      4.2694                 1.8829                 1.3293
 Frc consts  --      3.3684                 1.5788                 1.2053
 IR Inten    --     94.5152                44.9623                37.7185

                     28                     29                     30
                      A                      A                      A
 Frequencies --   1262.4889              1266.5745              1324.4483
 Red. masses --      1.4007                 1.2833                 1.3657
 Frc consts  --      1.3154                 1.2130                 1.4114
 IR Inten    --     21.1284                 5.3686                11.5430

                     31                     32                     33
                      A                      A                      A
 Frequencies --   1345.9882              1363.4746              1402.6011
 Red. masses --      1.4475                 1.2614                 1.3926
 Frc consts  --      1.5451                 1.3816                 1.6142
 IR Inten    --     37.4009                 1.7863                13.1662

                     34                     35                     36
                      A                      A                      A
 Frequencies --   1411.4138              1416.0241              1474.1355
 Red. masses --      1.4162                 1.3055                 1.0948
 Frc consts  --      1.6622                 1.5423                 1.4017
 IR Inten    --      3.2948                12.7716                 9.3653

                     37                     38                     39
                      A                      A                      A
 Frequencies --   1485.0987              1497.5783              1507.7085
 Red. masses --      1.0497                 1.0499                 1.0897
 Frc consts  --      1.3640                 1.3874                 1.4595
 IR Inten    --      3.7981                 2.5114                 0.5671

                     40                     41                     42
                      A                      A                      A
 Frequencies --   1685.8015              1777.5265              2947.2345
 Red. masses --      7.9405                11.0647                 1.0807
 Frc consts  --     13.2957                20.5979                 5.5309
 IR Inten    --      6.2376               216.9605                27.1087

                     43                     44                     45
                      A                      A                      A
 Frequencies --   2972.9829              3037.6698              3046.1610
 Red. masses --      1.0711                 1.0644                 1.0349
 Frc consts  --      5.5777                 5.7866                 5.6577
 IR Inten    --     72.0421                 8.9455                15.3825

                     46                     47                     48
                      A                      A                      A
 Frequencies --   3083.2648              3110.5414              3120.3914
 Red. masses --      1.0914                 1.0990                 1.1019
 Frc consts  --      6.1128                 6.2648                 6.3215
 IR Inten    --     18.3101                19.2163                16.9828

                     49                     50                     51
                      A                      A                      A
 Frequencies --   3132.7600              3144.6424              3176.8086
 Red. masses --      1.1020                 1.0861                 1.0940
 Frc consts  --      6.3723                 6.3277                 6.5053
 IR Inten    --     15.6530                10.1345                 9.9420

 - Thermochemistry -
 -------------------
 Temperature   298.150 Kelvin.  Pressure   1.00000 Atm.
 Atom     1 has atomic number  6 and mass  12.00000

 Molecular mass:   126.06808 amu.
 Principal axes and moments of inertia in atomic units:
                           1         2         3
     Eigenvalues --   596.345621387.973961805.67014
           X            0.99945  -0.03256  -0.00636
           Y            0.03266   0.99933   0.01628
           Z            0.00583  -0.01648   0.99985
 This molecule is an asymmetric top.
 Rotational symmetry number  1.
 Warning -- assumption of classical behavior for rotation
           may cause significant error
 Rotational temperatures (Kelvin)      0.14524     0.06240     0.04797
 Rotational constants (GHZ):           3.02633     1.30027     0.99949
 Zero-point vibrational energy     418645.5 (Joules/Mol)
                                  100.05868 (Kcal/Mol)
 Warning -- explicit consideration of  11 degrees of freedom as
           vibrations may cause significant error
 Vibrational temperatures:     94.12   211.28   289.14   327.50   412.37
          (Kelvin)            444.46   489.30   517.18   687.27   718.88
                              848.32   934.43  1024.46  1091.07  1167.10
                             1202.12  1282.53  1319.87  1397.02  1453.74
                             1511.60  1535.77  1571.62  1637.56  1664.92
                             1716.40  1784.88  1816.44  1822.32  1905.58
                             1936.57  1961.73  2018.03  2030.71  2037.34
                             2120.95  2136.72  2154.68  2169.25  2425.49
                             2557.46  4240.41  4277.45  4370.52  4382.74
                             4436.12  4475.37  4489.54  4507.34  4524.43
                             4570.71

 Zero-point correction=                           0.159454 (Hartree/Particle)
 Thermal correction to Energy=                    0.167934
 Thermal correction to Enthalpy=                  0.168879
 Thermal correction to Gibbs Free Energy=         0.126281
 Sum of electronic and zero-point Energies=           -423.048164
 Sum of electronic and thermal Energies=              -423.039683
 Sum of electronic and thermal Enthalpies=            -423.038739
 Sum of electronic and thermal Free Energies=         -423.081336

                     E (Thermal)             CV                S
                      KCal/Mol        Cal/Mol-Kelvin    Cal/Mol-Kelvin
 Total                  105.380             32.228             89.654
 Electronic               0.000              0.000              0.000
 Translational            0.889              2.981             40.409
 Rotational               0.889              2.981             28.793
 Vibrational            103.603             26.267             20.452
 Vibration     1          0.597              1.971              4.287
 Vibration     2          0.617              1.906              2.713
 Vibration     3          0.638              1.839              2.124
 Vibration     4          0.651              1.799              1.898
 Vibration     5          0.684              1.699              1.494
 Vibration     6          0.698              1.657              1.368
 Vibration     7          0.720              1.595              1.212
 Vibration     8          0.734              1.556              1.124
 Vibration     9          0.834              1.300              0.716
 Vibration    10          0.855              1.251              0.659
 Vibration    11          0.947              1.054              0.468

 Normal termination of Gaussian 09 at Tue Jan 28 08:56:04 2020.
