 Gaussian 09, Revision D.01,
 Gaussian 09:  ES64L-G09RevD.01 24-Apr-2013

 -----------------------------
 # b3lyp 6-31G(2df,p) opt Freq
 -----------------------------

 -----
 titel
 -----
 Symbolic Z-matrix:
 Charge =  0 Multiplicity = 1

 SCF Done:  E(RB3LYP) =  -423.165138238     A.U. after   15 cycles
 Optimization completed.
    -- Stationary point found.
 Normal termination of Gaussian 09 at Tue Jan 28 08:23:23 2020.

 ----------------------------------------------------------------------
 #N Geom=AllCheck Guess=TCheck SCRF=Check GenChk RB3LYP/6-31G(2df,p) Fr
 eq
 ----------------------------------------------------------------------

 Structure from the checkpoint file:  "/scratch/puck/g09_bc121af8-39d4-4260-9e5c-22dc17e62604/Gau-60138.chk"
 -----
 titel
 -----
 Charge =  0 Multiplicity = 1

                         Standard orientation:
 ---------------------------------------------------------------------
 Center     Atomic      Atomic             Coordinates (Angstroms)
 Number     Number       Type             X           Y           Z
 ---------------------------------------------------------------------
      1          6           0        2.330133   -0.147547   -0.387152
      2          6           0        0.924161   -0.685789   -0.225555
      3          8           0        0.630652   -1.803069   -0.591209
      4          6           0       -0.135616    0.237809    0.442248
      5          6           0        0.372278    0.698286    1.831314
      6          6           0       -1.464420   -0.548585    0.628472
      7          8           0       -2.033219   -1.001551   -0.570817
      8          6           0       -0.336433    1.393140   -0.431829
      9          6           0       -0.486478    2.349094   -1.145606
     10          1           0        2.869044   -0.758309   -1.112323
     11          1           0        2.319786    0.899904   -0.697099
     12          1           0        2.854789   -0.204096    0.573463
     13          1           0       -0.395326    1.306366    2.317540
     14          1           0        0.583105   -0.166384    2.468961
     15          1           0        1.276469    1.304218    1.749448
     16          1           0       -1.263969   -1.375406    1.327404
     17          1           0       -2.193444    0.119520    1.097582
     18          1           0       -1.412010   -1.653827   -0.919342
     19          1           0       -0.639658    3.186523   -1.780784
 ---------------------------------------------------------------------

 SCF Done:  E(RB3LYP) =  -423.165138238     A.U. after    1 cycles

 The electronic state is 1-A.
 Alpha  occ. eigenvalues --  -19.15018 -19.12354 -10.28870 -10.23041 -10.22931
 Alpha  occ. eigenvalues --  -10.19970 -10.19725 -10.18882 -10.18050  -1.06178
 Alpha  occ. eigenvalues --   -1.00986  -0.83523  -0.74981  -0.73697  -0.68379
 Alpha  occ. eigenvalues --   -0.64228  -0.56642  -0.52801  -0.50834  -0.48256
 Alpha  occ. eigenvalues --   -0.46336  -0.45798  -0.43249  -0.42346  -0.41578
 Alpha  occ. eigenvalues --   -0.40305  -0.39134  -0.38441  -0.36617  -0.32846
 Alpha  occ. eigenvalues --   -0.29153  -0.27722  -0.26249  -0.24695
 Alpha virt. eigenvalues --   -0.03320   0.04544   0.05586   0.07959   0.11778
 Alpha virt. eigenvalues --    0.12156   0.12609   0.13696   0.14745   0.15186
 Alpha virt. eigenvalues --    0.16604   0.18263   0.19032   0.20510   0.21123

 Mulliken charges:
               1
     1  C   -0.481500
     2  C    0.393914
     3  O   -0.323695
     4  C   -0.075512
     5  C   -0.433359
     6  C   -0.070430
     7  O   -0.422007
     8  C    0.359856
     9  C   -0.501016
    10  H    0.147497
    11  H    0.155369
    12  H    0.150294
    13  H    0.139198
    14  H    0.126625
    15  H    0.133415
    16  H    0.091375
    17  H    0.111164
    18  H    0.296060
    19  H    0.202751
 Sum of Mulliken charges =   0.00000

 Dipole moment (field-independent basis, Debye):
    X=              2.3473    Y=              1.6776    Z=              1.5134  Tot=              3.2580
 Quadrupole moment (field-independent basis, Debye-Ang):
   XX=            -55.1327   YY=            -53.7079   ZZ=            -50.5506
   XY=             -0.6407   XZ=             -1.3720   YZ=             -3.0245

  Exact polarizability:  74.436  -1.942  85.332   0.834  -7.329  73.100
 Approx polarizability:  99.995  -2.828 137.945   4.706 -14.747 110.437

                      1                      2                      3
                      A                      A                      A
 Frequencies --     56.8949               129.4395               132.9172
 Red. masses --      4.8161                 2.0447                 2.2330
 Frc consts  --      0.0092                 0.0202                 0.0232
 IR Inten    --      1.8682                 0.5665                 2.5564

                      4                      5                      6
                      A                      A                      A
 Frequencies --    141.0289               192.6710               218.7728
 Red. masses --      1.9982                 2.7466                 1.9901
 Frc consts  --      0.0234                 0.0601                 0.0561
 IR Inten    --      0.5113                 1.6226                 0.9599

                      7                      8                      9
                      A                      A                      A
 Frequencies --    241.5411               281.5787               292.6781
 Red. masses --      1.8235                 2.5784                 2.1739
 Frc consts  --      0.0627                 0.1204                 0.1097
 IR Inten    --      1.4278                 5.6164                 2.2323

                     10                     11                     12
                      A                      A                      A
 Frequencies --    384.0291               414.7640               467.4792
 Red. masses --      3.2933                 5.1993                 5.7402
 Frc consts  --      0.2862                 0.5270                 0.7391
 IR Inten    --      0.4665                 0.3021                 3.4221

                     13                     14                     15
                      A                      A                      A
 Frequencies --    537.4086               571.4497               592.2818
 Red. masses --      2.2010                 1.4838                 3.4203
 Frc consts  --      0.3745                 0.2855                 0.7069
 IR Inten    --     23.0243               101.6865                16.9287

                     16                     17                     18
                      A                      A                      A
 Frequencies --    625.5577               630.4139               641.2760
 Red. masses --      2.3923                 1.3137                 1.2468
 Frc consts  --      0.5516                 0.3076                 0.3021
 IR Inten    --      4.5531                49.5043                49.0010

                     19                     20                     21
                      A                      A                      A
 Frequencies --    678.8645               835.8715               916.1748
 Red. masses --      3.7086                 2.4126                 1.9566
 Frc consts  --      1.0070                 0.9932                 0.9676
 IR Inten    --      8.4096                 2.0370                 3.9780

                     22                     23                     24
                      A                      A                      A
 Frequencies --    960.4551              1002.3071              1025.1173
 Red. masses --      1.6559                 1.5148                 2.0439
 Frc consts  --      0.9000                 0.8966                 1.2655
 IR Inten    --      9.6055                18.6971                13.5211

                     25                     26                     27
                      A                      A                      A
 Frequencies --   1091.5188              1110.1038              1139.0357
 Red. masses --      4.0059                 2.7992                 2.8027
 Frc consts  --      2.8120                 2.0324                 2.1424
 IR Inten    --      8.3887               108.7861                22.5462

                     28                     29                     30
                      A                      A                      A
 Frequencies --   1190.4266              1229.6896              1280.4683
 Red. masses --      1.9261                 3.3977                 1.5576
 Frc consts  --      1.6082                 3.0271                 1.5046
 IR Inten    --     13.2640                32.6180                29.6687

                     31                     32                     33
                      A                      A                      A
 Frequencies --   1382.6599              1390.7613              1407.4254
 Red. masses --      1.2946                 1.2350                 1.2151
 Frc consts  --      1.4582                 1.4074                 1.4181
 IR Inten    --     35.4949                 2.6801                 3.7057

                     34                     35                     36
                      A                      A                      A
 Frequencies --   1443.4938              1463.2172              1474.9989
 Red. masses --      1.2052                 1.0496                 1.0533
 Frc consts  --      1.4796                 1.3240                 1.3501
 IR Inten    --     78.7495                 9.6894                 5.9958

                     37                     38                     39
                      A                      A                      A
 Frequencies --   1488.5287              1495.4321              1502.4258
 Red. masses --      1.0679                 1.0637                 1.0511
 Frc consts  --      1.3941                 1.4016                 1.3979
 IR Inten    --      1.4111                 8.5458                 5.5049

                     40                     41                     42
                      A                      A                      A
 Frequencies --   1792.2848              2227.6746              2985.8391
 Red. masses --     10.8485                 5.9426                 1.0676
 Frc consts  --     20.5321                17.3751                 5.6076
 IR Inten    --    161.3094                 0.7429                50.0157

                     43                     44                     45
                      A                      A                      A
 Frequencies --   3042.6203              3047.0559              3080.3445
 Red. masses --      1.0361                 1.0387                 1.0951
 Frc consts  --      5.6511                 5.6820                 6.1221
 IR Inten    --     16.1398                 4.6891                22.6744

                     46                     47                     48
                      A                      A                      A
 Frequencies --   3116.3286              3117.3478              3135.0460
 Red. masses --      1.1011                 1.0938                 1.1014
 Frc consts  --      6.3005                 6.2624                 6.3777
 IR Inten    --     14.8170                 6.8055                14.3097

                     49                     50                     51
                      A                      A                      A
 Frequencies --   3159.0354              3500.4662              3771.8031
 Red. masses --      1.1043                 1.1614                 1.0647
 Frc consts  --      6.4932                 8.3843                 8.9242
 IR Inten    --      6.0841                70.3386                67.5053

 - Thermochemistry -
 -------------------
 Temperature   298.150 Kelvin.  Pressure   1.00000 Atm.
 Atom     1 has atomic number  6 and mass  12.00000

 Molecular mass:   126.06808 amu.
 Principal axes and moments of inertia in atomic units:
                           1         2         3
     Eigenvalues --  1054.007681124.383251449.60227
           X            0.99347   0.11276  -0.01724
           Y           -0.11292   0.99357  -0.00844
           Z            0.01617   0.01033   0.99982
 This molecule is an asymmetric top.
 Rotational symmetry number  1.
 Warning -- assumption of classical behavior for rotation
           may cause significant error
 Rotational temperatures (Kelvin)      0.08218     0.07703     0.05975
 Rotational constants (GHZ):           1.71227     1.60509     1.24499
 Zero-point vibrational energy     406951.7 (Joules/Mol)
                                   97.26378 (Kcal/Mol)
 Warning -- explicit consideration of  15 degrees of freedom as
           vibrations may cause significant error
 Vibrational temperatures:     81.86   186.23   191.24   202.91   277.21
          (Kelvin)            314.76   347.52   405.13   421.10   552.53
                              596.75   672.60   773.21   822.19   852.16
                              900.04   907.02   922.65   976.73  1202.63
                             1318.17  1381.88  1442.09  1474.91  1570.45
                             1597.19  1638.82  1712.76  1769.25  1842.31
                             1989.34  2000.99  2024.97  2076.86  2105.24
                             2122.19  2141.66  2151.59  2161.65  2578.69
                             3205.12  4295.95  4377.65  4384.03  4431.92
                             4483.70  4485.16  4510.63  4545.14  5036.38
                             5426.78

 Zero-point correction=                           0.155000 (Hartree/Particle)
 Thermal correction to Energy=                    0.165504
 Thermal correction to Enthalpy=                  0.166449
 Thermal correction to Gibbs Free Energy=         0.119765
 Sum of electronic and zero-point Energies=           -423.010139
 Sum of electronic and thermal Energies=              -422.999634
 Sum of electronic and thermal Enthalpies=            -422.998690
 Sum of electronic and thermal Free Energies=         -423.045373

                     E (Thermal)             CV                S
                      KCal/Mol        Cal/Mol-Kelvin    Cal/Mol-Kelvin
 Total                  103.856             38.288             98.254
 Electronic               0.000              0.000              0.000
 Translational            0.889              2.981             40.409
 Rotational               0.889              2.981             28.931
 Vibrational            102.078             32.326             28.914
 Vibration     1          0.596              1.975              4.562
 Vibration     2          0.612              1.924              2.954
 Vibration     3          0.613              1.920              2.903
 Vibration     4          0.615              1.912              2.790
 Vibration     5          0.635              1.850              2.202
 Vibration     6          0.647              1.812              1.969
 Vibration     7          0.658              1.777              1.792
 Vibration     8          0.681              1.708              1.524
 Vibration     9          0.688              1.687              1.458
 Vibration    10          0.753              1.504              1.023
 Vibration    11          0.778              1.438              0.910
 Vibration    12          0.825              1.322              0.745
 Vibration    13          0.892              1.167              0.571
 Vibration    14          0.928              1.093              0.501
 Vibration    15          0.950              1.048              0.463

 Optimization completed.
    -- Stationary point found.
 Normal termination of Gaussian 09 at Tue Jan 28 10:11:40 2020.
