 Gaussian 09, Revision D.01,
 Gaussian 09:  ES64L-G09RevD.01 24-Apr-2013

 -----------------------------
 # b3lyp 6-31G(2df,p) opt Freq
 -----------------------------

 -----
 titel
 -----
 Symbolic Z-matrix:
 Charge =  0 Multiplicity = 1

 SCF Done:  E(RB3LYP) =  -423.169123686     A.U. after   14 cycles
 Optimization completed.
    -- Stationary point found.
 Normal termination of Gaussian 09 at Mon Jan 27 22:04:35 2020.

 ----------------------------------------------------------------------
 #N Geom=AllCheck Guess=TCheck SCRF=Check GenChk RB3LYP/6-31G(2df,p) Fr
 eq
 ----------------------------------------------------------------------

 Structure from the checkpoint file:  "/scratch/puck/g09_0e6cab45-2e98-4e3c-98e4-492a4a650c97/Gau-62979.chk"
 -----
 titel
 -----
 Charge =  0 Multiplicity = 1

                         Standard orientation:
 ---------------------------------------------------------------------
 Center     Atomic      Atomic             Coordinates (Angstroms)
 Number     Number       Type             X           Y           Z
 ---------------------------------------------------------------------
      1          6           0       -1.646398   -0.187570    1.479230
      2          6           0       -0.962212    0.314073    0.241066
      3          6           0       -0.842783    1.792392   -0.153728
      4          6           0        0.616220    1.563449   -0.662619
      5          6           0        0.526402    0.094306   -0.263731
      6          6           0        1.587674   -0.687373    0.364979
      7          8           0        2.703281   -0.262636    0.583072
      8          6           0       -0.693396   -0.540582   -0.939986
      9          8           0       -0.919465   -1.900357   -0.731586
     10          1           0       -2.720224    0.030886    1.423222
     11          1           0       -1.531710   -1.267320    1.588792
     12          1           0       -1.255394    0.303363    2.376134
     13          1           0       -1.574279    2.141298   -0.890377
     14          1           0       -0.881860    2.453746    0.714584
     15          1           0        0.793562    1.752516   -1.726342
     16          1           0        1.367688    2.099551   -0.081867
     17          1           0        1.302151   -1.722418    0.651801
     18          1           0       -0.944218   -0.181133   -1.942512
     19          1           0       -0.339291   -2.398709   -1.316593
 ---------------------------------------------------------------------

 SCF Done:  E(RB3LYP) =  -423.169123686     A.U. after    1 cycles

 The electronic state is 1-A.
 Alpha  occ. eigenvalues --  -19.16540 -19.12105 -10.25767 -10.25483 -10.21794
 Alpha  occ. eigenvalues --  -10.20102 -10.19509 -10.19063 -10.18593  -1.05204
 Alpha  occ. eigenvalues --   -1.02673  -0.90351  -0.74396  -0.72919  -0.67654
 Alpha  occ. eigenvalues --   -0.62320  -0.58215  -0.53937  -0.50813  -0.48462
 Alpha  occ. eigenvalues --   -0.46548  -0.45529  -0.42567  -0.41409  -0.41188
 Alpha  occ. eigenvalues --   -0.38989  -0.38726  -0.36780  -0.35144  -0.33652
 Alpha  occ. eigenvalues --   -0.32661  -0.28289  -0.25070  -0.23747
 Alpha virt. eigenvalues --   -0.01985   0.06172   0.09620   0.11552   0.11720
 Alpha virt. eigenvalues --    0.12107   0.12651   0.14312   0.15569   0.17376
 Alpha virt. eigenvalues --    0.18112   0.18374   0.19839   0.21163   0.21811

 Mulliken charges:
               1
     1  C   -0.493298
     2  C    0.264577
     3  C   -0.284066
     4  C   -0.303418
     5  C    0.176744
     6  C    0.040167
     7  O   -0.281510
     8  C    0.000994
     9  O   -0.421865
    10  H    0.126714
    11  H    0.145345
    12  H    0.124576
    13  H    0.101598
    14  H    0.114545
    15  H    0.100138
    16  H    0.132276
    17  H    0.069249
    18  H    0.089408
    19  H    0.297825
 Sum of Mulliken charges =   0.00000

 Dipole moment (field-independent basis, Debye):
    X=             -2.5256    Y=             -0.0158    Z=             -1.4057  Tot=              2.8905
 Quadrupole moment (field-independent basis, Debye-Ang):
   XX=            -64.4403   YY=            -49.8397   ZZ=            -49.8610
   XY=             -2.3807   XZ=             -3.0264   YZ=              2.5842

  Exact polarizability:  88.120  -1.877  78.960   0.592  -1.619  68.862
 Approx polarizability: 141.779  -0.292 111.386   5.162   0.249 101.342

                      1                      2                      3
                      A                      A                      A
 Frequencies --     97.4838               164.4292               192.6533
 Red. masses --      4.7867                 3.5726                 1.0777
 Frc consts  --      0.0268                 0.0569                 0.0236
 IR Inten    --      3.0696                 5.3553                 0.2163

                      4                      5                      6
                      A                      A                      A
 Frequencies --    201.0362               218.9051               266.2879
 Red. masses --      2.2039                 2.7229                 2.9226
 Frc consts  --      0.0525                 0.0769                 0.1221
 IR Inten    --      3.7853                 3.6211                 3.0477

                      7                      8                      9
                      A                      A                      A
 Frequencies --    278.4521               346.0362               361.6638
 Red. masses --      3.0809                 1.2391                 2.4147
 Frc consts  --      0.1407                 0.0874                 0.1861
 IR Inten    --      9.2420                97.1002                13.0853

                     10                     11                     12
                      A                      A                      A
 Frequencies --    419.9696               526.8515               549.3489
 Red. masses --      2.2530                 5.2944                 5.1741
 Frc consts  --      0.2341                 0.8659                 0.9200
 IR Inten    --      5.6056                13.5396                 7.6949

                     13                     14                     15
                      A                      A                      A
 Frequencies --    630.7770               691.9583               774.5716
 Red. masses --      3.9460                 3.9639                 1.9335
 Frc consts  --      0.9250                 1.1182                 0.6834
 IR Inten    --      7.6361                 7.2431                 6.0415

                     16                     17                     18
                      A                      A                      A
 Frequencies --    782.1579               808.7792               948.1220
 Red. masses --      2.4836                 2.1493                 2.4120
 Frc consts  --      0.8952                 0.8283                 1.2775
 IR Inten    --      4.4362                33.8606                 2.6639

                     19                     20                     21
                      A                      A                      A
 Frequencies --    956.2696               995.7773              1030.6893
 Red. masses --      2.1570                 1.4892                 1.5717
 Frc consts  --      1.1622                 0.8700                 0.9837
 IR Inten    --     12.2974                 3.5154                 9.2520

                     22                     23                     24
                      A                      A                      A
 Frequencies --   1062.3608              1066.8840              1106.8965
 Red. masses --      1.7936                 1.3491                 1.7732
 Frc consts  --      1.1927                 0.9047                 1.2800
 IR Inten    --      7.6754                37.2325                11.5871

                     25                     26                     27
                      A                      A                      A
 Frequencies --   1159.4487              1165.2116              1218.8706
 Red. masses --      2.7138                 3.1934                 1.2617
 Frc consts  --      2.1495                 2.5545                 1.1044
 IR Inten    --     12.5089                60.5154                 7.6614

                     28                     29                     30
                      A                      A                      A
 Frequencies --   1239.4576              1243.8726              1257.5401
 Red. masses --      1.5018                 1.5376                 1.4901
 Frc consts  --      1.3593                 1.4016                 1.3884
 IR Inten    --      5.4456                 8.3829                32.5562

                     31                     32                     33
                      A                      A                      A
 Frequencies --   1282.9538              1334.0402              1372.6926
 Red. masses --      1.6515                 2.3058                 1.8024
 Frc consts  --      1.6016                 2.4177                 2.0010
 IR Inten    --     67.8925                22.9731                26.6404

                     34                     35                     36
                      A                      A                      A
 Frequencies --   1411.8262              1435.3553              1460.4828
 Red. masses --      1.3237                 1.4962                 1.9662
 Frc consts  --      1.5545                 1.8161                 2.4710
 IR Inten    --      4.7093                13.3074                 2.8865

                     37                     38                     39
                      A                      A                      A
 Frequencies --   1481.2707              1491.1601              1495.5261
 Red. masses --      1.0835                 1.0508                 1.1070
 Frc consts  --      1.4008                 1.3767                 1.4588
 IR Inten    --      1.2728                 2.3953                 2.4000

                     40                     41                     42
                      A                      A                      A
 Frequencies --   1507.3088              1778.1614              2895.1640
 Red. masses --      1.2671                 9.8874                 1.0815
 Frc consts  --      1.6962                18.4194                 5.3408
 IR Inten    --     10.0620               267.6206                88.2012

                     43                     44                     45
                      A                      A                      A
 Frequencies --   3028.5024              3044.3778              3048.4011
 Red. masses --      1.0409                 1.0634                 1.0854
 Frc consts  --      5.6249                 5.8070                 5.9428
 IR Inten    --     28.2929                35.6594                28.8758

                     46                     47                     48
                      A                      A                      A
 Frequencies --   3054.0541              3086.9905              3104.4478
 Red. masses --      1.0666                 1.0973                 1.1026
 Frc consts  --      5.8617                 6.1612                 6.2611
 IR Inten    --     65.3020                15.2742                10.8276

                     49                     50                     51
                      A                      A                      A
 Frequencies --   3130.1993              3136.8728              3811.8566
 Red. masses --      1.1002                 1.0983                 1.0664
 Frc consts  --      6.3515                 6.3674                 9.1291
 IR Inten    --     17.2161                 7.4512                35.0301

 - Thermochemistry -
 -------------------
 Temperature   298.150 Kelvin.  Pressure   1.00000 Atm.
 Atom     1 has atomic number  6 and mass  12.00000

 Molecular mass:   126.06808 amu.
 Principal axes and moments of inertia in atomic units:
                           1         2         3
     Eigenvalues --   878.961911164.979911474.13320
           X            0.99902  -0.01688  -0.04089
           Y            0.01589   0.99957  -0.02447
           Z            0.04129   0.02379   0.99886
 This molecule is an asymmetric top.
 Rotational symmetry number  1.
 Warning -- assumption of classical behavior for rotation
           may cause significant error
 Rotational temperatures (Kelvin)      0.09854     0.07435     0.05876
 Rotational constants (GHZ):           2.05326     1.54916     1.22427
 Zero-point vibrational energy     413635.2 (Joules/Mol)
                                   98.86119 (Kcal/Mol)
 Warning -- explicit consideration of  12 degrees of freedom as
           vibrations may cause significant error
 Vibrational temperatures:    140.26   236.58   277.18   289.25   314.96
          (Kelvin)            383.13   400.63   497.87   520.35   604.24
                              758.02   790.39   907.55   995.57  1114.43
                             1125.35  1163.65  1364.13  1375.86  1432.70
                             1482.93  1528.50  1535.01  1592.58  1668.19
                             1676.48  1753.68  1783.30  1789.65  1809.32
                             1845.88  1919.38  1975.00  2031.30  2065.15
                             2101.31  2131.22  2145.44  2151.73  2168.68
                             2558.37  4165.49  4357.33  4380.18  4385.96
                             4394.10  4441.49  4466.60  4503.65  4513.25
                             5484.40

 Zero-point correction=                           0.157545 (Hartree/Particle)
 Thermal correction to Energy=                    0.166624
 Thermal correction to Enthalpy=                  0.167568
 Thermal correction to Gibbs Free Energy=         0.124147
 Sum of electronic and zero-point Energies=           -423.011578
 Sum of electronic and thermal Energies=              -423.002500
 Sum of electronic and thermal Enthalpies=            -423.001556
 Sum of electronic and thermal Free Energies=         -423.044977

                     E (Thermal)             CV                S
                      KCal/Mol        Cal/Mol-Kelvin    Cal/Mol-Kelvin
 Total                  104.558             34.157             91.387
 Electronic               0.000              0.000              0.000
 Translational            0.889              2.981             40.409
 Rotational               0.889              2.981             28.803
 Vibrational            102.780             28.196             22.175
 Vibration     1          0.603              1.951              3.504
 Vibration     2          0.623              1.886              2.498
 Vibration     3          0.635              1.850              2.202
 Vibration     4          0.638              1.838              2.124
 Vibration     5          0.647              1.812              1.968
 Vibration     6          0.672              1.735              1.620
 Vibration     7          0.679              1.713              1.543
 Vibration     8          0.724              1.583              1.184
 Vibration     9          0.736              1.551              1.115
 Vibration    10          0.783              1.427              0.892
 Vibration    11          0.882              1.191              0.594
 Vibration    12          0.905              1.141              0.546

 Normal termination of Gaussian 09 at Mon Jan 27 22:49:25 2020.
