 Gaussian 09, Revision D.01,
 Gaussian 09:  ES64L-G09RevD.01 24-Apr-2013

 -----------------------------
 # b3lyp 6-31G(2df,p) opt Freq
 -----------------------------

 -----
 titel
 -----
 Symbolic Z-matrix:
 Charge =  0 Multiplicity = 1

 SCF Done:  E(RB3LYP) =  -423.204663082     A.U. after   14 cycles
 Optimization completed.
    -- Stationary point found.
 Normal termination of Gaussian 09 at Mon Jan 27 15:44:46 2020.

 ----------------------------------------------------------------------
 #N Geom=AllCheck Guess=TCheck SCRF=Check GenChk RB3LYP/6-31G(2df,p) Fr
 eq
 ----------------------------------------------------------------------

 Structure from the checkpoint file:  "/scratch/puck/g09_be4fceb5-e840-4d3e-bacc-3eee2edb01e1/Gau-175716.chk"
 -----
 titel
 -----
 Charge =  0 Multiplicity = 1

                         Standard orientation:
 ---------------------------------------------------------------------
 Center     Atomic      Atomic             Coordinates (Angstroms)
 Number     Number       Type             X           Y           Z
 ---------------------------------------------------------------------
      1          6           0       -1.720346    1.616691   -0.180645
      2          6           0       -0.917729    0.333517   -0.399536
      3          6           0       -1.724402   -0.912418   -0.050675
      4          8           0       -2.860204   -0.887756    0.352329
      5          6           0        0.407842    0.321259    0.380504
      6          6           0        1.515370    1.380681    0.062774
      7          6           0        2.603509    0.265565    0.083993
      8          6           0        1.459719   -0.757312    0.049059
      9          8           0        1.383319   -1.912655   -0.258594
     10          1           0       -2.650707    1.592370   -0.752790
     11          1           0       -1.989987    1.729828    0.873574
     12          1           0       -1.145474    2.495108   -0.487119
     13          1           0       -0.663702    0.228673   -1.466964
     14          1           0       -1.178237   -1.867610   -0.192230
     15          1           0        0.204595    0.303005    1.459935
     16          1           0        1.389592    1.812244   -0.933291
     17          1           0        1.631024    2.187187    0.786739
     18          1           0        3.319597    0.217159   -0.739412
     19          1           0        3.154596    0.217427    1.028820
 ---------------------------------------------------------------------

 SCF Done:  E(RB3LYP) =  -423.204663082     A.U. after    1 cycles

 The electronic state is 1-A.
 Alpha  occ. eigenvalues --  -19.14960 -19.13859 -10.28051 -10.26613 -10.21231
 Alpha  occ. eigenvalues --  -10.20891 -10.20776 -10.20439 -10.18288  -1.05771
 Alpha  occ. eigenvalues --   -1.04451  -0.86517  -0.79304  -0.69143  -0.65804
 Alpha  occ. eigenvalues --   -0.63460  -0.55809  -0.54328  -0.49788  -0.47893
 Alpha  occ. eigenvalues --   -0.47150  -0.45479  -0.43163  -0.42123  -0.40216
 Alpha  occ. eigenvalues --   -0.38731  -0.38488  -0.38044  -0.36434  -0.35512
 Alpha  occ. eigenvalues --   -0.34666  -0.33974  -0.25555  -0.24473
 Alpha virt. eigenvalues --   -0.03130  -0.02075   0.07960   0.09834   0.10597
 Alpha virt. eigenvalues --    0.12869   0.13234   0.14418   0.15094   0.15961
 Alpha virt. eigenvalues --    0.16565   0.18122   0.19247   0.19697   0.21296

 Mulliken charges:
               1
     1  C   -0.396795
     2  C   -0.101956
     3  C    0.136129
     4  O   -0.245700
     5  C   -0.095439
     6  C   -0.256962
     7  C   -0.333793
     8  C    0.385644
     9  O   -0.295973
    10  H    0.133982
    11  H    0.128637
    12  H    0.113412
    13  H    0.096689
    14  H    0.113446
    15  H    0.112034
    16  H    0.118425
    17  H    0.116618
    18  H    0.134057
    19  H    0.137544
 Sum of Mulliken charges =   0.00000

 Dipole moment (field-independent basis, Debye):
    X=              2.5923    Y=              3.0243    Z=             -0.1307  Tot=              3.9854
 Quadrupole moment (field-independent basis, Debye-Ang):
   XX=            -60.3721   YY=            -58.2749   ZZ=            -50.6443
   XY=              1.0529   XZ=              3.3400   YZ=             -0.2893

  Exact polarizability:  91.566   0.800  78.559  -1.877   1.349  59.573
 Approx polarizability: 122.989   2.172 117.516  -6.294   4.091  96.135

                      1                      2                      3
                      A                      A                      A
 Frequencies --     57.4032                82.9706               107.8042
 Red. masses --      5.0392                 3.5034                 2.2357
 Frc consts  --      0.0098                 0.0142                 0.0153
 IR Inten    --      0.7197                 5.3316                 2.9040

                      4                      5                      6
                      A                      A                      A
 Frequencies --    139.8250               185.7449               249.2631
 Red. masses --      4.7905                 1.0994                 2.8161
 Frc consts  --      0.0552                 0.0223                 0.1031
 IR Inten    --      5.3927                 0.6546                 0.4436

                      7                      8                      9
                      A                      A                      A
 Frequencies --    271.5551               325.0900               345.5312
 Red. masses --      3.2152                 3.2262                 3.9196
 Frc consts  --      0.1397                 0.2009                 0.2757
 IR Inten    --      6.1243                 1.3249                 1.2940

                     10                     11                     12
                      A                      A                      A
 Frequencies --    450.7899               559.5616               644.9161
 Red. masses --      2.2731                 3.1728                 2.4265
 Frc consts  --      0.2722                 0.5853                 0.5946
 IR Inten    --      2.0793                 4.6939                 2.3198

                     13                     14                     15
                      A                      A                      A
 Frequencies --    685.0582               729.7054               766.9117
 Red. masses --      3.0395                 2.2281                 1.7557
 Frc consts  --      0.8404                 0.6990                 0.6084
 IR Inten    --      4.9077                 3.6957                 2.7748

                     16                     17                     18
                      A                      A                      A
 Frequencies --    857.4200               905.4334               925.1924
 Red. masses --      2.6398                 2.2930                 2.2988
 Frc consts  --      1.1434                 1.1075                 1.1593
 IR Inten    --     13.1231                 8.3934                10.2413

                     19                     20                     21
                      A                      A                      A
 Frequencies --    945.2676               978.7759              1000.5047
 Red. masses --      1.5437                 1.4195                 1.6396
 Frc consts  --      0.8127                 0.8012                 0.9670
 IR Inten    --      1.5145                 2.0668                23.1545

                     22                     23                     24
                      A                      A                      A
 Frequencies --   1033.3129              1088.8946              1110.8675
 Red. masses --      2.2360                 3.0710                 2.0001
 Frc consts  --      1.4066                 2.1454                 1.4542
 IR Inten    --     11.7851                53.5435                 1.9501

                     25                     26                     27
                      A                      A                      A
 Frequencies --   1141.8247              1169.7365              1195.9816
 Red. masses --      2.2491                 2.2667                 1.4111
 Frc consts  --      1.7277                 1.8273                 1.1892
 IR Inten    --      8.2779                 5.7872                 0.4037

                     28                     29                     30
                      A                      A                      A
 Frequencies --   1225.1106              1237.8083              1258.5166
 Red. masses --      1.2716                 1.4885                 1.3361
 Frc consts  --      1.1245                 1.3437                 1.2468
 IR Inten    --      2.7452                 3.1253                 5.8550

                     31                     32                     33
                      A                      A                      A
 Frequencies --   1278.3978              1328.7285              1347.2999
 Red. masses --      1.5081                 1.5961                 1.5081
 Frc consts  --      1.4522                 1.6603                 1.6129
 IR Inten    --      5.8049                 2.7917                 2.9261

                     34                     35                     36
                      A                      A                      A
 Frequencies --   1407.8911              1429.4739              1443.0839
 Red. masses --      1.1973                 1.2234                 1.0980
 Frc consts  --      1.3983                 1.4729                 1.3472
 IR Inten    --      0.4428                14.7554                 6.4925

                     37                     38                     39
                      A                      A                      A
 Frequencies --   1488.8589              1492.1282              1493.9560
 Red. masses --      1.0456                 1.0549                 1.0936
 Frc consts  --      1.3655                 1.3838                 1.4381
 IR Inten    --      5.8002                 5.0166                 0.0418

                     40                     41                     42
                      A                      A                      A
 Frequencies --   1822.7732              1879.3367              2933.7723
 Red. masses --      9.9560                12.6235                 1.0853
 Frc consts  --     19.4895                26.2688                 5.5038
 IR Inten    --    160.7114               230.2667                46.9785

                     43                     44                     45
                      A                      A                      A
 Frequencies --   2982.6029              3024.7481              3047.5767
 Red. masses --      1.0808                 1.0825                 1.0354
 Frc consts  --      5.6648                 5.8351                 5.6661
 IR Inten    --     15.0625                 8.9229                14.0819

                     46                     47                     48
                      A                      A                      A
 Frequencies --   3061.0490              3076.0466              3116.9563
 Red. masses --      1.0607                 1.0615                 1.1019
 Frc consts  --      5.8560                 5.9176                 6.3074
 IR Inten    --      9.2190                18.5560                18.8744

                     49                     50                     51
                      A                      A                      A
 Frequencies --   3118.2446              3127.5858              3139.5263
 Red. masses --      1.1033                 1.1012                 1.1066
 Frc consts  --      6.3207                 6.3467                 6.4264
 IR Inten    --      5.5490                15.7998                19.2580

 - Thermochemistry -
 -------------------
 Temperature   298.150 Kelvin.  Pressure   1.00000 Atm.
 Atom     1 has atomic number  6 and mass  12.00000

 Molecular mass:   126.06808 amu.
 Principal axes and moments of inertia in atomic units:
                           1         2         3
     Eigenvalues --   660.938791555.472202099.86010
           X            0.99997  -0.00304   0.00758
           Y            0.00306   0.99999  -0.00247
           Z           -0.00757   0.00249   0.99997
 This molecule is an asymmetric top.
 Rotational symmetry number  1.
 Warning -- assumption of classical behavior for rotation
           may cause significant error
 Rotational temperatures (Kelvin)      0.13105     0.05568     0.04125
 Rotational constants (GHZ):           2.73057     1.16025     0.85946
 Zero-point vibrational energy     411017.8 (Joules/Mol)
                                   98.23562 (Kcal/Mol)
 Warning -- explicit consideration of  11 degrees of freedom as
           vibrations may cause significant error
 Vibrational temperatures:     82.59   119.38   155.11   201.18   267.25
          (Kelvin)            358.63   390.71   467.73   497.14   648.59
                              805.08   927.89   985.64  1049.88  1103.41
                             1233.63  1302.72  1331.14  1360.03  1408.24
                             1439.50  1486.70  1566.67  1598.29  1642.83
                             1682.99  1720.75  1762.66  1780.93  1810.72
                             1839.33  1911.74  1938.46  2025.64  2056.69
                             2076.27  2142.13  2146.84  2149.47  2622.56
                             2703.94  4221.04  4291.29  4351.93  4384.78
                             4404.16  4425.74  4484.60  4486.45  4499.89
                             4517.07

 Zero-point correction=                           0.156548 (Hartree/Particle)
 Thermal correction to Energy=                    0.166064
 Thermal correction to Enthalpy=                  0.167008
 Thermal correction to Gibbs Free Energy=         0.121397
 Sum of electronic and zero-point Energies=           -423.048115
 Sum of electronic and thermal Energies=              -423.038599
 Sum of electronic and thermal Enthalpies=            -423.037655
 Sum of electronic and thermal Free Energies=         -423.083266

                     E (Thermal)             CV                S
                      KCal/Mol        Cal/Mol-Kelvin    Cal/Mol-Kelvin
 Total                  104.207             33.912             95.997
 Electronic               0.000              0.000              0.000
 Translational            0.889              2.981             40.409
 Rotational               0.889              2.981             29.158
 Vibrational            102.429             27.951             26.431
 Vibration     1          0.596              1.975              4.545
 Vibration     2          0.600              1.961              3.819
 Vibration     3          0.606              1.943              3.308
 Vibration     4          0.615              1.913              2.806
 Vibration     5          0.632              1.859              2.270
 Vibration     6          0.662              1.764              1.736
 Vibration     7          0.675              1.726              1.586
 Vibration     8          0.709              1.625              1.284
 Vibration     9          0.724              1.584              1.186
 Vibration    10          0.810              1.359              0.793
 Vibration    11          0.915              1.119              0.525

 Optimization completed.
    -- Stationary point found.
 Normal termination of Gaussian 09 at Mon Jan 27 16:24:26 2020.
