 Gaussian 09, Revision D.01,
 Gaussian 09:  ES64L-G09RevD.01 24-Apr-2013

 -----------------------------
 # b3lyp 6-31G(2df,p) opt Freq
 -----------------------------

 -----
 titel
 -----
 Symbolic Z-matrix:
 Charge =  0 Multiplicity = 1

 SCF Done:  E(RB3LYP) =  -423.116973547     A.U. after   12 cycles
 Optimization completed.
    -- Stationary point found.
 Normal termination of Gaussian 09 at Tue Jan 28 02:36:17 2020.

 ----------------------------------------------------------------------
 #N Geom=AllCheck Guess=TCheck SCRF=Check GenChk RB3LYP/6-31G(2df,p) Fr
 eq
 ----------------------------------------------------------------------

 Structure from the checkpoint file:  "/scratch/puck/g09_b994cffb-f46f-4b3c-bb79-6a42d390acc9/Gau-77494.chk"
 -----
 titel
 -----
 Charge =  0 Multiplicity = 1

                         Standard orientation:
 ---------------------------------------------------------------------
 Center     Atomic      Atomic             Coordinates (Angstroms)
 Number     Number       Type             X           Y           Z
 ---------------------------------------------------------------------
      1          6           0        2.974767   -0.660053    0.283116
      2          6           0        1.865618    0.040068   -0.472151
      3          6           0        1.143272    1.226945    0.214806
      4          6           0       -0.094823    0.357406    0.047533
      5          8           0        0.635097   -0.738624   -0.492643
      6          6           0       -1.240482    0.246131    1.002185
      7          6           0       -2.176552   -0.855603    0.510406
      8          8           0       -2.249762   -0.278181   -0.820934
      9          6           0       -1.431660    0.815036   -0.418011
     10          1           0        2.670129   -0.870907    1.312830
     11          1           0        3.225541   -1.608463   -0.202059
     12          1           0        3.876040   -0.037287    0.303983
     13          1           0        2.180639    0.265594   -1.499054
     14          1           0        1.449520    1.397887    1.250148
     15          1           0        1.146276    2.174418   -0.327508
     16          1           0       -1.257922    0.707883    1.982090
     17          1           0       -1.777059   -1.875264    0.499429
     18          1           0       -3.163141   -0.840151    0.985521
     19          1           0       -1.673543    1.801154   -0.804073
 ---------------------------------------------------------------------

 SCF Done:  E(RB3LYP) =  -423.116973547     A.U. after    1 cycles

 The electronic state is 1-A.
 Alpha  occ. eigenvalues --  -19.13534 -19.13268 -10.24089 -10.23911 -10.23662
 Alpha  occ. eigenvalues --  -10.23278 -10.19407 -10.19334 -10.17929  -1.05758
 Alpha  occ. eigenvalues --   -1.03210  -0.82695  -0.76461  -0.71621  -0.69230
 Alpha  occ. eigenvalues --   -0.60140  -0.55333  -0.54401  -0.51052  -0.49036
 Alpha  occ. eigenvalues --   -0.47967  -0.46498  -0.43655  -0.41491  -0.40331
 Alpha  occ. eigenvalues --   -0.38958  -0.37038  -0.35815  -0.33847  -0.32783
 Alpha  occ. eigenvalues --   -0.30862  -0.28786  -0.25167  -0.21635
 Alpha virt. eigenvalues --    0.06384   0.08773   0.09621   0.11033   0.12329
 Alpha virt. eigenvalues --    0.14004   0.14800   0.15064   0.15463   0.15923
 Alpha virt. eigenvalues --    0.16663   0.17720   0.18467   0.19184   0.21286

 Mulliken charges:
               1
     1  C   -0.398359
     2  C    0.163723
     3  C   -0.400609
     4  C    0.479860
     5  O   -0.325798
     6  C   -0.247775
     7  C   -0.084485
     8  O   -0.281541
     9  C   -0.004386
    10  H    0.120752
    11  H    0.130503
    12  H    0.116217
    13  H    0.082397
    14  H    0.110552
    15  H    0.113854
    16  H    0.095894
    17  H    0.120904
    18  H    0.108371
    19  H    0.099926
 Sum of Mulliken charges =   0.00000

 Dipole moment (field-independent basis, Debye):
    X=              1.4173    Y=              1.7158    Z=              1.8201  Tot=              2.8749
 Quadrupole moment (field-independent basis, Debye-Ang):
   XX=            -51.6516   YY=            -51.6809   ZZ=            -53.3938
   XY=              0.3287   XZ=             -4.0906   YZ=             -2.0142

  Exact polarizability:  92.023   1.794  70.356  -2.992  -2.770  66.178
 Approx polarizability: 113.745   3.086 104.218  -1.552  -3.379 105.101

                      1                      2                      3
                      A                      A                      A
 Frequencies --     52.2060               136.4727               186.1176
 Red. masses --      3.5932                 4.0127                 2.5246
 Frc consts  --      0.0058                 0.0440                 0.0515
 IR Inten    --      1.1842                 0.0424                 2.3104

                      4                      5                      6
                      A                      A                      A
 Frequencies --    235.7796               270.7173               335.5202
 Red. masses --      1.1359                 3.4371                 2.3537
 Frc consts  --      0.0372                 0.1484                 0.1561
 IR Inten    --      0.4536                 3.4381                 1.5444

                      7                      8                      9
                      A                      A                      A
 Frequencies --    399.1636               468.8358               502.3560
 Red. masses --      2.9160                 2.7676                 2.7961
 Frc consts  --      0.2737                 0.3584                 0.4157
 IR Inten    --      0.8462                 0.1373                 1.6763

                     10                     11                     12
                      A                      A                      A
 Frequencies --    617.6993               749.4506               776.4441
 Red. masses --      4.1975                 2.1330                 3.4809
 Frc consts  --      0.9436                 0.7059                 1.2364
 IR Inten    --      9.7033                 9.4969                10.5217

                     13                     14                     15
                      A                      A                      A
 Frequencies --    813.1367               852.6551               901.2674
 Red. masses --      1.8753                 2.4883                 2.7821
 Frc consts  --      0.7305                 1.0659                 1.3315
 IR Inten    --     10.2727                 6.7972                38.6747

                     16                     17                     18
                      A                      A                      A
 Frequencies --    912.6862               929.7512               955.9878
 Red. masses --      2.9986                 1.4519                 3.2325
 Frc consts  --      1.4717                 0.7395                 1.7406
 IR Inten    --      3.6127                 2.3641                34.6222

                     19                     20                     21
                      A                      A                      A
 Frequencies --    961.2624              1004.0071              1023.1469
 Red. masses --      1.4229                 1.9894                 2.9600
 Frc consts  --      0.7747                 1.1815                 1.8256
 IR Inten    --     10.5083                26.1434                87.7137

                     22                     23                     24
                      A                      A                      A
 Frequencies --   1057.5789              1076.1849              1087.8300
 Red. masses --      2.1782                 2.4018                 2.8752
 Frc consts  --      1.4354                 1.6389                 2.0046
 IR Inten    --     19.5691                49.0408                35.6622

                     25                     26                     27
                      A                      A                      A
 Frequencies --   1102.0480              1154.4407              1161.5187
 Red. masses --      1.8555                 1.7244                 1.9030
 Frc consts  --      1.3277                 1.3540                 1.5127
 IR Inten    --      3.7285                14.9062                 4.5953

                     28                     29                     30
                      A                      A                      A
 Frequencies --   1178.0871              1203.2881              1220.8018
 Red. masses --      1.7512                 1.5523                 1.8885
 Frc consts  --      1.4320                 1.3243                 1.6583
 IR Inten    --      3.9559                 3.4711                13.6598

                     31                     32                     33
                      A                      A                      A
 Frequencies --   1241.1914              1258.0199              1316.3408
 Red. masses --      1.4071                 1.5153                 1.5133
 Frc consts  --      1.2772                 1.4129                 1.5450
 IR Inten    --     15.4992                 8.1046                 8.9876

                     34                     35                     36
                      A                      A                      A
 Frequencies --   1331.4565              1380.6020              1407.9936
 Red. masses --      1.5733                 1.3618                 1.3616
 Frc consts  --      1.6433                 1.5294                 1.5904
 IR Inten    --     13.6673                19.5834                15.7565

                     37                     38                     39
                      A                      A                      A
 Frequencies --   1447.8705              1482.2429              1493.2965
 Red. masses --      2.9007                 1.0533                 1.1360
 Frc consts  --      3.5828                 1.3635                 1.4926
 IR Inten    --     11.8650                 4.5903                 3.0738

                     40                     41                     42
                      A                      A                      A
 Frequencies --   1497.0443              1511.4190              3018.8311
 Red. masses --      1.1322                 1.1065                 1.0852
 Frc consts  --      1.4950                 1.4893                 5.8267
 IR Inten    --      1.0022                 0.1558                47.0954

                     43                     44                     45
                      A                      A                      A
 Frequencies --   3033.3558              3034.1284              3063.5980
 Red. masses --      1.0367                 1.0534                 1.0593
 Frc consts  --      5.6200                 5.7137                 5.8580
 IR Inten    --     24.0954                60.9180                26.7832

                     46                     47                     48
                      A                      A                      A
 Frequencies --   3086.0486              3105.8278              3113.6909
 Red. masses --      1.1117                 1.1006                 1.1035
 Frc consts  --      6.2382                 6.2550                 6.3031
 IR Inten    --     29.6675                20.7771                16.5541

                     49                     50                     51
                      A                      A                      A
 Frequencies --   3119.9723              3150.7281              3181.7171
 Red. masses --      1.1067                 1.0909                 1.0953
 Frc consts  --      6.3474                 6.3806                 6.5328
 IR Inten    --     28.7065                25.2682                11.6377

 - Thermochemistry -
 -------------------
 Temperature   298.150 Kelvin.  Pressure   1.00000 Atm.
 Atom     1 has atomic number  6 and mass  12.00000

 Molecular mass:   126.06808 amu.
 Principal axes and moments of inertia in atomic units:
                           1         2         3
     Eigenvalues --   422.063251631.998741714.57211
           X            0.99997  -0.00190  -0.00745
           Y            0.00126   0.99641  -0.08463
           Z            0.00758   0.08462   0.99638
 This molecule is an asymmetric top.
 Rotational symmetry number  1.
 Rotational temperatures (Kelvin)      0.20522     0.05307     0.05052
 Rotational constants (GHZ):           4.27600     1.10585     1.05259
 Zero-point vibrational energy     416311.3 (Joules/Mol)
                                   99.50079 (Kcal/Mol)
 Warning -- explicit consideration of  10 degrees of freedom as
           vibrations may cause significant error
 Vibrational temperatures:     75.11   196.35   267.78   339.23   389.50
          (Kelvin)            482.74   574.31   674.55   722.78   888.73
                             1078.29  1117.13  1169.92  1226.78  1296.72
                             1313.15  1337.70  1375.45  1383.04  1444.54
                             1472.08  1521.62  1548.39  1565.14  1585.60
                             1660.98  1671.16  1695.00  1731.26  1756.46
                             1785.80  1810.01  1893.92  1915.67  1986.38
                             2025.79  2083.16  2132.61  2148.52  2153.91
                             2174.59  4343.42  4364.32  4365.43  4407.83
                             4440.13  4468.59  4479.90  4488.94  4533.19
                             4577.78

 Zero-point correction=                           0.158565 (Hartree/Particle)
 Thermal correction to Energy=                    0.166667
 Thermal correction to Enthalpy=                  0.167611
 Thermal correction to Gibbs Free Energy=         0.125512
 Sum of electronic and zero-point Energies=           -422.958409
 Sum of electronic and thermal Energies=              -422.950307
 Sum of electronic and thermal Enthalpies=            -422.949363
 Sum of electronic and thermal Free Energies=         -422.991462

                     E (Thermal)             CV                S
                      KCal/Mol        Cal/Mol-Kelvin    Cal/Mol-Kelvin
 Total                  104.585             31.009             88.605
 Electronic               0.000              0.000              0.000
 Translational            0.889              2.981             40.409
 Rotational               0.889              2.981             28.559
 Vibrational            102.807             25.047             19.638
 Vibration     1          0.596              1.977              4.732
 Vibration     2          0.614              1.917              2.853
 Vibration     3          0.632              1.859              2.266
 Vibration     4          0.655              1.786              1.835
 Vibration     5          0.674              1.727              1.592
 Vibration     6          0.717              1.605              1.233
 Vibration     7          0.765              1.472              0.966
 Vibration     8          0.826              1.319              0.741
 Vibration     9          0.858              1.245              0.652
 Vibration    10          0.977              0.994              0.420

 Optimization completed.
    -- Stationary point found.
 Normal termination of Gaussian 09 at Tue Jan 28 03:16:45 2020.
