 Gaussian 09, Revision D.01,
 Gaussian 09:  ES64L-G09RevD.01 24-Apr-2013

 -----------------------------
 # b3lyp 6-31G(2df,p) opt Freq
 -----------------------------

 -----
 titel
 -----
 Symbolic Z-matrix:
 Charge =  0 Multiplicity = 1

 SCF Done:  E(RB3LYP) =  -423.118479430     A.U. after   14 cycles
 Optimization completed.
    -- Stationary point found.
 Normal termination of Gaussian 09 at Tue Jan 28 01:54:24 2020.

 ----------------------------------------------------------------------
 #N Geom=AllCheck Guess=TCheck SCRF=Check GenChk RB3LYP/6-31G(2df,p) Fr
 eq
 ----------------------------------------------------------------------

 Structure from the checkpoint file:  "/scratch/puck/g09_e8817af3-6f99-4d95-adb2-9d2cddbabdf2/Gau-87575.chk"
 -----
 titel
 -----
 Charge =  0 Multiplicity = 1

                         Standard orientation:
 ---------------------------------------------------------------------
 Center     Atomic      Atomic             Coordinates (Angstroms)
 Number     Number       Type             X           Y           Z
 ---------------------------------------------------------------------
      1          8           0        3.111205    0.923679   -0.382457
      2          6           0        2.104657    0.297549    0.370435
      3          6           0        1.598329   -1.113912   -0.036449
      4          6           0        0.183573   -0.674535    0.388844
      5          6           0        0.640832    0.809396    0.289444
      6          8           0       -0.829226   -1.144855   -0.471974
      7          6           0       -2.149722   -0.950145   -0.005037
      8          6           0       -2.613491    0.440724   -0.038636
      9          6           0       -3.009364    1.575252   -0.067774
     10          1           0        2.819130    0.954002   -1.299716
     11          1           0        2.469510    0.303173    1.401625
     12          1           0        1.624361   -1.232979   -1.125141
     13          1           0        2.041064   -1.994756    0.432522
     14          1           0       -0.044328   -0.958714    1.426436
     15          1           0        0.418240    1.191607   -0.712053
     16          1           0        0.289645    1.525444    1.033888
     17          1           0       -2.787569   -1.560749   -0.653397
     18          1           0       -2.257297   -1.341980    1.019859
     19          1           0       -3.357468    2.578388   -0.093546
 ---------------------------------------------------------------------

 SCF Done:  E(RB3LYP) =  -423.118479430     A.U. after    1 cycles

 The electronic state is 1-A.
 Alpha  occ. eigenvalues --  -19.15021 -19.13478 -10.25814 -10.23654 -10.23150
 Alpha  occ. eigenvalues --  -10.18705 -10.18144 -10.17885 -10.17575  -1.04362
 Alpha  occ. eigenvalues --   -1.01818  -0.83637  -0.77049  -0.70298  -0.66454
 Alpha  occ. eigenvalues --   -0.63322  -0.57684  -0.54285  -0.51055  -0.49837
 Alpha  occ. eigenvalues --   -0.47839  -0.46773  -0.45078  -0.41005  -0.39490
 Alpha  occ. eigenvalues --   -0.38966  -0.36338  -0.34793  -0.32347  -0.30837
 Alpha  occ. eigenvalues --   -0.27821  -0.27121  -0.26371  -0.25367
 Alpha virt. eigenvalues --    0.02983   0.04973   0.08083   0.08572   0.11254
 Alpha virt. eigenvalues --    0.11756   0.12630   0.14790   0.15359   0.16525
 Alpha virt. eigenvalues --    0.18180   0.18814   0.19261   0.20774   0.21498

 Mulliken charges:
               1
     1  O   -0.432416
     2  C    0.163478
     3  C   -0.303731
     4  C    0.159939
     5  C   -0.291984
     6  O   -0.238002
     7  C   -0.236651
     8  C    0.324046
     9  C   -0.466877
    10  H    0.276493
    11  H    0.092411
    12  H    0.106958
    13  H    0.103539
    14  H    0.069428
    15  H    0.105345
    16  H    0.105207
    17  H    0.139600
    18  H    0.120001
    19  H    0.203217
 Sum of Mulliken charges =   0.00000

 Dipole moment (field-independent basis, Debye):
    X=             -1.3702    Y=             -0.1610    Z=              0.2686  Tot=              1.4055
 Quadrupole moment (field-independent basis, Debye-Ang):
   XX=            -58.1982   YY=            -50.9359   ZZ=            -50.5717
   XY=             -3.2337   XZ=             -1.9888   YZ=             -2.2706

  Exact polarizability:  86.358  -7.389  83.110  -0.051  -1.390  61.605
 Approx polarizability: 106.460 -12.762 131.388  -0.023  -1.356  96.024

                      1                      2                      3
                      A                      A                      A
 Frequencies --     40.3383                71.7408                95.1295
 Red. masses --      3.0594                 4.3474                 3.8475
 Frc consts  --      0.0029                 0.0132                 0.0205
 IR Inten    --      0.1195                 0.2454                 2.2324

                      4                      5                      6
                      A                      A                      A
 Frequencies --    198.3774               259.4718               295.3656
 Red. masses --      4.2301                 3.2562                 1.2737
 Frc consts  --      0.0981                 0.1292                 0.0655
 IR Inten    --      0.4165                 2.1399                49.2020

                      7                      8                      9
                      A                      A                      A
 Frequencies --    333.8669               348.3955               422.1006
 Red. masses --      2.8823                 2.6495                 3.5087
 Frc consts  --      0.1893                 0.1895                 0.3683
 IR Inten    --     11.6328                34.2643                12.8669

                     10                     11                     12
                      A                      A                      A
 Frequencies --    437.1548               459.0300               582.2571
 Red. masses --      3.1681                 2.0724                 3.3976
 Frc consts  --      0.3567                 0.2573                 0.6787
 IR Inten    --      1.3142                 1.7472                 6.5826

                     13                     14                     15
                      A                      A                      A
 Frequencies --    618.2130               622.6203               679.8774
 Red. masses --      1.2092                 3.7944                 1.2410
 Frc consts  --      0.2723                 0.8666                 0.3380
 IR Inten    --     44.1073                 1.5027                37.1674

                     16                     17                     18
                      A                      A                      A
 Frequencies --    779.1094               796.1388               905.6356
 Red. masses --      2.4931                 1.2706                 2.0418
 Frc consts  --      0.8916                 0.4745                 0.9867
 IR Inten    --      2.1291                 1.5117                 1.2915

                     19                     20                     21
                      A                      A                      A
 Frequencies --    921.5551               951.5916              1009.3751
 Red. masses --      4.7476                 3.3647                 2.1913
 Frc consts  --      2.3756                 1.7952                 1.3154
 IR Inten    --     14.0490                 5.6710                12.1295

                     22                     23                     24
                      A                      A                      A
 Frequencies --   1023.9077              1031.7047              1069.0405
 Red. masses --      1.8093                 2.1186                 2.3970
 Frc consts  --      1.1176                 1.3287                 1.6140
 IR Inten    --      7.9690                 1.7533                27.6971

                     25                     26                     27
                      A                      A                      A
 Frequencies --   1085.3158              1108.7078              1172.7411
 Red. masses --      1.6974                 4.8738                 3.0113
 Frc consts  --      1.1780                 3.5298                 2.4401
 IR Inten    --     14.9949               296.7894                28.6305

                     28                     29                     30
                      A                      A                      A
 Frequencies --   1191.3744              1200.0247              1253.4086
 Red. masses --      1.6999                 1.3398                 1.2073
 Frc consts  --      1.4216                 1.1367                 1.1175
 IR Inten    --     58.6992                 1.0857                 0.5524

                     31                     32                     33
                      A                      A                      A
 Frequencies --   1265.1068              1294.9515              1300.8198
 Red. masses --      1.4995                 1.2395                 1.3868
 Frc consts  --      1.4140                 1.2246                 1.3826
 IR Inten    --     23.8314                31.1230                11.0184

                     34                     35                     36
                      A                      A                      A
 Frequencies --   1335.1996              1381.7685              1410.9797
 Red. masses --      1.5174                 1.2103                 1.3043
 Frc consts  --      1.5939                 1.3615                 1.5299
 IR Inten    --      0.5368                42.5921                44.1163

                     37                     38                     39
                      A                      A                      A
 Frequencies --   1444.8554              1461.7973              1474.1981
 Red. masses --      1.2301                 1.0965                 1.0841
 Frc consts  --      1.5130                 1.3804                 1.3882
 IR Inten    --     42.8966                 2.9162                 5.3810

                     40                     41                     42
                      A                      A                      A
 Frequencies --   1495.2119              2232.9213              2972.3217
 Red. masses --      1.1631                 5.8827                 1.0697
 Frc consts  --      1.5321                17.2813                 5.5679
 IR Inten    --      2.9517                 2.3253                36.2523

                     43                     44                     45
                      A                      A                      A
 Frequencies --   2995.6156              3052.7039              3060.7225
 Red. masses --      1.0841                 1.0598                 1.0645
 Frc consts  --      5.7319                 5.8192                 5.8757
 IR Inten    --     38.7675                22.5484                 5.2612

                     46                     47                     48
                      A                      A                      A
 Frequencies --   3065.6140              3072.2297              3119.7216
 Red. masses --      1.0897                 1.0823                 1.1058
 Frc consts  --      6.0340                 6.0188                 6.3410
 IR Inten    --     16.4355                23.8403                33.2102

                     49                     50                     51
                      A                      A                      A
 Frequencies --   3129.0332              3503.4247              3806.3462
 Red. masses --      1.1058                 1.1629                 1.0658
 Frc consts  --      6.3791                 8.4094                 9.0980
 IR Inten    --     29.3644                56.9523                12.9716

 - Thermochemistry -
 -------------------
 Temperature   298.150 Kelvin.  Pressure   1.00000 Atm.
 Atom     1 has atomic number  8 and mass  15.99491

 Molecular mass:   126.06808 amu.
 Principal axes and moments of inertia in atomic units:
                           1         2         3
     Eigenvalues --   534.731842026.106452413.05988
           X            0.99997  -0.00697  -0.00250
           Y            0.00694   0.99988  -0.01389
           Z            0.00260   0.01387   0.99990
 This molecule is an asymmetric top.
 Rotational symmetry number  1.
 Warning -- assumption of classical behavior for rotation
           may cause significant error
 Rotational temperatures (Kelvin)      0.16198     0.04275     0.03589
 Rotational constants (GHZ):           3.37504     0.89074     0.74791
 Zero-point vibrational energy     411749.3 (Joules/Mol)
                                   98.41045 (Kcal/Mol)
 Warning -- explicit consideration of  13 degrees of freedom as
           vibrations may cause significant error
 Vibrational temperatures:     58.04   103.22   136.87   285.42   373.32
          (Kelvin)            424.96   480.36   501.26   607.31   628.97
                              660.44   837.74   889.47   895.81   978.19
                             1120.96  1145.46  1303.01  1325.91  1369.13
                             1452.26  1473.17  1484.39  1538.11  1561.53
                             1595.18  1687.31  1714.12  1726.57  1803.37
                             1820.20  1863.14  1871.59  1921.05  1988.05
                             2030.08  2078.82  2103.20  2121.04  2151.27
                             3212.67  4276.50  4310.02  4392.15  4403.69
                             4410.73  4420.25  4488.58  4501.98  5040.64
                             5476.48

 Zero-point correction=                           0.156827 (Hartree/Particle)
 Thermal correction to Energy=                    0.166304
 Thermal correction to Enthalpy=                  0.167248
 Thermal correction to Gibbs Free Energy=         0.121591
 Sum of electronic and zero-point Energies=           -422.961652
 Sum of electronic and thermal Energies=              -422.952176
 Sum of electronic and thermal Enthalpies=            -422.951232
 Sum of electronic and thermal Free Energies=         -422.996889

                     E (Thermal)             CV                S
                      KCal/Mol        Cal/Mol-Kelvin    Cal/Mol-Kelvin
 Total                  104.357             35.026             96.094
 Electronic               0.000              0.000              0.000
 Translational            0.889              2.981             40.409
 Rotational               0.889              2.981             29.348
 Vibrational            102.580             29.064             26.337
 Vibration     1          0.594              1.981              5.242
 Vibration     2          0.598              1.967              4.105
 Vibration     3          0.603              1.953              3.552
 Vibration     4          0.637              1.842              2.148
 Vibration     5          0.668              1.747              1.665
 Vibration     6          0.690              1.682              1.443
 Vibration     7          0.715              1.608              1.241
 Vibration     8          0.726              1.579              1.173
 Vibration     9          0.784              1.422              0.885
 Vibration    10          0.797              1.389              0.836
 Vibration    11          0.817              1.341              0.769
 Vibration    12          0.939              1.070              0.481
 Vibration    13          0.978              0.993              0.419

 Optimization completed.
    -- Stationary point found.
 Normal termination of Gaussian 09 at Tue Jan 28 02:29:44 2020.
