 Gaussian 09, Revision D.01,
 Gaussian 09:  ES64L-G09RevD.01 24-Apr-2013

 -----------------------------
 # b3lyp 6-31G(2df,p) opt Freq
 -----------------------------

 -----
 titel
 -----
 Symbolic Z-matrix:
 Charge =  0 Multiplicity = 1

 SCF Done:  E(RB3LYP) =  -423.166813218     A.U. after   14 cycles
 Optimization completed.
    -- Stationary point found.
 Normal termination of Gaussian 09 at Tue Jan 28 01:57:05 2020.

 ----------------------------------------------------------------------
 #N Geom=AllCheck Guess=TCheck SCRF=Check GenChk RB3LYP/6-31G(2df,p) Fr
 eq
 ----------------------------------------------------------------------

 Structure from the checkpoint file:  "/scratch/puck/g09_7657875b-df6c-4ac9-8b49-3e441e9575ae/Gau-57455.chk"
 -----
 titel
 -----
 Charge =  0 Multiplicity = 1

                         Standard orientation:
 ---------------------------------------------------------------------
 Center     Atomic      Atomic             Coordinates (Angstroms)
 Number     Number       Type             X           Y           Z
 ---------------------------------------------------------------------
      1          6           0       -2.248267    0.939967   -0.662040
      2          6           0       -1.764987   -0.322924    0.000914
      3          8           0       -1.032290   -0.170765    1.232304
      4          6           0       -0.345110   -0.672769    0.096661
      5          6           0        0.381634   -2.018847    0.092268
      6          6           0        1.624770   -1.305973   -0.520955
      7          6           0        0.867836    0.061107   -0.532477
      8          6           0        1.426145    1.154018    0.343754
      9          8           0        1.343619    2.329572    0.096350
     10          1           0       -2.564020    0.733443   -1.690665
     11          1           0       -3.108804    1.349369   -0.123276
     12          1           0       -1.461767    1.698612   -0.680001
     13          1           0       -2.479114   -1.148664    0.027107
     14          1           0        0.533110   -2.426557    1.094860
     15          1           0       -0.073399   -2.790438   -0.533985
     16          1           0        2.506784   -1.312515    0.124922
     17          1           0        1.920431   -1.654209   -1.511263
     18          1           0        0.663731    0.477872   -1.521482
     19          1           0        1.920287    0.795151    1.275799
 ---------------------------------------------------------------------

 SCF Done:  E(RB3LYP) =  -423.166813218     A.U. after    1 cycles

 The electronic state is 1-A.
 Alpha  occ. eigenvalues --  -19.15455 -19.13930 -10.27080 -10.25021 -10.24241
 Alpha  occ. eigenvalues --  -10.20171 -10.20033 -10.19536 -10.18472  -1.07651
 Alpha  occ. eigenvalues --   -1.04559  -0.85094  -0.74917  -0.70982  -0.65388
 Alpha  occ. eigenvalues --   -0.61442  -0.59182  -0.54436  -0.51281  -0.48165
 Alpha  occ. eigenvalues --   -0.47303  -0.44091  -0.43427  -0.42089  -0.40564
 Alpha  occ. eigenvalues --   -0.39551  -0.38566  -0.37235  -0.35303  -0.34346
 Alpha  occ. eigenvalues --   -0.33064  -0.29055  -0.27054  -0.24774
 Alpha virt. eigenvalues --   -0.02492   0.06251   0.09422   0.10495   0.11944
 Alpha virt. eigenvalues --    0.12026   0.12415   0.14865   0.15265   0.16447
 Alpha virt. eigenvalues --    0.17005   0.17953   0.18269   0.19290   0.21542

 Mulliken charges:
               1
     1  C   -0.430242
     2  C   -0.009483
     3  O   -0.281623
     4  C    0.415114
     5  C   -0.319880
     6  C   -0.250428
     7  C   -0.182043
     8  C    0.178392
     9  O   -0.257093
    10  H    0.121458
    11  H    0.133329
    12  H    0.148780
    13  H    0.092066
    14  H    0.122997
    15  H    0.112607
    16  H    0.113094
    17  H    0.117045
    18  H    0.096746
    19  H    0.079167
 Sum of Mulliken charges =   0.00000

 Dipole moment (field-independent basis, Debye):
    X=             -0.3242    Y=             -2.9883    Z=             -1.5552  Tot=              3.3844
 Quadrupole moment (field-independent basis, Debye-Ang):
   XX=            -49.6296   YY=            -58.9151   ZZ=            -54.1540
   XY=             -3.6736   XZ=              2.5047   YZ=              0.1591

  Exact polarizability:  82.903  -3.221  82.082   3.094  -1.509  64.204
 Approx polarizability: 109.568  -2.278 119.653   3.347  -2.445 102.307

                      1                      2                      3
                      A                      A                      A
 Frequencies --     21.3121                58.0860               153.3455
 Red. masses --      3.0063                 4.0897                 3.0540
 Frc consts  --      0.0008                 0.0081                 0.0423
 IR Inten    --      1.5414                 5.2309                 1.4212

                      4                      5                      6
                      A                      A                      A
 Frequencies --    185.6373               203.3117               227.2165
 Red. masses --      2.1885                 1.5792                 1.6086
 Frc consts  --      0.0444                 0.0385                 0.0489
 IR Inten    --      3.5446                 1.6595                 0.5160

                      7                      8                      9
                      A                      A                      A
 Frequencies --    303.3511               414.9999               440.8837
 Red. masses --      2.5880                 4.2149                 2.8421
 Frc consts  --      0.1403                 0.4277                 0.3255
 IR Inten    --      4.2763                 1.2909                 4.6014

                     10                     11                     12
                      A                      A                      A
 Frequencies --    484.5577               499.3767               565.0468
 Red. masses --      4.2669                 3.6003                 4.2495
 Frc consts  --      0.5903                 0.5290                 0.7994
 IR Inten    --      4.5900                 9.8544                 3.6174

                     13                     14                     15
                      A                      A                      A
 Frequencies --    739.2342               781.6690               809.5995
 Red. masses --      1.2962                 2.3057                 2.9841
 Frc consts  --      0.4173                 0.8300                 1.1524
 IR Inten    --      5.4579                12.2479                13.7883

                     16                     17                     18
                      A                      A                      A
 Frequencies --    874.7560               899.6094               946.2891
 Red. masses --      2.2358                 2.9010                 1.8918
 Frc consts  --      1.0080                 1.3833                 0.9981
 IR Inten    --     15.1972                 8.0826                 6.5379

                     19                     20                     21
                      A                      A                      A
 Frequencies --    952.1218              1011.0710              1031.7227
 Red. masses --      2.2667                 1.7676                 1.7146
 Frc consts  --      1.2107                 1.0646                 1.0753
 IR Inten    --      7.6918                 6.7606                 3.8017

                     22                     23                     24
                      A                      A                      A
 Frequencies --   1044.3493              1114.8405              1118.9198
 Red. masses --      2.7841                 1.7012                 2.6190
 Frc consts  --      1.7891                 1.2458                 1.9319
 IR Inten    --     22.3869                 1.7482                10.4982

                     25                     26                     27
                      A                      A                      A
 Frequencies --   1146.9213              1149.3509              1184.6782
 Red. masses --      2.3698                 2.3416                 1.7344
 Frc consts  --      1.8367                 1.8225                 1.4342
 IR Inten    --     10.6797                42.1182                 9.2350

                     28                     29                     30
                      A                      A                      A
 Frequencies --   1221.2442              1232.8738              1248.9403
 Red. masses --      1.2851                 1.2783                 1.4132
 Frc consts  --      1.1292                 1.1448                 1.2987
 IR Inten    --      0.4485                 1.6637                 1.2949

                     31                     32                     33
                      A                      A                      A
 Frequencies --   1270.4796              1298.3709              1342.9270
 Red. masses --      1.4635                 1.5369                 1.3491
 Frc consts  --      1.3918                 1.5265                 1.4335
 IR Inten    --      2.8967                 1.8168                14.1118

                     34                     35                     36
                      A                      A                      A
 Frequencies --   1412.8776              1428.7609              1466.1311
 Red. masses --      1.2595                 1.1954                 1.4447
 Frc consts  --      1.4814                 1.4378                 1.8296
 IR Inten    --      5.4961                 4.5127                 6.8592

                     37                     38                     39
                      A                      A                      A
 Frequencies --   1469.1838              1487.3710              1494.6503
 Red. masses --      1.1077                 1.0815                 1.0831
 Frc consts  --      1.4087                 1.4096                 1.4257
 IR Inten    --      1.1368                 2.3532                 6.6586

                     40                     41                     42
                      A                      A                      A
 Frequencies --   1517.4417              1825.1487              2868.3181
 Red. masses --      2.0059                10.4129                 1.0827
 Frc consts  --      2.7213                20.4370                 5.2483
 IR Inten    --      8.5186               174.0452                92.0064

                     43                     44                     45
                      A                      A                      A
 Frequencies --   3037.2773              3062.4659              3069.0240
 Red. masses --      1.0362                 1.0582                 1.0627
 Frc consts  --      5.6322                 5.8474                 5.8972
 IR Inten    --     16.9407                22.3670                32.0564

                     46                     47                     48
                      A                      A                      A
 Frequencies --   3087.2324              3087.9560              3101.7830
 Red. masses --      1.0871                 1.0867                 1.1003
 Frc consts  --      6.1046                 6.1050                 6.2371
 IR Inten    --      9.8373                21.3092                15.3085

                     49                     50                     51
                      A                      A                      A
 Frequencies --   3111.3125              3130.2248              3132.3880
 Red. masses --      1.1064                 1.1014                 1.1053
 Frc consts  --      6.3101                 6.3584                 6.3896
 IR Inten    --      2.4800                15.1956                25.0101

 - Thermochemistry -
 -------------------
 Temperature   298.150 Kelvin.  Pressure   1.00000 Atm.
 Atom     1 has atomic number  6 and mass  12.00000

 Molecular mass:   126.06808 amu.
 Principal axes and moments of inertia in atomic units:
                           1         2         3
     Eigenvalues --   933.024311084.455771668.22557
           X            0.96115  -0.27482   0.02576
           Y            0.27509   0.96139  -0.00779
           Z           -0.02263   0.01458   0.99964
 This molecule is an asymmetric top.
 Rotational symmetry number  1.
 Warning -- assumption of classical behavior for rotation
           may cause significant error
 Rotational temperatures (Kelvin)      0.09283     0.07987     0.05192
 Rotational constants (GHZ):           1.93429     1.66419     1.08183
 Zero-point vibrational energy     411315.8 (Joules/Mol)
                                   98.30685 (Kcal/Mol)
 Warning -- explicit consideration of  12 degrees of freedom as
           vibrations may cause significant error
 Vibrational temperatures:     30.66    83.57   220.63   267.09   292.52
          (Kelvin)            326.91   436.45   597.09   634.33   697.17
                              718.49   812.98  1063.59  1124.65  1164.83
                             1258.58  1294.34  1361.50  1369.89  1454.70
                             1484.42  1502.58  1604.00  1609.87  1650.16
                             1653.66  1704.49  1757.10  1773.83  1796.94
                             1827.93  1868.06  1932.17  2032.81  2055.67
                             2109.43  2113.83  2139.99  2150.47  2183.26
                             2625.98  4126.86  4369.96  4406.20  4415.64
                             4441.83  4442.87  4462.77  4476.48  4503.69
                             4506.80

 Zero-point correction=                           0.156662 (Hartree/Particle)
 Thermal correction to Energy=                    0.165911
 Thermal correction to Enthalpy=                  0.166856
 Thermal correction to Gibbs Free Energy=         0.121115
 Sum of electronic and zero-point Energies=           -423.010151
 Sum of electronic and thermal Energies=              -423.000902
 Sum of electronic and thermal Enthalpies=            -422.999958
 Sum of electronic and thermal Free Energies=         -423.045698

                     E (Thermal)             CV                S
                      KCal/Mol        Cal/Mol-Kelvin    Cal/Mol-Kelvin
 Total                  104.111             33.299             96.268
 Electronic               0.000              0.000              0.000
 Translational            0.889              2.981             40.409
 Rotational               0.889              2.981             28.914
 Vibrational            102.333             27.338             26.946
 Vibration     1          0.593              1.985              6.508
 Vibration     2          0.596              1.974              4.521
 Vibration     3          0.619              1.899              2.630
 Vibration     4          0.632              1.859              2.271
 Vibration     5          0.639              1.835              2.103
 Vibration     6          0.651              1.800              1.901
 Vibration     7          0.695              1.667              1.398
 Vibration     8          0.778              1.438              0.909
 Vibration     9          0.801              1.381              0.824
 Vibration    10          0.841              1.284              0.698
 Vibration    11          0.855              1.251              0.660
 Vibration    12          0.921              1.107              0.514

 Optimization completed.
    -- Stationary point found.
 Normal termination of Gaussian 09 at Tue Jan 28 02:41:06 2020.
