 Gaussian 09, Revision D.01,
 Gaussian 09:  ES64L-G09RevD.01 24-Apr-2013

 -----------------------------
 # b3lyp 6-31G(2df,p) opt Freq
 -----------------------------

 -----
 titel
 -----
 Symbolic Z-matrix:
 Charge =  0 Multiplicity = 1

 SCF Done:  E(RB3LYP) =  -423.111376597     A.U. after   13 cycles
 Optimization completed.
    -- Stationary point found.
 Normal termination of Gaussian 09 at Mon Jan 27 11:16:48 2020.

 ----------------------------------------------------------------------
 #N Geom=AllCheck Guess=TCheck SCRF=Check GenChk RB3LYP/6-31G(2df,p) Fr
 eq
 ----------------------------------------------------------------------

 Structure from the checkpoint file:  "/scratch/puck/g09_1c8b60b1-e157-4b8a-8f8a-05436bdf19b9/Gau-46406.chk"
 -----
 titel
 -----
 Charge =  0 Multiplicity = 1

                         Standard orientation:
 ---------------------------------------------------------------------
 Center     Atomic      Atomic             Coordinates (Angstroms)
 Number     Number       Type             X           Y           Z
 ---------------------------------------------------------------------
      1          6           0       -2.778610    0.501272   -0.506170
      2          6           0       -2.186307   -0.446063    0.486985
      3          8           0       -1.135423   -1.215438   -0.102761
      4          6           0       -0.355010    0.001824   -0.322540
      5          6           0       -1.495403    0.868450    0.212340
      6          6           0        0.907695   -0.015613    0.508869
      7          6           0        1.932224    1.090890    0.165688
      8          8           0        2.828899    0.136611   -0.434399
      9          6           0        2.007384   -0.970825   -0.003713
     10          1           0       -2.768732    0.244294   -1.561944
     11          1           0       -3.655286    1.047041   -0.170684
     12          1           0       -2.689319   -0.852984    1.356387
     13          1           0       -0.109916    0.124594   -1.386822
     14          1           0       -1.383189    1.755218    0.821891
     15          1           0        0.655707   -0.116302    1.566614
     16          1           0        1.602594    1.855450   -0.550137
     17          1           0        2.381406    1.590287    1.034013
     18          1           0        1.726874   -1.628629   -0.834464
     19          1           0        2.500229   -1.567951    0.773670
 ---------------------------------------------------------------------

 SCF Done:  E(RB3LYP) =  -423.111376597     A.U. after    1 cycles

 The electronic state is 1-A.
 Alpha  occ. eigenvalues --  -19.14033 -19.13020 -10.24372 -10.24274 -10.23242
 Alpha  occ. eigenvalues --  -10.22835 -10.20060 -10.19500 -10.19404  -1.05428
 Alpha  occ. eigenvalues --   -1.03531  -0.83558  -0.77729  -0.69072  -0.67472
 Alpha  occ. eigenvalues --   -0.60888  -0.56843  -0.54537  -0.52376  -0.49870
 Alpha  occ. eigenvalues --   -0.48686  -0.47031  -0.43842  -0.43322  -0.40465
 Alpha  occ. eigenvalues --   -0.39051  -0.37387  -0.34766  -0.34507  -0.31678
 Alpha  occ. eigenvalues --   -0.30075  -0.27945  -0.24870  -0.23805
 Alpha virt. eigenvalues --    0.07663   0.08158   0.09397   0.10434   0.11306
 Alpha virt. eigenvalues --    0.12083   0.13127   0.14824   0.15916   0.16239
 Alpha virt. eigenvalues --    0.17486   0.18002   0.18401   0.19641   0.21131

 Mulliken charges:
               1
     1  C   -0.306302
     2  C    0.109311
     3  O   -0.305872
     4  C    0.118102
     5  C   -0.143504
     6  C   -0.039422
     7  C   -0.092870
     8  O   -0.272002
     9  C   -0.088327
    10  H    0.118080
    11  H    0.116655
    12  H    0.104487
    13  H    0.087013
    14  H    0.100583
    15  H    0.080480
    16  H    0.101516
    17  H    0.098683
    18  H    0.113483
    19  H    0.099905
 Sum of Mulliken charges =   0.00000

 Dipole moment (field-independent basis, Debye):
    X=             -1.7622    Y=              1.3637    Z=              1.3460  Tot=              2.6032
 Quadrupole moment (field-independent basis, Debye-Ang):
   XX=            -57.1786   YY=            -53.4907   ZZ=            -51.5692
   XY=             -2.5525   XZ=              1.2517   YZ=              0.1114

  Exact polarizability:  88.935  -1.612  71.261   1.300  -0.387  64.772
 Approx polarizability: 111.561   0.442 110.054  -1.086  -1.058  99.394

                      1                      2                      3
                      A                      A                      A
 Frequencies --     66.4400                71.6146               153.6493
 Red. masses --      4.2674                 3.8814                 2.9874
 Frc consts  --      0.0111                 0.0117                 0.0416
 IR Inten    --      4.1145                 1.2251                 1.6808

                      4                      5                      6
                      A                      A                      A
 Frequencies --    168.5369               311.4794               393.6130
 Red. masses --      2.7273                 3.2079                 2.9984
 Frc consts  --      0.0456                 0.1834                 0.2737
 IR Inten    --      0.2724                 0.6704                 3.6118

                      7                      8                      9
                      A                      A                      A
 Frequencies --    440.8820               483.3040               755.8107
 Red. masses --      2.4794                 3.1653                 1.6715
 Frc consts  --      0.2840                 0.4356                 0.5626
 IR Inten    --      1.7717                 6.0120                 8.6455

                     10                     11                     12
                      A                      A                      A
 Frequencies --    787.8576               830.2221               858.0737
 Red. masses --      2.3420                 3.7865                 1.8612
 Frc consts  --      0.8565                 1.5377                 0.8074
 IR Inten    --      3.3547                13.0460                 3.8801

                     13                     14                     15
                      A                      A                      A
 Frequencies --    865.7709               882.7040               933.5255
 Red. masses --      2.9542                 1.5078                 2.8914
 Frc consts  --      1.3046                 0.6922                 1.4846
 IR Inten    --     21.1139                 1.1856                22.7272

                     16                     17                     18
                      A                      A                      A
 Frequencies --    948.1313               965.8989               983.3853
 Red. masses --      2.7767                 2.7482                 1.9248
 Frc consts  --      1.4707                 1.5106                 1.0967
 IR Inten    --      5.3886                16.2246                 8.1862

                     19                     20                     21
                      A                      A                      A
 Frequencies --   1018.2855              1024.6667              1040.2857
 Red. masses --      2.0259                 2.0899                 6.1445
 Frc consts  --      1.2377                 1.2928                 3.9178
 IR Inten    --     70.9455                31.4528                69.8318

                     22                     23                     24
                      A                      A                      A
 Frequencies --   1047.0226              1057.8107              1072.9755
 Red. masses --      1.4486                 2.1571                 1.9354
 Frc consts  --      0.9356                 1.4221                 1.3128
 IR Inten    --      0.8252                 2.0473                 3.0153

                     25                     26                     27
                      A                      A                      A
 Frequencies --   1084.9283              1091.9595              1155.7619
 Red. masses --      1.8582                 2.1019                 1.2758
 Frc consts  --      1.2887                 1.4766                 1.0041
 IR Inten    --     13.4723                21.4170                 3.6098

                     28                     29                     30
                      A                      A                      A
 Frequencies --   1162.4607              1201.9267              1209.5767
 Red. masses --      1.0991                 1.8774                 2.0099
 Frc consts  --      0.8751                 1.5980                 1.7325
 IR Inten    --      0.4389                 2.9162                 5.4274

                     31                     32                     33
                      A                      A                      A
 Frequencies --   1240.6196              1248.3570              1298.2367
 Red. masses --      1.2512                 1.4505                 1.4108
 Frc consts  --      1.1346                 1.3318                 1.4010
 IR Inten    --      1.4489                 0.7233                 5.0886

                     34                     35                     36
                      A                      A                      A
 Frequencies --   1306.2284              1310.1001              1356.3552
 Red. masses --      1.6303                 1.2954                 1.8139
 Frc consts  --      1.6389                 1.3099                 1.9661
 IR Inten    --      8.8907                 0.9610                 8.8549

                     37                     38                     39
                      A                      A                      A
 Frequencies --   1380.1214              1419.0239              1474.3245
 Red. masses --      1.4508                 1.7303                 1.2654
 Frc consts  --      1.6282                 2.0529                 1.6205
 IR Inten    --      3.8117                11.3885                 5.0337

                     40                     41                     42
                      A                      A                      A
 Frequencies --   1513.4874              1538.9162              3002.7468
 Red. masses --      1.0791                 1.1096                 1.0546
 Frc consts  --      1.4564                 1.5483                 5.6023
 IR Inten    --      0.9352                 1.1231                94.5416

                     43                     44                     45
                      A                      A                      A
 Frequencies --   3010.7260              3019.2250              3044.1093
 Red. masses --      1.0810                 1.0609                 1.1101
 Frc consts  --      5.7730                 5.6977                 6.0611
 IR Inten    --     42.3141                28.1424                40.2320

                     46                     47                     48
                      A                      A                      A
 Frequencies --   3062.8181              3091.3704              3114.7157
 Red. masses --      1.1079                 1.0884                 1.0540
 Frc consts  --      6.1236                 6.1284                 6.0248
 IR Inten    --     27.3548                39.7520                13.1328

                     49                     50                     51
                      A                      A                      A
 Frequencies --   3180.3422              3198.7293              3210.1437
 Red. masses --      1.0914                 1.1026                 1.1102
 Frc consts  --      6.5040                 6.6468                 6.7406
 IR Inten    --     22.1589                 2.4366                14.4190

 - Thermochemistry -
 -------------------
 Temperature   298.150 Kelvin.  Pressure   1.00000 Atm.
 Atom     1 has atomic number  6 and mass  12.00000

 Molecular mass:   126.06808 amu.
 Principal axes and moments of inertia in atomic units:
                           1         2         3
     Eigenvalues --   380.308501803.258341994.85407
           X            0.99990  -0.01178   0.00743
           Y            0.01177   0.99993   0.00231
           Z           -0.00746  -0.00223   0.99997
 This molecule is an asymmetric top.
 Rotational symmetry number  1.
 Rotational temperatures (Kelvin)      0.22775     0.04803     0.04342
 Rotational constants (GHZ):           4.74547     1.00082     0.90470
 Zero-point vibrational energy     419226.8 (Joules/Mol)
                                  100.19762 (Kcal/Mol)
 Warning -- explicit consideration of   8 degrees of freedom as
           vibrations may cause significant error
 Vibrational temperatures:     95.59   103.04   221.07   242.49   448.15
          (Kelvin)            566.32   634.33   695.37  1087.44  1133.55
                             1194.50  1234.58  1245.65  1270.01  1343.13
                             1364.15  1389.71  1414.87  1465.08  1474.27
                             1496.74  1506.43  1521.95  1543.77  1560.97
                             1571.08  1662.88  1672.52  1729.30  1740.31
                             1784.97  1796.11  1867.87  1879.37  1884.94
                             1951.49  1985.68  2041.66  2121.22  2177.57
                             2214.15  4320.28  4331.76  4343.99  4379.79
                             4406.71  4447.79  4481.38  4575.80  4602.25
                             4618.67

 Zero-point correction=                           0.159675 (Hartree/Particle)
 Thermal correction to Energy=                    0.167589
 Thermal correction to Enthalpy=                  0.168533
 Thermal correction to Gibbs Free Energy=         0.126240
 Sum of electronic and zero-point Energies=           -422.951702
 Sum of electronic and thermal Energies=              -422.943788
 Sum of electronic and thermal Enthalpies=            -422.942844
 Sum of electronic and thermal Free Energies=         -422.985136

                     E (Thermal)             CV                S
                      KCal/Mol        Cal/Mol-Kelvin    Cal/Mol-Kelvin
 Total                  105.164             29.610             89.012
 Electronic               0.000              0.000              0.000
 Translational            0.889              2.981             40.409
 Rotational               0.889              2.981             28.705
 Vibrational            103.386             23.649             19.898
 Vibration     1          0.598              1.970              4.256
 Vibration     2          0.598              1.968              4.108
 Vibration     3          0.619              1.899              2.627
 Vibration     4          0.625              1.881              2.452
 Vibration     5          0.700              1.652              1.354
 Vibration     6          0.761              1.484              0.986
 Vibration     7          0.801              1.381              0.824
 Vibration     8          0.839              1.287              0.701

 Optimization completed.
    -- Stationary point found.
 Normal termination of Gaussian 09 at Mon Jan 27 11:55:36 2020.
