 Gaussian 09, Revision D.01,
 Gaussian 09:  ES64L-G09RevD.01 24-Apr-2013

 -----------------------------
 # b3lyp 6-31G(2df,p) opt Freq
 -----------------------------

 -----
 titel
 -----
 Symbolic Z-matrix:
 Charge =  0 Multiplicity = 1

 SCF Done:  E(RB3LYP) =  -423.152453491     A.U. after   13 cycles
 Optimization completed.
    -- Stationary point found.
 Normal termination of Gaussian 09 at Mon Jan 27 19:02:36 2020.

 ----------------------------------------------------------------------
 #N Geom=AllCheck Guess=TCheck SCRF=Check GenChk RB3LYP/6-31G(2df,p) Fr
 eq
 ----------------------------------------------------------------------

 Structure from the checkpoint file:  "/scratch/puck/g09_047bd7a6-a5e2-4d42-848b-47956cefa689/Gau-151187.chk"
 -----
 titel
 -----
 Charge =  0 Multiplicity = 1

                         Standard orientation:
 ---------------------------------------------------------------------
 Center     Atomic      Atomic             Coordinates (Angstroms)
 Number     Number       Type             X           Y           Z
 ---------------------------------------------------------------------
      1          6           0       -2.132046   -0.937447    0.132073
      2          6           0       -0.665336   -0.585508    0.126458
      3          6           0        0.378999   -1.599177   -0.357991
      4          6           0        1.573158   -0.728938   -0.842231
      5          6           0        1.303473    0.613838   -0.176028
      6          8           0        1.247197    0.402174    1.275772
      7          6           0       -0.178687    0.386811    1.215792
      8          6           0       -0.236361    0.818472   -0.219331
      9          8           0       -0.982431    1.703536   -0.963205
     10          1           0       -2.740592   -0.101623    0.491085
     11          1           0       -2.481760   -1.184619   -0.876348
     12          1           0       -2.327997   -1.800823    0.777479
     13          1           0        0.680010   -2.272741    0.450125
     14          1           0       -0.027090   -2.218385   -1.163942
     15          1           0        2.545644   -1.139791   -0.557673
     16          1           0        1.561244   -0.605235   -1.931790
     17          1           0        1.965354    1.443651   -0.434790
     18          1           0       -0.738119    0.629806    2.112481
     19          1           0       -0.814026    2.595778   -0.639610
 ---------------------------------------------------------------------

 SCF Done:  E(RB3LYP) =  -423.152453491     A.U. after    1 cycles

 The electronic state is 1-A.
 Alpha  occ. eigenvalues --  -19.15844 -19.13183 -10.23310 -10.23147 -10.22873
 Alpha  occ. eigenvalues --  -10.19213 -10.18061 -10.17928 -10.17827  -1.05695
 Alpha  occ. eigenvalues --   -1.03048  -0.84566  -0.76836  -0.71638  -0.67540
 Alpha  occ. eigenvalues --   -0.60873  -0.57110  -0.54223  -0.51770  -0.48629
 Alpha  occ. eigenvalues --   -0.46496  -0.43125  -0.41217  -0.40634  -0.39838
 Alpha  occ. eigenvalues --   -0.38165  -0.36685  -0.35802  -0.34754  -0.34087
 Alpha  occ. eigenvalues --   -0.32704  -0.27465  -0.25245  -0.21768
 Alpha virt. eigenvalues --    0.06754   0.09410   0.10707   0.10834   0.11912
 Alpha virt. eigenvalues --    0.14243   0.14774   0.16299   0.16472   0.17418
 Alpha virt. eigenvalues --    0.17949   0.19054   0.21419   0.22078   0.22265

 Mulliken charges:
               1
     1  C   -0.490354
     2  C    0.257947
     3  C   -0.280045
     4  C   -0.214522
     5  C    0.019576
     6  O   -0.310296
     7  C   -0.039097
     8  C    0.266898
     9  O   -0.455633
    10  H    0.120548
    11  H    0.123754
    12  H    0.117937
    13  H    0.109028
    14  H    0.098021
    15  H    0.106892
    16  H    0.102243
    17  H    0.074855
    18  H    0.101784
    19  H    0.290465
 Sum of Mulliken charges =   0.00000

 Dipole moment (field-independent basis, Debye):
    X=             -0.4707    Y=              0.6521    Z=             -0.4333  Tot=              0.9135
 Quadrupole moment (field-independent basis, Debye-Ang):
   XX=            -54.2546   YY=            -47.5454   ZZ=            -55.5323
   XY=              0.1824   XZ=             -4.9480   YZ=              0.6959

  Exact polarizability:  78.517   1.940  75.724  -3.590   0.911  68.040
 Approx polarizability: 107.620   2.347 108.614   0.235  -0.611 109.088

                      1                      2                      3
                      A                      A                      A
 Frequencies --    182.3615               191.3170               213.6828
 Red. masses --      1.4972                 1.5659                 2.1991
 Frc consts  --      0.0293                 0.0338                 0.0592
 IR Inten    --      0.4169                 1.3160                 1.1434

                      4                      5                      6
                      A                      A                      A
 Frequencies --    219.7861               302.1606               356.3033
 Red. masses --      2.7672                 2.0621                 1.2866
 Frc consts  --      0.0788                 0.1109                 0.0962
 IR Inten    --      4.6745                 8.8504                67.8834

                      7                      8                      9
                      A                      A                      A
 Frequencies --    372.9984               415.7407               509.9099
 Red. masses --      4.1158                 3.1257                 2.8842
 Frc consts  --      0.3374                 0.3183                 0.4418
 IR Inten    --      6.5043                19.7538                 3.2632

                     10                     11                     12
                      A                      A                      A
 Frequencies --    559.6812               656.2555               677.8567
 Red. masses --      4.3804                 4.6115                 3.4118
 Frc consts  --      0.8084                 1.1701                 0.9237
 IR Inten    --      3.6436                 5.2052                 0.8943

                     13                     14                     15
                      A                      A                      A
 Frequencies --    734.7718               784.8897               834.4129
 Red. masses --      4.4358                 3.6240                 1.8249
 Frc consts  --      1.4110                 1.3154                 0.7486
 IR Inten    --      2.3390                 9.6455                 6.9337

                     16                     17                     18
                      A                      A                      A
 Frequencies --    870.8301               913.3511               937.1267
 Red. masses --      2.4020                 2.4605                 2.1498
 Frc consts  --      1.0732                 1.2093                 1.1123
 IR Inten    --     20.0706                 6.8137                 6.3243

                     19                     20                     21
                      A                      A                      A
 Frequencies --    953.6661               995.2068              1006.3188
 Red. masses --      1.5261                 1.9768                 2.4301
 Frc consts  --      0.8177                 1.1535                 1.4499
 IR Inten    --     10.0893                12.9157                22.8641

                     22                     23                     24
                      A                      A                      A
 Frequencies --   1017.3642              1058.5196              1081.1868
 Red. masses --      2.2056                 2.9400                 2.0210
 Frc consts  --      1.3450                 1.9409                 1.3919
 IR Inten    --     31.7038                 7.1576                 1.1701

                     25                     26                     27
                      A                      A                      A
 Frequencies --   1109.1173              1165.3828              1178.7505
 Red. masses --      1.7587                 1.6259                 1.5137
 Frc consts  --      1.2747                 1.3010                 1.2391
 IR Inten    --      0.1959                 5.5679                 1.4589

                     28                     29                     30
                      A                      A                      A
 Frequencies --   1221.4598              1234.4361              1267.5172
 Red. masses --      2.3825                 1.6582                 1.5780
 Frc consts  --      2.0943                 1.4887                 1.4937
 IR Inten    --     55.1630                 7.8935                 0.6524

                     31                     32                     33
                      A                      A                      A
 Frequencies --   1273.6325              1302.9052              1311.1425
 Red. masses --      1.4856                 2.0616                 1.4511
 Frc consts  --      1.4198                 2.0619                 1.4698
 IR Inten    --     11.5626                30.9776                39.1221

                     34                     35                     36
                      A                      A                      A
 Frequencies --   1333.1465              1358.3944              1418.3582
 Red. masses --      1.4275                 2.2675                 1.2936
 Frc consts  --      1.4948                 2.4652                 1.5332
 IR Inten    --      2.5360                34.9047                 1.0501

                     37                     38                     39
                      A                      A                      A
 Frequencies --   1471.7124              1475.1804              1487.5901
 Red. masses --      1.2124                 1.5867                 1.0792
 Frc consts  --      1.5472                 2.0344                 1.4071
 IR Inten    --      2.9312                 8.7099                 7.7145

                     40                     41                     42
                      A                      A                      A
 Frequencies --   1496.1305              1513.1624              3027.7362
 Red. masses --      1.0960                 1.4489                 1.0356
 Frc consts  --      1.4455                 1.9547                 5.5935
 IR Inten    --      1.4641                20.8951                31.6546

                     43                     44                     45
                      A                      A                      A
 Frequencies --   3036.9787              3050.6190              3083.2075
 Red. masses --      1.0632                 1.0602                 1.1017
 Frc consts  --      5.7776                 5.8134                 6.1703
 IR Inten    --     25.2058                43.1492                 7.0140

                     46                     47                     48
                      A                      A                      A
 Frequencies --   3088.2741              3090.6167              3102.1061
 Red. masses --      1.1010                 1.0916                 1.1009
 Frc consts  --      6.1866                 6.1431                 6.2417
 IR Inten    --     14.4426                56.0494                31.6824

                     49                     50                     51
                      A                      A                      A
 Frequencies --   3102.8196              3175.4821              3789.1773
 Red. masses --      1.1015                 1.0939                 1.0661
 Frc consts  --      6.2483                 6.4991                 9.0187
 IR Inten    --     22.7307                18.0525                24.4998

 - Thermochemistry -
 -------------------
 Temperature   298.150 Kelvin.  Pressure   1.00000 Atm.
 Atom     1 has atomic number  6 and mass  12.00000

 Molecular mass:   126.06808 amu.
 Principal axes and moments of inertia in atomic units:
                           1         2         3
     Eigenvalues --   794.61283 961.453341171.50393
           X            0.99633   0.05613  -0.06458
           Y           -0.05416   0.99802   0.03187
           Z            0.06624  -0.02826   0.99740
 This molecule is an asymmetric top.
 Rotational symmetry number  1.
 Warning -- assumption of classical behavior for rotation
           may cause significant error
 Rotational temperatures (Kelvin)      0.10900     0.09009     0.07393
 Rotational constants (GHZ):           2.27122     1.87710     1.54053
 Zero-point vibrational energy     418757.2 (Joules/Mol)
                                  100.08537 (Kcal/Mol)
 Warning -- explicit consideration of  10 degrees of freedom as
           vibrations may cause significant error
 Vibrational temperatures:    262.38   275.26   307.44   316.22   434.74
          (Kelvin)            512.64   536.66   598.16   733.65   805.26
                              944.20   975.28  1057.17  1129.28  1200.53
                             1252.93  1314.11  1348.31  1372.11  1431.88
                             1447.87  1463.76  1522.97  1555.58  1595.77
                             1676.72  1695.96  1757.41  1776.08  1823.67
                             1832.47  1874.59  1886.44  1918.10  1954.42
                             2040.70  2117.46  2122.45  2140.31  2152.60
                             2177.10  4356.23  4369.53  4389.15  4436.04
                             4443.33  4446.70  4463.23  4464.26  4568.80
                             5451.77

 Zero-point correction=                           0.159496 (Hartree/Particle)
 Thermal correction to Energy=                    0.167427
 Thermal correction to Enthalpy=                  0.168371
 Thermal correction to Gibbs Free Energy=         0.127687
 Sum of electronic and zero-point Energies=           -422.992957
 Sum of electronic and thermal Energies=              -422.985027
 Sum of electronic and thermal Enthalpies=            -422.984083
 Sum of electronic and thermal Free Energies=         -423.024766

                     E (Thermal)             CV                S
                      KCal/Mol        Cal/Mol-Kelvin    Cal/Mol-Kelvin
 Total                  105.062             31.760             85.626
 Electronic               0.000              0.000              0.000
 Translational            0.889              2.981             40.409
 Rotational               0.889              2.981             28.283
 Vibrational            103.284             25.798             16.934
 Vibration     1          0.630              1.864              2.304
 Vibration     2          0.634              1.852              2.215
 Vibration     3          0.644              1.820              2.012
 Vibration     4          0.647              1.811              1.961
 Vibration     5          0.694              1.670              1.405
 Vibration     6          0.732              1.562              1.138
 Vibration     7          0.744              1.528              1.067
 Vibration     8          0.779              1.436              0.907
 Vibration     9          0.865              1.228              0.634
 Vibration    10          0.915              1.119              0.524

 Normal termination of Gaussian 09 at Mon Jan 27 19:48:33 2020.
