 Gaussian 09, Revision D.01,
 Gaussian 09:  ES64L-G09RevD.01 24-Apr-2013

 -----------------------------
 # b3lyp 6-31G(2df,p) opt Freq
 -----------------------------

 -----
 titel
 -----
 Symbolic Z-matrix:
 Charge =  0 Multiplicity = 1

 SCF Done:  E(RB3LYP) =  -423.232419313     A.U. after   14 cycles
 Optimization completed.
    -- Stationary point found.
 Normal termination of Gaussian 09 at Mon Jan 27 22:03:14 2020.

 ----------------------------------------------------------------------
 #N Geom=AllCheck Guess=TCheck SCRF=Check GenChk RB3LYP/6-31G(2df,p) Fr
 eq
 ----------------------------------------------------------------------

 Structure from the checkpoint file:  "/scratch/puck/g09_695526be-cbe7-409e-8ba2-e98ac38026d6/Gau-180895.chk"
 -----
 titel
 -----
 Charge =  0 Multiplicity = 1

                         Standard orientation:
 ---------------------------------------------------------------------
 Center     Atomic      Atomic             Coordinates (Angstroms)
 Number     Number       Type             X           Y           Z
 ---------------------------------------------------------------------
      1          6           0       -2.928745   -0.399172   -0.432772
      2          6           0       -1.510419   -0.074905   -0.040391
      3          6           0       -1.095601    1.191332    0.054400
      4          6           0        0.289025    1.689309    0.385808
      5          8           0        1.363316    1.050106   -0.322338
      6          6           0        1.656117   -0.255312   -0.110644
      7          8           0        2.591167   -0.744089   -0.685056
      8          6           0        0.743695   -1.032542    0.822317
      9          6           0       -0.643885   -1.287739    0.207946
     10          1           0       -2.953335   -1.010682   -1.343821
     11          1           0       -3.429059   -0.985804    0.348181
     12          1           0       -3.517178    0.503220   -0.614561
     13          1           0       -1.819110    1.980782   -0.135600
     14          1           0        0.372401    2.736572    0.087644
     15          1           0        0.491294    1.654312    1.464795
     16          1           0        1.241453   -1.984662    1.011299
     17          1           0        0.635070   -0.515828    1.781557
     18          1           0       -0.526405   -1.843511   -0.733414
     19          1           0       -1.192118   -1.968361    0.873077
 ---------------------------------------------------------------------

 SCF Done:  E(RB3LYP) =  -423.232419313     A.U. after    1 cycles

 The electronic state is 1-A.
 Alpha  occ. eigenvalues --  -19.17420 -19.11248 -10.29915 -10.25065 -10.20687
 Alpha  occ. eigenvalues --  -10.20601 -10.20201 -10.19092 -10.18962  -1.08966
 Alpha  occ. eigenvalues --   -1.00848  -0.83588  -0.77861  -0.74248  -0.66985
 Alpha  occ. eigenvalues --   -0.66756  -0.56229  -0.53931  -0.51072  -0.48830
 Alpha  occ. eigenvalues --   -0.46125  -0.44663  -0.43615  -0.42727  -0.41874
 Alpha  occ. eigenvalues --   -0.40399  -0.38846  -0.37946  -0.36002  -0.35387
 Alpha  occ. eigenvalues --   -0.32958  -0.28822  -0.25858  -0.25292
 Alpha virt. eigenvalues --   -0.00041   0.01818   0.08098   0.09403   0.10266
 Alpha virt. eigenvalues --    0.12320   0.14400   0.15357   0.16133   0.16818
 Alpha virt. eigenvalues --    0.17256   0.18209   0.20023   0.20571   0.22467

 Mulliken charges:
               1
     1  C   -0.466639
     2  C    0.314069
     3  C   -0.159941
     4  C   -0.142973
     5  O   -0.214443
     6  C    0.415574
     7  O   -0.324211
     8  C   -0.355886
     9  C   -0.285988
    10  H    0.130940
    11  H    0.126046
    12  H    0.125050
    13  H    0.089841
    14  H    0.129805
    15  H    0.120298
    16  H    0.131171
    17  H    0.121899
    18  H    0.131018
    19  H    0.114369
 Sum of Mulliken charges =   0.00000

 Dipole moment (field-independent basis, Debye):
    X=             -3.8809    Y=              0.3731    Z=              2.1590  Tot=              4.4566
 Quadrupole moment (field-independent basis, Debye-Ang):
   XX=            -61.6996   YY=            -49.5703   ZZ=            -53.4372
   XY=              1.9788   XZ=              5.2408   YZ=             -0.1301

  Exact polarizability:  88.242   0.703  87.445   0.725   1.792  58.141
 Approx polarizability: 117.256   0.955 137.297  -4.261   5.672  91.635

                      1                      2                      3
                      A                      A                      A
 Frequencies --     66.0400               156.4259               165.7778
 Red. masses --      4.1751                 3.0919                 1.6907
 Frc consts  --      0.0107                 0.0446                 0.0274
 IR Inten    --      1.7642                 0.3331                 2.7294

                      4                      5                      6
                      A                      A                      A
 Frequencies --    208.2345               294.0595               321.6461
 Red. masses --      1.5986                 2.2981                 2.5207
 Frc consts  --      0.0408                 0.1171                 0.1537
 IR Inten    --      1.2877                 1.7914                 0.9194

                      7                      8                      9
                      A                      A                      A
 Frequencies --    354.3587               391.6155               440.1398
 Red. masses --      4.0325                 4.0687                 2.1258
 Frc consts  --      0.2983                 0.3676                 0.2426
 IR Inten    --      3.0663                 0.2869                 3.5782

                     10                     11                     12
                      A                      A                      A
 Frequencies --    510.8653               559.7754               690.9874
 Red. masses --      2.8578                 3.9096                 3.1310
 Frc consts  --      0.4394                 0.7218                 0.8808
 IR Inten    --      1.8846                 4.7256                 4.4928

                     13                     14                     15
                      A                      A                      A
 Frequencies --    718.6369               754.3172               773.8021
 Red. masses --      3.8827                 3.6404                 1.9609
 Frc consts  --      1.1814                 1.2204                 0.6918
 IR Inten    --      3.2636                 4.7326                 2.6891

                     16                     17                     18
                      A                      A                      A
 Frequencies --    853.7902               916.5513               934.8312
 Red. masses --      1.8316                 2.0994                 2.2723
 Frc consts  --      0.7866                 1.0391                 1.1700
 IR Inten    --      8.7504                 5.2435                10.8817

                     19                     20                     21
                      A                      A                      A
 Frequencies --   1008.9656              1030.5210              1044.6631
 Red. masses --      1.5545                 1.8255                 2.1174
 Frc consts  --      0.9324                 1.1422                 1.3615
 IR Inten    --      2.2399                10.0899                 2.7232

                     22                     23                     24
                      A                      A                      A
 Frequencies --   1051.7054              1079.9408              1116.2619
 Red. masses --      2.8081                 1.8613                 4.5631
 Frc consts  --      1.8300                 1.2790                 3.3500
 IR Inten    --     35.7360                 5.7389                60.0304

                     25                     26                     27
                      A                      A                      A
 Frequencies --   1149.6499              1190.9681              1235.6581
 Red. masses --      1.7335                 1.7159                 1.7158
 Frc consts  --      1.3499                 1.4340                 1.5435
 IR Inten    --     30.7849                23.9910                82.6686

                     28                     29                     30
                      A                      A                      A
 Frequencies --   1274.9411              1290.0565              1345.3069
 Red. masses --      1.2353                 1.3341                 1.3506
 Frc consts  --      1.1830                 1.3081                 1.4402
 IR Inten    --     12.6036                57.4802                 1.4869

                     31                     32                     33
                      A                      A                      A
 Frequencies --   1362.7317              1403.9784              1415.0877
 Red. masses --      1.3939                 1.6705                 1.2640
 Frc consts  --      1.5251                 1.9401                 1.4914
 IR Inten    --     15.7500                 1.8416                 7.0649

                     34                     35                     36
                      A                      A                      A
 Frequencies --   1422.4015              1472.6655              1478.8771
 Red. masses --      1.4176                 1.0776                 1.0468
 Frc consts  --      1.6898                 1.3770                 1.3489
 IR Inten    --     24.7174                 3.0303                 6.6606

                     37                     38                     39
                      A                      A                      A
 Frequencies --   1481.8296              1491.7397              1509.8374
 Red. masses --      1.1185                 1.0647                 1.0791
 Frc consts  --      1.4471                 1.3959                 1.4493
 IR Inten    --     16.1799                 8.0243                 6.7590

                     40                     41                     42
                      A                      A                      A
 Frequencies --   1741.2241              1843.7318              3008.0858
 Red. masses --      7.0284                11.8434                 1.0592
 Frc consts  --     12.5550                23.7205                 5.6470
 IR Inten    --      9.9628               329.0486                13.7991

                     43                     44                     45
                      A                      A                      A
 Frequencies --   3011.8412              3019.4978              3032.9992
 Red. masses --      1.0714                 1.0405                 1.0957
 Frc consts  --      5.7260                 5.5892                 5.9384
 IR Inten    --     32.3054                37.0867                11.7568

                     46                     47                     48
                      A                      A                      A
 Frequencies --   3060.6327              3065.9188              3100.7701
 Red. masses --      1.0675                 1.0981                 1.0917
 Frc consts  --      5.8917                 6.0818                 6.1845
 IR Inten    --     16.6415                23.5223                19.0872

                     49                     50                     51
                      A                      A                      A
 Frequencies --   3118.7097              3125.8474              3151.2857
 Red. masses --      1.0991                 1.0989                 1.0887
 Frc consts  --      6.2983                 6.3265                 6.3701
 IR Inten    --     15.1656                10.8409                21.0110

 - Thermochemistry -
 -------------------
 Temperature   298.150 Kelvin.  Pressure   1.00000 Atm.
 Atom     1 has atomic number  6 and mass  12.00000

 Molecular mass:   126.06808 amu.
 Principal axes and moments of inertia in atomic units:
                           1         2         3
     Eigenvalues --   618.209451425.030271815.63348
           X            0.99964   0.01527   0.02197
           Y           -0.01525   0.99988  -0.00132
           Z           -0.02199   0.00099   0.99976
 This molecule is an asymmetric top.
 Rotational symmetry number  1.
 Warning -- assumption of classical behavior for rotation
           may cause significant error
 Rotational temperatures (Kelvin)      0.14010     0.06078     0.04770
 Rotational constants (GHZ):           2.91930     1.26646     0.99400
 Zero-point vibrational energy     420189.4 (Joules/Mol)
                                  100.42768 (Kcal/Mol)
 Warning -- explicit consideration of  11 degrees of freedom as
           vibrations may cause significant error
 Vibrational temperatures:     95.02   225.06   238.52   299.60   423.09
          (Kelvin)            462.78   509.84   563.45   633.26   735.02
                              805.39   994.18  1033.96  1085.29  1113.33
                             1228.41  1318.71  1345.01  1451.67  1482.69
                             1503.04  1513.17  1553.79  1606.05  1654.09
                             1713.54  1777.83  1834.35  1856.10  1935.59
                             1960.66  2020.01  2035.99  2046.52  2118.83
                             2127.77  2132.02  2146.28  2172.32  2505.23
                             2652.72  4327.96  4333.36  4344.38  4363.80
                             4403.56  4411.17  4461.31  4487.12  4497.39
                             4533.99

 Zero-point correction=                           0.160042 (Hartree/Particle)
 Thermal correction to Energy=                    0.168527
 Thermal correction to Enthalpy=                  0.169471
 Thermal correction to Gibbs Free Energy=         0.126781
 Sum of electronic and zero-point Energies=           -423.072378
 Sum of electronic and thermal Energies=              -423.063892
 Sum of electronic and thermal Enthalpies=            -423.062948
 Sum of electronic and thermal Free Energies=         -423.105639

                     E (Thermal)             CV                S
                      KCal/Mol        Cal/Mol-Kelvin    Cal/Mol-Kelvin
 Total                  105.752             32.077             89.850
 Electronic               0.000              0.000              0.000
 Translational            0.889              2.981             40.409
 Rotational               0.889              2.981             28.860
 Vibrational            103.975             26.115             20.582
 Vibration     1          0.597              1.970              4.268
 Vibration     2          0.620              1.895              2.593
 Vibration     3          0.624              1.885              2.483
 Vibration     4          0.642              1.828              2.059
 Vibration     5          0.689              1.685              1.450
 Vibration     6          0.707              1.632              1.302
 Vibration     7          0.730              1.566              1.147
 Vibration     8          0.759              1.488              0.994
 Vibration     9          0.800              1.383              0.826
 Vibration    10          0.866              1.226              0.632
 Vibration    11          0.915              1.118              0.524

 Optimization completed.
    -- Stationary point found.
 Normal termination of Gaussian 09 at Mon Jan 27 22:47:06 2020.
