 Gaussian 09, Revision D.01,
 Gaussian 09:  ES64L-G09RevD.01 24-Apr-2013

 -----------------------------
 # b3lyp 6-31G(2df,p) opt Freq
 -----------------------------

 -----
 titel
 -----
 Symbolic Z-matrix:
 Charge =  0 Multiplicity = 1

 SCF Done:  E(RB3LYP) =  -423.148821475     A.U. after   14 cycles
 SCF Done:  E(RB3LYP) =  -423.148821958     A.U. after    7 cycles
 SCF Done:  E(RB3LYP) =  -423.148821586     A.U. after    8 cycles
 SCF Done:  E(RB3LYP) =  -423.148822264     A.U. after    7 cycles
 SCF Done:  E(RB3LYP) =  -423.148822350     A.U. after    7 cycles
 Optimization completed.
    -- Stationary point found.
 Normal termination of Gaussian 09 at Tue Jan 28 08:33:29 2020.

 ----------------------------------------------------------------------
 #N Geom=AllCheck Guess=TCheck SCRF=Check GenChk RB3LYP/6-31G(2df,p) Fr
 eq
 ----------------------------------------------------------------------

 Structure from the checkpoint file:  "/scratch/puck/g09_96afac96-dec1-444a-8e2b-607c51bc8cbc/Gau-14331.chk"
 -----
 titel
 -----
 Charge =  0 Multiplicity = 1

                         Standard orientation:
 ---------------------------------------------------------------------
 Center     Atomic      Atomic             Coordinates (Angstroms)
 Number     Number       Type             X           Y           Z
 ---------------------------------------------------------------------
      1          6           0       -0.615002    1.885310    0.620178
      2          6           0       -0.413519    0.416555    0.217413
      3          6           0        0.131082   -0.464573    1.366605
      4          8           0        0.662258   -1.614522    0.739481
      5          6           0        1.195975   -1.239456   -0.529167
      6          6           0        0.733141    0.197028   -0.831999
      7          8           0        1.840284    1.056508   -0.612255
      8          6           0       -1.654435   -0.145081   -0.313837
      9          6           0       -2.673800   -0.589625   -0.771240
     10          1           0       -1.381035    1.965587    1.396210
     11          1           0        0.315949    2.305274    1.008946
     12          1           0       -0.950060    2.484660   -0.232415
     13          1           0        0.908577    0.095366    1.910106
     14          1           0       -0.641474   -0.782789    2.070404
     15          1           0        2.292415   -1.260475   -0.515431
     16          1           0        0.834184   -1.954056   -1.274920
     17          1           0        0.353597    0.301868   -1.854801
     18          1           0        1.601802    1.939892   -0.910412
     19          1           0       -3.574953   -0.992159   -1.163209
 ---------------------------------------------------------------------

 SCF Done:  E(RB3LYP) =  -423.148822350     A.U. after    1 cycles

 The electronic state is 1-A.
 Alpha  occ. eigenvalues --  -19.14965 -19.13410 -10.24278 -10.22703 -10.22308
 Alpha  occ. eigenvalues --  -10.21922 -10.18945 -10.18082 -10.17347  -1.04317
 Alpha  occ. eigenvalues --   -1.02212  -0.82328  -0.74238  -0.73008  -0.69069
 Alpha  occ. eigenvalues --   -0.61085  -0.59271  -0.53414  -0.52586  -0.49741
 Alpha  occ. eigenvalues --   -0.47771  -0.45423  -0.43200  -0.41260  -0.39830
 Alpha  occ. eigenvalues --   -0.39205  -0.37194  -0.37093  -0.34389  -0.31316
 Alpha  occ. eigenvalues --   -0.29258  -0.26775  -0.25999  -0.24557
 Alpha virt. eigenvalues --    0.04458   0.05244   0.06932   0.11033   0.11944
 Alpha virt. eigenvalues --    0.12361   0.13212   0.13780   0.15202   0.16365
 Alpha virt. eigenvalues --    0.17372   0.18655   0.19061   0.20223   0.21396

 Mulliken charges:
               1
     1  C   -0.473170
     2  C    0.041756
     3  C   -0.090155
     4  O   -0.258495
     5  C   -0.075570
     6  C    0.055110
     7  O   -0.436194
     8  C    0.347189
     9  C   -0.491590
    10  H    0.133418
    11  H    0.126428
    12  H    0.121681
    13  H    0.095026
    14  H    0.113916
    15  H    0.112321
    16  H    0.111982
    17  H    0.082392
    18  H    0.287445
    19  H    0.196513
 Sum of Mulliken charges =   0.00000

 Dipole moment (field-independent basis, Debye):
    X=             -0.7703    Y=              2.0394    Z=             -0.9710  Tot=              2.3865
 Quadrupole moment (field-independent basis, Debye-Ang):
   XX=            -53.8528   YY=            -52.4649   ZZ=            -50.8557
   XY=              2.0383   XZ=             -0.3048   YZ=              1.4832

  Exact polarizability:  88.133   5.818  72.658   5.005   5.210  68.714
 Approx polarizability: 131.274  14.712 103.749  12.806   7.406 102.205

                      1                      2                      3
                      A                      A                      A
 Frequencies --     51.7560               129.7436               141.2607
 Red. masses --      2.7622                 5.1203                 3.8614
 Frc consts  --      0.0044                 0.0508                 0.0454
 IR Inten    --      2.2114                 2.9376                 0.0315

                      4                      5                      6
                      A                      A                      A
 Frequencies --    212.8580               218.8447               277.4010
 Red. masses --      1.8082                 1.3856                 2.8617
 Frc consts  --      0.0483                 0.0391                 0.1297
 IR Inten    --      2.5748                 2.4024                 7.4675

                      7                      8                      9
                      A                      A                      A
 Frequencies --    322.0048               356.0394               394.9152
 Red. masses --      2.3573                 1.2299                 2.6801
 Frc consts  --      0.1440                 0.0919                 0.2463
 IR Inten    --      1.9066                98.1531                18.7739

                     10                     11                     12
                      A                      A                      A
 Frequencies --    449.5929               501.9377               534.9476
 Red. masses --      4.4071                 4.1231                 4.7289
 Frc consts  --      0.5249                 0.6120                 0.7973
 IR Inten    --      5.1255                 5.5761                 4.4480

                     13                     14                     15
                      A                      A                      A
 Frequencies --    617.7249               631.7433               638.9215
 Red. masses --      4.5088                 1.2341                 1.2378
 Frc consts  --      1.0137                 0.2902                 0.2977
 IR Inten    --      2.6777                40.8232                41.4545

                     16                     17                     18
                      A                      A                      A
 Frequencies --    717.8668               797.9193               865.8325
 Red. masses --      5.1442                 3.2734                 2.4636
 Frc consts  --      1.5619                 1.2279                 1.0881
 IR Inten    --     14.1196                 6.6851                 4.3890

                     19                     20                     21
                      A                      A                      A
 Frequencies --    903.3974               950.0398               956.0469
 Red. masses --      2.2329                 1.9613                 3.7795
 Frc consts  --      1.0737                 1.0430                 2.0354
 IR Inten    --     11.5061                21.7369                35.4136

                     22                     23                     24
                      A                      A                      A
 Frequencies --    997.0024              1026.2636              1110.1219
 Red. masses --      1.9685                 1.5468                 5.2214
 Frc consts  --      1.1529                 0.9599                 3.7912
 IR Inten    --     38.7590                 6.6878                83.3183

                     25                     26                     27
                      A                      A                      A
 Frequencies --   1117.3649              1157.2894              1170.2512
 Red. masses --      2.7076                 4.1343                 2.5809
 Frc consts  --      1.9917                 3.2624                 2.0825
 IR Inten    --     25.0676                13.9705                 2.0361

                     28                     29                     30
                      A                      A                      A
 Frequencies --   1203.3545              1234.6572              1250.2049
 Red. masses --      1.8392                 1.1863                 1.2822
 Frc consts  --      1.5692                 1.0655                 1.1808
 IR Inten    --      0.8721                25.0453                19.5125

                     31                     32                     33
                      A                      A                      A
 Frequencies --   1263.3001              1331.5335              1354.8592
 Red. masses --      1.3398                 1.5264                 1.2524
 Frc consts  --      1.2598                 1.5945                 1.3545
 IR Inten    --     32.4687                14.9442                 1.1416

                     34                     35                     36
                      A                      A                      A
 Frequencies --   1391.1615              1402.7064              1427.4010
 Red. masses --      1.3011                 1.2830                 1.3875
 Frc consts  --      1.4836                 1.4874                 1.6656
 IR Inten    --      2.7556                12.3575                 3.2209

                     37                     38                     39
                      A                      A                      A
 Frequencies --   1495.9573              1499.2952              1503.1830
 Red. masses --      1.0574                 1.0509                 1.0756
 Frc consts  --      1.3942                 1.3918                 1.4320
 IR Inten    --      1.9514                 4.3138                 0.7954

                     40                     41                     42
                      A                      A                      A
 Frequencies --   1514.7362              2230.6769              2980.8443
 Red. masses --      1.0959                 5.9432                 1.0692
 Frc consts  --      1.4814                17.4240                 5.5972
 IR Inten    --      3.4748                 3.0255                59.8097

                     43                     44                     45
                      A                      A                      A
 Frequencies --   3029.9881              3038.9807              3041.1429
 Red. masses --      1.0616                 1.0779                 1.0420
 Frc consts  --      5.7425                 5.8653                 5.6777
 IR Inten    --     37.8872                34.0824                18.2936

                     46                     47                     48
                      A                      A                      A
 Frequencies --   3082.1514              3102.4952              3110.8098
 Red. masses --      1.1054                 1.0946                 1.1008
 Frc consts  --      6.1868                 6.2078                 6.2763
 IR Inten    --     30.4817                19.5085                16.6477

                     49                     50                     51
                      A                      A                      A
 Frequencies --   3125.0687              3501.0700              3822.8356
 Red. masses --      1.1024                 1.1614                 1.0661
 Frc consts  --      6.3430                 8.3876                 9.1798
 IR Inten    --     16.7018                69.7304                22.0150

 - Thermochemistry -
 -------------------
 Temperature   298.150 Kelvin.  Pressure   1.00000 Atm.
 Atom     1 has atomic number  6 and mass  12.00000

 Molecular mass:   126.06808 amu.
 Principal axes and moments of inertia in atomic units:
                           1         2         3
     Eigenvalues --   847.734931130.719141402.81796
           X            0.99980  -0.01801  -0.00819
           Y            0.01851   0.99766   0.06575
           Z            0.00699  -0.06589   0.99780
 This molecule is an asymmetric top.
 Rotational symmetry number  1.
 Warning -- assumption of classical behavior for rotation
           may cause significant error
 Rotational temperatures (Kelvin)      0.10217     0.07660     0.06174
 Rotational constants (GHZ):           2.12890     1.59610     1.28651
 Zero-point vibrational energy     413833.2 (Joules/Mol)
                                   98.90850 (Kcal/Mol)
 Warning -- explicit consideration of  13 degrees of freedom as
           vibrations may cause significant error
 Vibrational temperatures:     74.47   186.67   203.24   306.25   314.87
          (Kelvin)            399.12   463.29   512.26   568.19   646.86
                              722.18   769.67   888.77   908.94   919.26
                             1032.85  1148.03  1245.74  1299.79  1366.89
                             1375.54  1434.46  1476.56  1597.22  1607.64
                             1665.08  1683.73  1731.36  1776.39  1798.76
                             1817.60  1915.78  1949.34  2001.57  2018.18
                             2053.71  2152.35  2157.15  2162.74  2179.36
                             3209.44  4288.76  4359.47  4372.41  4375.52
                             4434.52  4463.79  4475.76  4496.27  5037.25
                             5500.20

 Zero-point correction=                           0.157621 (Hartree/Particle)
 Thermal correction to Energy=                    0.166989
 Thermal correction to Enthalpy=                  0.167933
 Thermal correction to Gibbs Free Energy=         0.123522
 Sum of electronic and zero-point Energies=           -422.991202
 Sum of electronic and thermal Energies=              -422.981834
 Sum of electronic and thermal Enthalpies=            -422.980890
 Sum of electronic and thermal Free Energies=         -423.025301

                     E (Thermal)             CV                S
                      KCal/Mol        Cal/Mol-Kelvin    Cal/Mol-Kelvin
 Total                  104.787             35.168             93.471
 Electronic               0.000              0.000              0.000
 Translational            0.889              2.981             40.409
 Rotational               0.889              2.981             28.688
 Vibrational            103.009             29.207             24.374
 Vibration     1          0.596              1.977              4.749
 Vibration     2          0.612              1.924              2.950
 Vibration     3          0.615              1.912              2.787
 Vibration     4          0.644              1.821              2.019
 Vibration     5          0.647              1.812              1.969
 Vibration     6          0.678              1.715              1.550
 Vibration     7          0.707              1.631              1.300
 Vibration     8          0.732              1.563              1.139
 Vibration     9          0.762              1.481              0.982
 Vibration    10          0.808              1.362              0.797
 Vibration    11          0.857              1.246              0.653
 Vibration    12          0.890              1.173              0.576
 Vibration    13          0.977              0.994              0.420

 Normal termination of Gaussian 09 at Tue Jan 28 09:17:32 2020.
