 Gaussian 09, Revision D.01,
 Gaussian 09:  ES64L-G09RevD.01 24-Apr-2013

 -----------------------------
 # b3lyp 6-31G(2df,p) opt Freq
 -----------------------------

 -----
 titel
 -----
 Symbolic Z-matrix:
 Charge =  0 Multiplicity = 1

 SCF Done:  E(RB3LYP) =  -423.172155588     A.U. after   14 cycles
 Optimization completed.
    -- Stationary point found.
 Normal termination of Gaussian 09 at Mon Jan 27 18:53:56 2020.

 ----------------------------------------------------------------------
 #N Geom=AllCheck Guess=TCheck SCRF=Check GenChk RB3LYP/6-31G(2df,p) Fr
 eq
 ----------------------------------------------------------------------

 Structure from the checkpoint file:  "/scratch/puck/g09_aded1ddb-7270-4df0-97b9-81713dde09ee/Gau-90554.chk"
 -----
 titel
 -----
 Charge =  0 Multiplicity = 1

                         Standard orientation:
 ---------------------------------------------------------------------
 Center     Atomic      Atomic             Coordinates (Angstroms)
 Number     Number       Type             X           Y           Z
 ---------------------------------------------------------------------
      1          6           0        2.216284   -0.656348   -0.214837
      2          6           0        0.839806   -0.088866    0.025435
      3          6           0        0.060758   -0.567707    1.290920
      4          6           0       -1.323797   -0.599304    0.619578
      5          8           0       -1.054058   -1.503974   -0.498505
      6          6           0       -0.293511   -0.389699   -1.019304
      7          6           0       -1.272776    0.610191   -0.375261
      8          6           0       -0.447881    1.822315    0.033597
      9          8           0        0.907188    1.342870    0.046262
     10          1           0        2.649076   -0.236515   -1.127936
     11          1           0        2.887281   -0.424126    0.617750
     12          1           0        2.158220   -1.743656   -0.319546
     13          1           0        0.338551   -1.569172    1.626294
     14          1           0        0.170968    0.140351    2.115887
     15          1           0       -2.206882   -0.862027    1.201651
     16          1           0       -0.040635   -0.448038   -2.077296
     17          1           0       -2.205198    0.789627   -0.906940
     18          1           0       -0.521542    2.639673   -0.692487
     19          1           0       -0.728188    2.219220    1.019795
 ---------------------------------------------------------------------

 SCF Done:  E(RB3LYP) =  -423.172155588     A.U. after    1 cycles

 The electronic state is 1-A.
 Alpha  occ. eigenvalues --  -19.13534 -19.13513 -10.24110 -10.23622 -10.23270
 Alpha  occ. eigenvalues --  -10.22927 -10.19625 -10.18014 -10.17552  -1.06104
 Alpha  occ. eigenvalues --   -1.02327  -0.79025  -0.77193  -0.71934  -0.67429
 Alpha  occ. eigenvalues --   -0.63845  -0.55087  -0.54571  -0.52372  -0.48401
 Alpha  occ. eigenvalues --   -0.47061  -0.44045  -0.42534  -0.40870  -0.40660
 Alpha  occ. eigenvalues --   -0.38412  -0.37582  -0.36050  -0.34168  -0.32794
 Alpha  occ. eigenvalues --   -0.31423  -0.31140  -0.26092  -0.23017
 Alpha virt. eigenvalues --    0.08713   0.09701   0.10670   0.11084   0.13603
 Alpha virt. eigenvalues --    0.13893   0.15028   0.15382   0.16011   0.17294
 Alpha virt. eigenvalues --    0.17495   0.17948   0.18427   0.18812   0.20818

 Mulliken charges:
               1
     1  C   -0.488325
     2  C    0.411227
     3  C   -0.270185
     4  C    0.056066
     5  O   -0.302339
     6  C    0.041267
     7  C   -0.067340
     8  C   -0.119591
     9  O   -0.308611
    10  H    0.123327
    11  H    0.125690
    12  H    0.127167
    13  H    0.108609
    14  H    0.106446
    15  H    0.080538
    16  H    0.081721
    17  H    0.087549
    18  H    0.108915
    19  H    0.097867
 Sum of Mulliken charges =   0.00000

 Dipole moment (field-independent basis, Debye):
    X=             -0.6629    Y=              0.7133    Z=              0.4056  Tot=              1.0549
 Quadrupole moment (field-independent basis, Debye-Ang):
   XX=            -52.7811   YY=            -56.4987   ZZ=            -50.6956
   XY=             -5.1667   XZ=             -1.4922   YZ=             -1.8020

  Exact polarizability:  76.475  -3.679  73.111  -1.522  -1.683  69.783
 Approx polarizability: 106.706  -0.374 109.737  -2.342   0.164 106.054

                      1                      2                      3
                      A                      A                      A
 Frequencies --    223.0867               232.4893               251.8245
 Red. masses --      1.4963                 1.6317                 2.4379
 Frc consts  --      0.0439                 0.0520                 0.0911
 IR Inten    --      0.7612                 2.7514                 2.3681

                      4                      5                      6
                      A                      A                      A
 Frequencies --    311.2091               396.5564               465.3207
 Red. masses --      2.2452                 2.7432                 2.3270
 Frc consts  --      0.1281                 0.2542                 0.2969
 IR Inten    --      0.1981                 2.8691                 2.4672

                      7                      8                      9
                      A                      A                      A
 Frequencies --    516.1152               586.1533               619.0698
 Red. masses --      4.3317                 5.9357                 3.9536
 Frc consts  --      0.6798                 1.2015                 0.8927
 IR Inten    --      8.1231                 0.0285                 2.8426

                     10                     11                     12
                      A                      A                      A
 Frequencies --    728.0074               756.4102               796.5899
 Red. masses --      4.1321                 3.5663                 2.7707
 Frc consts  --      1.2903                 1.2022                 1.0359
 IR Inten    --      3.4126                 0.5505                 0.7897

                     13                     14                     15
                      A                      A                      A
 Frequencies --    824.7819               869.5117               905.9182
 Red. masses --      2.9096                 3.0218                 2.2255
 Frc consts  --      1.1662                 1.3461                 1.0761
 IR Inten    --     11.0229                12.1250                 3.0706

                     16                     17                     18
                      A                      A                      A
 Frequencies --    908.8878               932.5620               957.0554
 Red. masses --      2.2424                 2.5012                 2.7300
 Frc consts  --      1.0914                 1.2816                 1.4733
 IR Inten    --     33.6220                12.3575                16.1578

                     19                     20                     21
                      A                      A                      A
 Frequencies --    984.1226               990.5032              1025.0131
 Red. masses --      1.8699                 1.9140                 1.6653
 Frc consts  --      1.0670                 1.1064                 1.0309
 IR Inten    --      6.8596                19.3923                 4.2487

                     22                     23                     24
                      A                      A                      A
 Frequencies --   1043.1626              1067.4263              1084.6395
 Red. masses --      1.7878                 3.1494                 1.6490
 Frc consts  --      1.1463                 2.1142                 1.1430
 IR Inten    --     15.3871                58.8082                 2.6040

                     25                     26                     27
                      A                      A                      A
 Frequencies --   1139.1215              1173.6288              1184.5990
 Red. masses --      1.9854                 2.3516                 1.5089
 Frc consts  --      1.5179                 1.9084                 1.2475
 IR Inten    --     15.7001                 2.3331                10.2840

                     28                     29                     30
                      A                      A                      A
 Frequencies --   1206.4837              1219.2013              1231.7347
 Red. masses --      1.5203                 1.4415                 1.4260
 Frc consts  --      1.3038                 1.2625                 1.2747
 IR Inten    --     13.9126                 9.2048                 1.4521

                     31                     32                     33
                      A                      A                      A
 Frequencies --   1249.9380              1287.1923              1297.5175
 Red. masses --      1.5890                 1.9738                 1.5541
 Frc consts  --      1.4627                 1.9268                 1.5415
 IR Inten    --      2.9219                 9.2561                 6.8040

                     34                     35                     36
                      A                      A                      A
 Frequencies --   1337.4469              1350.4411              1381.9006
 Red. masses --      1.8136                 2.2581                 1.4183
 Frc consts  --      1.9114                 2.4263                 1.5958
 IR Inten    --      3.1467                13.2190                 1.8000

                     37                     38                     39
                      A                      A                      A
 Frequencies --   1415.0301              1474.0493              1484.2750
 Red. masses --      1.4505                 1.1056                 1.0500
 Frc consts  --      1.7111                 1.4154                 1.3629
 IR Inten    --     10.2072                 3.7626                 2.7489

                     40                     41                     42
                      A                      A                      A
 Frequencies --   1497.2111              1523.3934              3000.6837
 Red. masses --      1.0516                 1.0921                 1.0664
 Frc consts  --      1.3888                 1.4932                 5.6573
 IR Inten    --      2.0058                 1.0543                64.0960

                     43                     44                     45
                      A                      A                      A
 Frequencies --   3040.4433              3055.8705              3069.1603
 Red. masses --      1.0349                 1.0981                 1.0584
 Frc consts  --      5.6369                 6.0415                 5.8740
 IR Inten    --     18.5734                37.0819                19.2048

                     46                     47                     48
                      A                      A                      A
 Frequencies --   3110.9161              3118.5169              3122.3710
 Red. masses --      1.1016                 1.1023                 1.0906
 Frc consts  --      6.2815                 6.3158                 6.2646
 IR Inten    --     14.3476                 6.9258                46.1548

                     49                     50                     51
                      A                      A                      A
 Frequencies --   3125.3605              3129.5620              3144.9032
 Red. masses --      1.1069                 1.0903                 1.0916
 Frc consts  --      6.3706                 6.2916                 6.3611
 IR Inten    --     21.7323                29.6141                24.3827

 - Thermochemistry -
 -------------------
 Temperature   298.150 Kelvin.  Pressure   1.00000 Atm.
 Atom     1 has atomic number  6 and mass  12.00000

 Molecular mass:   126.06808 amu.
 Principal axes and moments of inertia in atomic units:
                           1         2         3
     Eigenvalues --   720.98756 842.991121132.83592
           X            0.96274  -0.27000  -0.01490
           Y            0.26963   0.96269  -0.02297
           Z            0.02054   0.01810   0.99963
 This molecule is an asymmetric top.
 Rotational symmetry number  1.
 Warning -- assumption of classical behavior for rotation
           may cause significant error
 Rotational temperatures (Kelvin)      0.12013     0.10275     0.07646
 Rotational constants (GHZ):           2.50315     2.14088     1.59312
 Zero-point vibrational energy     423761.4 (Joules/Mol)
                                  101.28140 (Kcal/Mol)
 Warning -- explicit consideration of   9 degrees of freedom as
           vibrations may cause significant error
 Vibrational temperatures:    320.97   334.50   362.32   447.76   570.56
          (Kelvin)            669.49   742.57   843.34   890.70  1047.44
                             1088.30  1146.11  1186.68  1251.03  1303.41
                             1307.69  1341.75  1376.99  1415.93  1425.11
                             1474.76  1500.88  1535.79  1560.55  1638.94
                             1688.59  1704.37  1735.86  1754.16  1772.19
                             1798.38  1851.98  1866.84  1924.29  1942.98
                             1988.24  2035.91  2120.83  2135.54  2154.15
                             2191.82  4317.31  4374.51  4396.71  4415.83
                             4475.91  4486.84  4492.39  4496.69  4502.74
                             4524.81

 Zero-point correction=                           0.161402 (Hartree/Particle)
 Thermal correction to Energy=                    0.168249
 Thermal correction to Enthalpy=                  0.169193
 Thermal correction to Gibbs Free Energy=         0.130664
 Sum of electronic and zero-point Energies=           -423.010753
 Sum of electronic and thermal Energies=              -423.003906
 Sum of electronic and thermal Enthalpies=            -423.002962
 Sum of electronic and thermal Free Energies=         -423.041492

                     E (Thermal)             CV                S
                      KCal/Mol        Cal/Mol-Kelvin    Cal/Mol-Kelvin
 Total                  105.578             28.805             81.093
 Electronic               0.000              0.000              0.000
 Translational            0.889              2.981             40.409
 Rotational               0.889              2.981             28.023
 Vibrational            103.800             22.843             12.661
 Vibration     1          0.649              1.806              1.934
 Vibration     2          0.653              1.791              1.860
 Vibration     3          0.664              1.760              1.718
 Vibration     4          0.700              1.652              1.356
 Vibration     5          0.763              1.478              0.975
 Vibration     6          0.823              1.327              0.751
 Vibration     7          0.871              1.214              0.619
 Vibration     8          0.943              1.061              0.474
 Vibration     9          0.979              0.992              0.418

 Normal termination of Gaussian 09 at Mon Jan 27 19:44:03 2020.
