 Gaussian 09, Revision D.01,
 Gaussian 09:  ES64L-G09RevD.01 24-Apr-2013

 -----------------------------
 # b3lyp 6-31G(2df,p) opt Freq
 -----------------------------

 -----
 titel
 -----
 Symbolic Z-matrix:
 Charge =  0 Multiplicity = 1

 SCF Done:  E(RB3LYP) =  -423.143548182     A.U. after   14 cycles
 Optimization completed.
    -- Stationary point found.
 Normal termination of Gaussian 09 at Mon Jan 27 23:50:09 2020.

 ----------------------------------------------------------------------
 #N Geom=AllCheck Guess=TCheck SCRF=Check GenChk RB3LYP/6-31G(2df,p) Fr
 eq
 ----------------------------------------------------------------------

 Structure from the checkpoint file:  "/scratch/puck/g09_d7791cda-1484-4d28-b5cf-6da755102365/Gau-186258.chk"
 -----
 titel
 -----
 Charge =  0 Multiplicity = 1

                         Standard orientation:
 ---------------------------------------------------------------------
 Center     Atomic      Atomic             Coordinates (Angstroms)
 Number     Number       Type             X           Y           Z
 ---------------------------------------------------------------------
      1          6           0       -0.915477    1.989829   -0.326930
      2          6           0       -0.266305    0.638585   -0.209286
      3          6           0        1.260148    0.448973   -0.586270
      4          6           0        1.346000   -1.083591   -0.739184
      5          6           0        0.213914   -1.335171    0.273718
      6          6           0       -0.989867   -0.695438   -0.467289
      7          8           0       -2.198396   -0.675693    0.269418
      8          6           0        0.355473    0.044531    1.083340
      9          8           0        1.641613    0.612310    0.812425
     10          1           0       -0.293874    2.757759    0.144764
     11          1           0       -1.061699    2.271532   -1.376385
     12          1           0       -1.894553    1.986199    0.160313
     13          1           0        1.796272    1.107139   -1.269670
     14          1           0        1.112638   -1.458013   -1.740358
     15          1           0        2.327542   -1.446426   -0.428741
     16          1           0        0.134058   -2.307140    0.758995
     17          1           0       -1.159002   -1.016943   -1.505666
     18          1           0       -2.525220   -1.578750    0.329532
     19          1           0       -0.005223    0.145395    2.103881
 ---------------------------------------------------------------------

 SCF Done:  E(RB3LYP) =  -423.143548182     A.U. after    1 cycles

 The electronic state is 1-A.
 Alpha  occ. eigenvalues --  -19.14215 -19.13069 -10.23610 -10.23117 -10.22995
 Alpha  occ. eigenvalues --  -10.19262 -10.18839 -10.18362 -10.17253  -1.05229
 Alpha  occ. eigenvalues --   -1.02323  -0.84776  -0.74609  -0.71073  -0.64926
 Alpha  occ. eigenvalues --   -0.63180  -0.56654  -0.53146  -0.51350  -0.48784
 Alpha  occ. eigenvalues --   -0.46367  -0.44575  -0.43187  -0.40485  -0.38834
 Alpha  occ. eigenvalues --   -0.38409  -0.36824  -0.34906  -0.33887  -0.32724
 Alpha  occ. eigenvalues --   -0.29288  -0.28653  -0.26100  -0.23883
 Alpha virt. eigenvalues --    0.06944   0.09747   0.11087   0.11992   0.13113
 Alpha virt. eigenvalues --    0.13736   0.14743   0.15238   0.16566   0.17222
 Alpha virt. eigenvalues --    0.17795   0.18106   0.19098   0.20674   0.22228

 Mulliken charges:
               1
     1  C   -0.524003
     2  C    0.336300
     3  C    0.011578
     4  C   -0.223212
     5  C   -0.146439
     6  C    0.069244
     7  O   -0.450941
     8  C    0.070436
     9  O   -0.297307
    10  H    0.128293
    11  H    0.113479
    12  H    0.137597
    13  H    0.076844
    14  H    0.095204
    15  H    0.109668
    16  H    0.062437
    17  H    0.056938
    18  H    0.284559
    19  H    0.089325
 Sum of Mulliken charges =   0.00000

 Dipole moment (field-independent basis, Debye):
    X=             -0.8713    Y=             -1.6136    Z=             -1.2024  Tot=              2.1928
 Quadrupole moment (field-independent basis, Debye-Ang):
   XX=            -56.4729   YY=            -49.4887   ZZ=            -52.0593
   XY=              2.0071   XZ=             -2.6228   YZ=             -1.4682

  Exact polarizability:  76.283  -0.542  77.220  -2.841  -0.700  68.404
 Approx polarizability: 110.347   3.185 108.827  -2.498   0.086 108.107

                      1                      2                      3
                      A                      A                      A
 Frequencies --    190.4086               221.3964               228.4403
 Red. masses --      3.5379                 2.8442                 1.0640
 Frc consts  --      0.0756                 0.0821                 0.0327
 IR Inten    --      0.3749                 4.9714                 0.2556

                      4                      5                      6
                      A                      A                      A
 Frequencies --    267.4897               296.4412               357.1478
 Red. masses --      2.2736                 1.3363                 3.0513
 Frc consts  --      0.0958                 0.0692                 0.2293
 IR Inten    --     10.9686                76.3697                15.6121

                      7                      8                      9
                      A                      A                      A
 Frequencies --    435.0559               509.5771               532.0529
 Red. masses --      1.9705                 5.5806                 3.9086
 Frc consts  --      0.2197                 0.8538                 0.6519
 IR Inten    --      1.6132                 5.4331                 4.5145

                     10                     11                     12
                      A                      A                      A
 Frequencies --    637.7482               701.1880               773.2201
 Red. masses --      3.9497                 4.0111                 3.5020
 Frc consts  --      0.9465                 1.1619                 1.2336
 IR Inten    --      2.6376                 5.7631                 3.7399

                     13                     14                     15
                      A                      A                      A
 Frequencies --    821.5699               851.8972               865.7781
 Red. masses --      2.6252                 3.6739                 2.1081
 Frc consts  --      1.0440                 1.5709                 0.9310
 IR Inten    --      2.0921                17.1355                12.1067

                     16                     17                     18
                      A                      A                      A
 Frequencies --    893.9995               919.7372               929.4740
 Red. masses --      2.2785                 2.1103                 2.6972
 Frc consts  --      1.0730                 1.0518                 1.3729
 IR Inten    --     17.5045                 6.0844                12.1184

                     19                     20                     21
                      A                      A                      A
 Frequencies --    960.2715               980.4139              1010.9005
 Red. masses --      1.9906                 2.8860                 2.0249
 Frc consts  --      1.0815                 1.6344                 1.2192
 IR Inten    --      2.2269                24.8397                 9.9071

                     22                     23                     24
                      A                      A                      A
 Frequencies --   1025.3023              1071.1128              1086.2267
 Red. masses --      1.8648                 1.7906                 1.7121
 Frc consts  --      1.1550                 1.2104                 1.1902
 IR Inten    --      3.8175                23.9771                 0.2703

                     25                     26                     27
                      A                      A                      A
 Frequencies --   1124.8853              1143.3082              1162.9605
 Red. masses --      1.8895                 1.7180                 1.9282
 Frc consts  --      1.4087                 1.3231                 1.5365
 IR Inten    --     73.1692                 1.8655                 8.1706

                     28                     29                     30
                      A                      A                      A
 Frequencies --   1198.0878              1208.5201              1224.3897
 Red. masses --      1.7644                 1.6397                 1.2822
 Frc consts  --      1.4922                 1.4110                 1.1325
 IR Inten    --      6.8260                10.0667                 2.7748

                     31                     32                     33
                      A                      A                      A
 Frequencies --   1235.4176              1238.7386              1292.8265
 Red. masses --      1.7729                 1.9164                 1.5536
 Frc consts  --      1.5943                 1.7326                 1.5299
 IR Inten    --     21.2153                 3.9634                19.3254

                     34                     35                     36
                      A                      A                      A
 Frequencies --   1297.1159              1329.4886              1357.0635
 Red. masses --      1.6972                 1.5068                 1.7738
 Frc consts  --      1.6824                 1.5692                 1.9247
 IR Inten    --      8.2859                11.7685                14.4275

                     37                     38                     39
                      A                      A                      A
 Frequencies --   1407.8358              1429.2831              1487.7594
 Red. masses --      1.3646                 1.7716                 1.1039
 Frc consts  --      1.5936                 2.1323                 1.4396
 IR Inten    --      3.3191                 1.9524                 3.8909

                     40                     41                     42
                      A                      A                      A
 Frequencies --   1490.1655              1497.4085              2988.4580
 Red. masses --      1.0501                 1.0527                 1.0846
 Frc consts  --      1.3739                 1.3907                 5.7070
 IR Inten    --      2.8843                 5.6765                66.6422

                     43                     44                     45
                      A                      A                      A
 Frequencies --   3029.6270              3060.7535              3092.3755
 Red. masses --      1.0371                 1.0602                 1.0984
 Frc consts  --      5.6086                 5.8518                 6.1887
 IR Inten    --     29.7034                31.2032                18.2314

                     46                     47                     48
                      A                      A                      A
 Frequencies --   3115.3684              3119.6887              3124.5071
 Red. masses --      1.1008                 1.1015                 1.0913
 Frc consts  --      6.2949                 6.3160                 6.2770
 IR Inten    --      8.4833                22.5050                58.9430

                     49                     50                     51
                      A                      A                      A
 Frequencies --   3125.8500              3155.4269              3819.0711
 Red. masses --      1.0937                 1.0927                 1.0663
 Frc consts  --      6.2965                 6.4104                 9.1632
 IR Inten    --     17.4634                25.8906                24.5780

 - Thermochemistry -
 -------------------
 Temperature   298.150 Kelvin.  Pressure   1.00000 Atm.
 Atom     1 has atomic number  6 and mass  12.00000

 Molecular mass:   126.06808 amu.
 Principal axes and moments of inertia in atomic units:
                           1         2         3
     Eigenvalues --   700.86156 945.929461247.32359
           X            0.99701  -0.07479  -0.01949
           Y            0.07457   0.99715  -0.01170
           Z            0.02031   0.01021   0.99974
 This molecule is an asymmetric top.
 Rotational symmetry number  1.
 Warning -- assumption of classical behavior for rotation
           may cause significant error
 Rotational temperatures (Kelvin)      0.12358     0.09156     0.06944
 Rotational constants (GHZ):           2.57503     1.90790     1.44689
 Zero-point vibrational energy     420626.3 (Joules/Mol)
                                  100.53210 (Kcal/Mol)
 Warning -- explicit consideration of   9 degrees of freedom as
           vibrations may cause significant error
 Vibrational temperatures:    273.96   318.54   328.67   384.86   426.51
          (Kelvin)            513.86   625.95   733.17   765.50   917.58
                             1008.85  1112.49  1182.05  1225.69  1245.66
                             1286.26  1323.29  1337.30  1381.61  1410.60
                             1454.46  1475.18  1541.09  1562.84  1618.46
                             1644.96  1673.24  1723.78  1738.79  1761.62
                             1777.49  1782.27  1860.09  1866.26  1912.84
                             1952.51  2025.56  2056.42  2140.55  2144.01
                             2154.43  4299.72  4358.95  4403.74  4449.23
                             4482.31  4488.53  4495.46  4497.40  4539.95
                             5494.78

 Zero-point correction=                           0.160208 (Hartree/Particle)
 Thermal correction to Energy=                    0.167706
 Thermal correction to Enthalpy=                  0.168650
 Thermal correction to Gibbs Free Energy=         0.128835
 Sum of electronic and zero-point Energies=           -422.983340
 Sum of electronic and thermal Energies=              -422.975843
 Sum of electronic and thermal Enthalpies=            -422.974898
 Sum of electronic and thermal Free Energies=         -423.014714

                     E (Thermal)             CV                S
                      KCal/Mol        Cal/Mol-Kelvin    Cal/Mol-Kelvin
 Total                  105.237             30.666             83.798
 Electronic               0.000              0.000              0.000
 Translational            0.889              2.981             40.409
 Rotational               0.889              2.981             28.205
 Vibrational            103.459             24.704             15.185
 Vibration     1          0.634              1.853              2.224
 Vibration     2          0.648              1.808              1.948
 Vibration     3          0.651              1.798              1.891
 Vibration     4          0.673              1.733              1.612
 Vibration     5          0.690              1.680              1.437
 Vibration     6          0.732              1.561              1.134
 Vibration     7          0.796              1.394              0.842
 Vibration     8          0.865              1.229              0.635
 Vibration     9          0.887              1.179              0.583

 Normal termination of Gaussian 09 at Tue Jan 28 00:37:31 2020.
