 Gaussian 09, Revision D.01,
 Gaussian 09:  ES64L-G09RevD.01 24-Apr-2013

 -----------------------------
 # b3lyp 6-31G(2df,p) opt Freq
 -----------------------------

 -----
 titel
 -----
 Symbolic Z-matrix:
 Charge =  0 Multiplicity = 1

 SCF Done:  E(RB3LYP) =  -423.224252012     A.U. after   14 cycles
 Optimization completed.
    -- Stationary point found.
 Normal termination of Gaussian 09 at Tue Jan 28 03:55:14 2020.

 ----------------------------------------------------------------------
 #N Geom=AllCheck Guess=TCheck SCRF=Check GenChk RB3LYP/6-31G(2df,p) Fr
 eq
 ----------------------------------------------------------------------

 Structure from the checkpoint file:  "/scratch/puck/g09_9a49a587-caa0-4240-a512-ec28901eeb28/Gau-43556.chk"
 -----
 titel
 -----
 Charge =  0 Multiplicity = 1

                         Standard orientation:
 ---------------------------------------------------------------------
 Center     Atomic      Atomic             Coordinates (Angstroms)
 Number     Number       Type             X           Y           Z
 ---------------------------------------------------------------------
      1          6           0        2.551597   -0.913530    0.108864
      2          6           0        1.284734   -0.188230   -0.330224
      3          6           0        1.131726    1.179911    0.345772
      4          6           0        0.037983    2.012247   -0.272676
      5          6           0       -1.234381    1.630644   -0.226330
      6          6           0       -1.678618    0.385113    0.500671
      7          6           0       -1.119789   -0.948499    0.006937
      8          8           0       -1.838509   -1.889441   -0.198349
      9          8           0        0.219298   -1.138857   -0.083281
     10          1           0        2.562469   -1.047373    1.195170
     11          1           0        2.601791   -1.899324   -0.358679
     12          1           0        3.437461   -0.341092   -0.181348
     13          1           0        1.310770   -0.032901   -1.416706
     14          1           0        0.956691    1.027730    1.420554
     15          1           0        2.094668    1.692315    0.259361
     16          1           0        0.318304    2.924382   -0.791096
     17          1           0       -2.008246    2.225637   -0.701363
     18          1           0       -1.397950    0.460513    1.562208
     19          1           0       -2.761782    0.270562    0.466852
 ---------------------------------------------------------------------

 SCF Done:  E(RB3LYP) =  -423.224252012     A.U. after    1 cycles

 The electronic state is 1-A.
 Alpha  occ. eigenvalues --  -19.16833 -19.11341 -10.30379 -10.25682 -10.20285
 Alpha  occ. eigenvalues --  -10.20160 -10.19696 -10.19387 -10.18532  -1.08496
 Alpha  occ. eigenvalues --   -1.00611  -0.82868  -0.79617  -0.72987  -0.68407
 Alpha  occ. eigenvalues --   -0.64240  -0.55636  -0.55148  -0.50792  -0.49161
 Alpha  occ. eigenvalues --   -0.47379  -0.44528  -0.42513  -0.41223  -0.41099
 Alpha  occ. eigenvalues --   -0.40080  -0.39332  -0.38154  -0.36225  -0.33866
 Alpha  occ. eigenvalues --   -0.32388  -0.29225  -0.27314  -0.24395
 Alpha virt. eigenvalues --   -0.00200   0.01749   0.07758   0.09525   0.10902
 Alpha virt. eigenvalues --    0.12020   0.13630   0.14507   0.16793   0.17045
 Alpha virt. eigenvalues --    0.18053   0.19031   0.20087   0.20825   0.22021

 Mulliken charges:
               1
     1  C   -0.390771
     2  C    0.148252
     3  C   -0.265425
     4  C   -0.071430
     5  C   -0.064198
     6  C   -0.375181
     7  C    0.392289
     8  O   -0.305976
     9  O   -0.248271
    10  H    0.125580
    11  H    0.137511
    12  H    0.116991
    13  H    0.096458
    14  H    0.115939
    15  H    0.110566
    16  H    0.097481
    17  H    0.105116
    18  H    0.138158
    19  H    0.136911
 Sum of Mulliken charges =   0.00000

 Dipole moment (field-independent basis, Debye):
    X=              2.2099    Y=              3.4965    Z=              0.5008  Tot=              4.1665
 Quadrupole moment (field-independent basis, Debye-Ang):
   XX=            -51.9060   YY=            -59.2264   ZZ=            -51.9150
   XY=             -5.1073   XZ=             -1.3493   YZ=             -1.6809

  Exact polarizability:  96.482   4.462  78.973  -0.148  -2.721  57.518
 Approx polarizability: 139.442  16.840 112.944   0.279  -2.807  90.084

                      1                      2                      3
                      A                      A                      A
 Frequencies --     57.2235                72.8446               188.4448
 Red. masses --      3.3071                 5.5304                 2.1942
 Frc consts  --      0.0064                 0.0173                 0.0459
 IR Inten    --      2.4724                 1.2184                 0.2737

                      4                      5                      6
                      A                      A                      A
 Frequencies --    234.3913               275.2982               305.6622
 Red. masses --      1.1474                 2.6779                 3.0960
 Frc consts  --      0.0371                 0.1196                 0.1704
 IR Inten    --      0.2733                 0.6292                 1.1679

                      7                      8                      9
                      A                      A                      A
 Frequencies --    350.6926               425.1930               470.5541
 Red. masses --      3.2537                 2.9389                 3.3767
 Frc consts  --      0.2358                 0.3131                 0.4405
 IR Inten    --      1.1170                 3.3198                 0.7117

                     10                     11                     12
                      A                      A                      A
 Frequencies --    502.5571               555.9848               599.5553
 Red. masses --      2.4349                 3.5040                 3.1631
 Frc consts  --      0.3623                 0.6382                 0.6699
 IR Inten    --      0.7417                10.9458                 4.8953

                     13                     14                     15
                      A                      A                      A
 Frequencies --    683.8206               727.9727               828.1600
 Red. masses --      2.1554                 2.1899                 3.2682
 Frc consts  --      0.5938                 0.6838                 1.3206
 IR Inten    --     13.0027                17.8104                26.0220

                     16                     17                     18
                      A                      A                      A
 Frequencies --    878.5854               909.7839               948.5157
 Red. masses --      2.2833                 1.6776                 3.4474
 Frc consts  --      1.0384                 0.8181                 1.8274
 IR Inten    --      3.6525                 4.5866                 7.0372

                     19                     20                     21
                      A                      A                      A
 Frequencies --    965.8370               989.5986              1010.9203
 Red. masses --      2.1440                 1.3244                 2.2660
 Frc consts  --      1.1784                 0.7642                 1.3644
 IR Inten    --      4.9934                 1.0886                17.7072

                     22                     23                     24
                      A                      A                      A
 Frequencies --   1047.8824              1073.0228              1119.8569
 Red. masses --      2.2059                 2.4041                 2.1139
 Frc consts  --      1.4271                 1.6309                 1.5619
 IR Inten    --     26.6054                16.6241                 5.7194

                     25                     26                     27
                      A                      A                      A
 Frequencies --   1153.2708              1179.3523              1218.5054
 Red. masses --      2.5581                 1.7638                 1.2709
 Frc consts  --      2.0047                 1.4454                 1.1118
 IR Inten    --     75.4702               122.7073                 6.8033

                     28                     29                     30
                      A                      A                      A
 Frequencies --   1244.1161              1267.9976              1318.3623
 Red. masses --      1.1677                 1.7187                 1.2796
 Frc consts  --      1.0649                 1.6281                 1.3103
 IR Inten    --     20.8826               160.8068                 0.7162

                     31                     32                     33
                      A                      A                      A
 Frequencies --   1329.4425              1382.7781              1395.9342
 Red. masses --      1.4088                 1.4736                 1.3095
 Frc consts  --      1.4670                 1.6602                 1.5034
 IR Inten    --      0.9472                 1.3678                19.5499

                     34                     35                     36
                      A                      A                      A
 Frequencies --   1406.6598              1410.0619              1461.0757
 Red. masses --      1.5020                 1.2853                 1.0982
 Frc consts  --      1.7511                 1.5057                 1.3812
 IR Inten    --      8.2193                 8.2752                 3.7497

                     37                     38                     39
                      A                      A                      A
 Frequencies --   1476.1452              1486.2578              1498.6022
 Red. masses --      1.0841                 1.0590                 1.0507
 Frc consts  --      1.3918                 1.3783                 1.3903
 IR Inten    --      5.1390                 7.3117                 2.1898

                     40                     41                     42
                      A                      A                      A
 Frequencies --   1727.9285              1825.4068              3001.5407
 Red. masses --      6.7920                11.7833                 1.0702
 Frc consts  --     11.9481                23.1332                 5.6807
 IR Inten    --      5.3173               336.1325                11.4483

                     43                     44                     45
                      A                      A                      A
 Frequencies --   3007.8258              3024.3456              3044.6557
 Red. masses --      1.0708                 1.0813                 1.0358
 Frc consts  --      5.7078                 5.8270                 5.6575
 IR Inten    --      4.7071                31.9919                15.7367

                     46                     47                     48
                      A                      A                      A
 Frequencies --   3082.6541              3117.4666              3132.4754
 Red. masses --      1.0935                 1.1017                 1.0902
 Frc consts  --      6.1224                 6.3081                 6.3025
 IR Inten    --     16.4668                27.2571                 5.4146

                     49                     50                     51
                      A                      A                      A
 Frequencies --   3132.7367              3163.4841              3186.8904
 Red. masses --      1.1018                 1.0843                 1.0984
 Frc consts  --      6.3708                 6.3936                 6.5729
 IR Inten    --     14.4641                 3.9446                22.9074

 - Thermochemistry -
 -------------------
 Temperature   298.150 Kelvin.  Pressure   1.00000 Atm.
 Atom     1 has atomic number  6 and mass  12.00000

 Molecular mass:   126.06808 amu.
 Principal axes and moments of inertia in atomic units:
                           1         2         3
     Eigenvalues --   846.140731071.570121791.69166
           X            0.98988  -0.14190  -0.00232
           Y            0.14188   0.98986  -0.00738
           Z            0.00334   0.00697   0.99997
 This molecule is an asymmetric top.
 Rotational symmetry number  1.
 Warning -- assumption of classical behavior for rotation
           may cause significant error
 Rotational temperatures (Kelvin)      0.10236     0.08083     0.04834
 Rotational constants (GHZ):           2.13291     1.68420     1.00728
 Zero-point vibrational energy     418084.9 (Joules/Mol)
                                   99.92468 (Kcal/Mol)
 Warning -- explicit consideration of  12 degrees of freedom as
           vibrations may cause significant error
 Vibrational temperatures:     82.33   104.81   271.13   337.24   396.09
          (Kelvin)            439.78   504.57   611.76   677.02   723.07
                              799.94   862.63   983.86  1047.39  1191.54
                             1264.09  1308.97  1364.70  1389.62  1423.81
                             1454.49  1507.67  1543.84  1611.22  1659.30
                             1696.82  1753.16  1790.00  1824.36  1896.83
                             1912.77  1989.51  2008.44  2023.87  2028.76
                             2102.16  2123.84  2138.39  2156.15  2486.10
                             2626.35  4318.54  4327.58  4351.35  4380.57
                             4435.25  4485.33  4506.93  4507.30  4551.54
                             4585.22

 Zero-point correction=                           0.159240 (Hartree/Particle)
 Thermal correction to Energy=                    0.167895
 Thermal correction to Enthalpy=                  0.168839
 Thermal correction to Gibbs Free Energy=         0.125402
 Sum of electronic and zero-point Energies=           -423.065012
 Sum of electronic and thermal Energies=              -423.056357
 Sum of electronic and thermal Enthalpies=            -423.055413
 Sum of electronic and thermal Free Energies=         -423.098850

                     E (Thermal)             CV                S
                      KCal/Mol        Cal/Mol-Kelvin    Cal/Mol-Kelvin
 Total                  105.355             32.468             91.420
 Electronic               0.000              0.000              0.000
 Translational            0.889              2.981             40.409
 Rotational               0.889              2.981             28.876
 Vibrational            103.578             26.506             22.135
 Vibration     1          0.596              1.975              4.551
 Vibration     2          0.599              1.967              4.075
 Vibration     3          0.633              1.856              2.243
 Vibration     4          0.654              1.788              1.845
 Vibration     5          0.677              1.719              1.563
 Vibration     6          0.696              1.663              1.386
 Vibration     7          0.728              1.574              1.163
 Vibration     8          0.787              1.415              0.875
 Vibration     9          0.828              1.315              0.736
 Vibration    10          0.858              1.244              0.652
 Vibration    11          0.911              1.127              0.532
 Vibration    12          0.958              1.033              0.450

 Optimization completed.
    -- Stationary point found.
 Normal termination of Gaussian 09 at Tue Jan 28 04:39:53 2020.
