 Gaussian 09, Revision D.01,
 Gaussian 09:  ES64L-G09RevD.01 24-Apr-2013

 -----------------------------
 # b3lyp 6-31G(2df,p) opt Freq
 -----------------------------

 -----
 titel
 -----
 Symbolic Z-matrix:
 Charge =  0 Multiplicity = 1

 SCF Done:  E(RB3LYP) =  -423.124219175     A.U. after   14 cycles
 Optimization completed.
    -- Stationary point found.
 Normal termination of Gaussian 09 at Tue Jan 28 09:02:29 2020.

 ----------------------------------------------------------------------
 #N Geom=AllCheck Guess=TCheck SCRF=Check GenChk RB3LYP/6-31G(2df,p) Fr
 eq
 ----------------------------------------------------------------------

 Structure from the checkpoint file:  "/scratch/puck/g09_ebbd2a2e-6649-4703-ab27-350a7099514c/Gau-94244.chk"
 -----
 titel
 -----
 Charge =  0 Multiplicity = 1

                         Standard orientation:
 ---------------------------------------------------------------------
 Center     Atomic      Atomic             Coordinates (Angstroms)
 Number     Number       Type             X           Y           Z
 ---------------------------------------------------------------------
      1          6           0       -0.693821    2.122156   -0.117891
      2          8           0       -0.937806    1.024273    0.758608
      3          6           0       -0.336406   -0.177331    0.333756
      4          6           0       -1.019436   -1.407369    0.910005
      5          6           0       -1.257848   -1.039647   -0.529427
      6          8           0       -2.474087   -0.499252   -0.933166
      7          6           0        1.084887   -0.165709    0.127847
      8          6           0        2.275612   -0.164275   -0.062940
      9          6           0        3.714235   -0.169828   -0.282763
     10          1           0       -1.222265    2.978323    0.306958
     11          1           0        0.376982    2.348145   -0.177639
     12          1           0       -1.073239    1.919211   -1.127377
     13          1           0       -0.396788   -2.262423    1.145306
     14          1           0       -1.821592   -1.204633    1.612294
     15          1           0       -0.817363   -1.649944   -1.309450
     16          1           0       -2.676827    0.207605   -0.305813
     17          1           0        4.232918    0.432485    0.471291
     18          1           0        4.114728   -1.187876   -0.222067
     19          1           0        3.975255    0.230967   -1.268570
 ---------------------------------------------------------------------

 SCF Done:  E(RB3LYP) =  -423.124219175     A.U. after    1 cycles

 The electronic state is 1-A.
 Alpha  occ. eigenvalues --  -19.15740 -19.14175 -10.25556 -10.23897 -10.22529
 Alpha  occ. eigenvalues --  -10.20760 -10.18718 -10.18075 -10.17238  -1.05493
 Alpha  occ. eigenvalues --   -1.02049  -0.84747  -0.77751  -0.70918  -0.69244
 Alpha  occ. eigenvalues --   -0.61530  -0.60767  -0.54214  -0.51808  -0.46413
 Alpha  occ. eigenvalues --   -0.45889  -0.44401  -0.44093  -0.42975  -0.42906
 Alpha  occ. eigenvalues --   -0.40237  -0.38473  -0.37550  -0.35192  -0.31554
 Alpha  occ. eigenvalues --   -0.28803  -0.26665  -0.25000  -0.22034
 Alpha virt. eigenvalues --    0.03397   0.05097   0.09428   0.10626   0.11331
 Alpha virt. eigenvalues --    0.13328   0.13893   0.15277   0.15622   0.16824
 Alpha virt. eigenvalues --    0.17892   0.18261   0.18429   0.19860   0.20987

 Mulliken charges:
               1
     1  C   -0.262360
     2  O   -0.290874
     3  C    0.164114
     4  C   -0.385676
     5  C    0.089410
     6  O   -0.429776
     7  C    0.039867
     8  C    0.086763
     9  C   -0.503550
    10  H    0.127300
    11  H    0.128302
    12  H    0.124197
    13  H    0.126266
    14  H    0.125993
    15  H    0.116163
    16  H    0.290852
    17  H    0.152011
    18  H    0.152268
    19  H    0.148727
 Sum of Mulliken charges =   0.00000

 Dipole moment (field-independent basis, Debye):
    X=              1.8046    Y=              0.5327    Z=              0.0323  Tot=              1.8819
 Quadrupole moment (field-independent basis, Debye-Ang):
   XX=            -48.3755   YY=            -49.4794   ZZ=            -55.6352
   XY=             -2.9121   XZ=             -3.7593   YZ=             -1.7985

  Exact polarizability: 112.065   0.328  74.108  -4.013  -2.086  61.272
 Approx polarizability: 160.580   1.205 100.510  -7.157  -0.835  93.928

                      1                      2                      3
                      A                      A                      A
 Frequencies --     23.8569                86.4612                93.2400
 Red. masses --      1.0205                 3.6643                 3.2469
 Frc consts  --      0.0003                 0.0161                 0.0166
 IR Inten    --      0.0279                 1.5198                 0.8695

                      4                      5                      6
                      A                      A                      A
 Frequencies --    126.4361               185.1882               220.2706
 Red. masses --      3.3087                 1.3892                 2.2099
 Frc consts  --      0.0312                 0.0281                 0.0632
 IR Inten    --     10.1773                 2.9399                 8.7814

                      7                      8                      9
                      A                      A                      A
 Frequencies --    266.6961               275.5180               307.0996
 Red. masses --      3.4848                 3.3896                 3.6110
 Frc consts  --      0.1460                 0.1516                 0.2006
 IR Inten    --     11.2128                 7.2554                10.8970

                     10                     11                     12
                      A                      A                      A
 Frequencies --    391.5497               409.7127               439.8235
 Red. masses --      2.9323                 3.7829                 1.4011
 Frc consts  --      0.2649                 0.3741                 0.1597
 IR Inten    --      9.8367                 4.2525                87.6498

                     13                     14                     15
                      A                      A                      A
 Frequencies --    493.6700               550.5662               563.5107
 Red. masses --      2.4374                 5.6541                 4.8350
 Frc consts  --      0.3500                 1.0098                 0.9046
 IR Inten    --      2.0206                 3.2855                14.2084

                     16                     17                     18
                      A                      A                      A
 Frequencies --    695.2564               815.2053               861.3705
 Red. masses --      3.8713                 2.0425                 3.7253
 Frc consts  --      1.1025                 0.7997                 1.6285
 IR Inten    --     12.6848                 9.4467                16.0640

                     19                     20                     21
                      A                      A                      A
 Frequencies --    877.2066               992.7403              1015.4246
 Red. masses --      2.4042                 2.4338                 2.2686
 Frc consts  --      1.0900                 1.4132                 1.3782
 IR Inten    --     15.0258                17.8046                32.2401

                     22                     23                     24
                      A                      A                      A
 Frequencies --   1050.6530              1053.1025              1059.1649
 Red. masses --      1.4130                 1.4186                 1.5818
 Frc consts  --      0.9190                 0.9270                 1.0455
 IR Inten    --      1.2296                 4.1959                 5.3257

                     25                     26                     27
                      A                      A                      A
 Frequencies --   1086.8596              1098.1416              1145.1212
 Red. masses --      3.4864                 1.3563                 2.9820
 Frc consts  --      2.4265                 0.9636                 2.3039
 IR Inten    --     68.7936                27.9273                74.8236

                     28                     29                     30
                      A                      A                      A
 Frequencies --   1183.1635              1214.9848              1251.9603
 Red. masses --      1.2821                 1.5259                 2.7176
 Frc consts  --      1.0574                 1.3272                 2.5097
 IR Inten    --      1.7198                 2.2240               106.6870

                     31                     32                     33
                      A                      A                      A
 Frequencies --   1291.3166              1340.0813              1413.6029
 Red. masses --      2.3590                 2.0461                 1.2458
 Frc consts  --      2.3177                 2.1650                 1.4667
 IR Inten    --     11.1433                21.5588                15.9762

                     34                     35                     36
                      A                      A                      A
 Frequencies --   1429.2173              1468.3498              1473.9530
 Red. masses --      1.1757                 1.4780                 1.2057
 Frc consts  --      1.4149                 1.8775                 1.5434
 IR Inten    --     37.2928                40.4963                 9.6404

                     37                     38                     39
                      A                      A                      A
 Frequencies --   1475.0923              1479.3578              1486.9902
 Red. masses --      1.0401                 1.0403                 1.0554
 Frc consts  --      1.3335                 1.3414                 1.3749
 IR Inten    --      5.1552                 6.1307                 7.9779

                     40                     41                     42
                      A                      A                      A
 Frequencies --   1512.3053              2356.9639              3014.1473
 Red. masses --      1.0510                11.8753                 1.0328
 Frc consts  --      1.4162                38.8687                 5.5283
 IR Inten    --      9.1454                 3.4913                39.9924

                     43                     44                     45
                      A                      A                      A
 Frequencies --   3026.3797              3080.3866              3086.2948
 Red. masses --      1.0347                 1.1037                 1.1006
 Frc consts  --      5.5837                 6.1701                 6.1765
 IR Inten    --     33.7211                26.9345                10.4270

                     46                     47                     48
                      A                      A                      A
 Frequencies --   3089.1841              3127.5569              3134.6023
 Red. masses --      1.0997                 1.1019                 1.0541
 Frc consts  --      6.1835                 6.3504                 6.1022
 IR Inten    --      8.7172                23.1028                 4.0940

                     49                     50                     51
                      A                      A                      A
 Frequencies --   3183.8986              3232.1146              3762.4718
 Red. masses --      1.0911                 1.1174                 1.0646
 Frc consts  --      6.5169                 6.8774                 8.8792
 IR Inten    --      9.2999                 3.6891                35.1249

 - Thermochemistry -
 -------------------
 Temperature   298.150 Kelvin.  Pressure   1.00000 Atm.
 Atom     1 has atomic number  6 and mass  12.00000

 Molecular mass:   126.06808 amu.
 Principal axes and moments of inertia in atomic units:
                           1         2         3
     Eigenvalues --   679.576141805.291102142.12117
           X            0.99989  -0.01005  -0.01113
           Y            0.00958   0.99911  -0.04105
           Z            0.01153   0.04094   0.99909
 This molecule is an asymmetric top.
 Rotational symmetry number  1.
 Warning -- assumption of classical behavior for rotation
           may cause significant error
 Rotational temperatures (Kelvin)      0.12745     0.04798     0.04043
 Rotational constants (GHZ):           2.65569     0.99970     0.84250
 Zero-point vibrational energy     408514.1 (Joules/Mol)
                                   97.63721 (Kcal/Mol)
 Warning -- explicit consideration of  15 degrees of freedom as
           vibrations may cause significant error
 Vibrational temperatures:     34.32   124.40   134.15   181.91   266.44
          (Kelvin)            316.92   383.72   396.41   441.85   563.35
                              589.48   632.81   710.28   792.14   810.77
                             1000.32  1172.90  1239.32  1262.10  1428.33
                             1460.97  1511.65  1515.18  1523.90  1563.75
                             1579.98  1647.57  1702.31  1748.09  1801.29
                             1857.91  1928.08  2033.86  2056.32  2112.63
                             2120.69  2122.33  2128.46  2139.44  2175.87
                             3391.14  4336.68  4354.28  4431.98  4440.48
                             4444.64  4499.85  4509.99  4580.91  4650.29
                             5413.35

 Zero-point correction=                           0.155595 (Hartree/Particle)
 Thermal correction to Energy=                    0.166100
 Thermal correction to Enthalpy=                  0.167044
 Thermal correction to Gibbs Free Energy=         0.118896
 Sum of electronic and zero-point Energies=           -422.968624
 Sum of electronic and thermal Energies=              -422.958119
 Sum of electronic and thermal Enthalpies=            -422.957175
 Sum of electronic and thermal Free Energies=         -423.005323

                     E (Thermal)             CV                S
                      KCal/Mol        Cal/Mol-Kelvin    Cal/Mol-Kelvin
 Total                  104.230             37.026            101.338
 Electronic               0.000              0.000              0.000
 Translational            0.889              2.981             40.409
 Rotational               0.889              2.981             29.354
 Vibrational            102.452             31.065             31.575
 Vibration     1          0.593              1.985              6.284
 Vibration     2          0.601              1.959              3.739
 Vibration     3          0.602              1.954              3.591
 Vibration     4          0.611              1.927              3.000
 Vibration     5          0.631              1.860              2.275
 Vibration     6          0.647              1.810              1.957
 Vibration     7          0.672              1.734              1.618
 Vibration     8          0.677              1.719              1.561
 Vibration     9          0.697              1.660              1.378
 Vibration    10          0.759              1.488              0.994
 Vibration    11          0.774              1.449              0.928
 Vibration    12          0.800              1.383              0.827
 Vibration    13          0.849              1.264              0.674
 Vibration    14          0.906              1.138              0.543
 Vibration    15          0.919              1.110              0.517

 Optimization completed.
    -- Stationary point found.
 Normal termination of Gaussian 09 at Tue Jan 28 09:39:49 2020.
