 Gaussian 09, Revision D.01,
 Gaussian 09:  ES64L-G09RevD.01 24-Apr-2013

 -----------------------------
 # b3lyp 6-31G(2df,p) opt Freq
 -----------------------------

 -----
 titel
 -----
 Symbolic Z-matrix:
 Charge =  0 Multiplicity = 1

 SCF Done:  E(RB3LYP) =  -423.148368198     A.U. after   13 cycles
 Optimization completed.
    -- Stationary point found.
 Normal termination of Gaussian 09 at Mon Jan 27 22:01:00 2020.

 ----------------------------------------------------------------------
 #N Geom=AllCheck Guess=TCheck SCRF=Check GenChk RB3LYP/6-31G(2df,p) Fr
 eq
 ----------------------------------------------------------------------

 Structure from the checkpoint file:  "/scratch/puck/g09_3d7bbcb3-f465-45f9-8b57-07092efcf5c7/Gau-26422.chk"
 -----
 titel
 -----
 Charge =  0 Multiplicity = 1

                         Standard orientation:
 ---------------------------------------------------------------------
 Center     Atomic      Atomic             Coordinates (Angstroms)
 Number     Number       Type             X           Y           Z
 ---------------------------------------------------------------------
      1          6           0       -2.434132    0.418688    0.197682
      2          6           0       -0.978480    0.113269   -0.053722
      3          8           0       -0.303593    1.159177   -0.703486
      4          6           0        0.831814    1.633535    0.012255
      5          6           0        1.894807    0.538822    0.189514
      6          6           0        1.207142   -0.802317    0.442289
      7          8           0        0.745943   -1.401883   -0.808354
      8          6           0       -0.604056   -1.312642   -0.376000
      9          6           0       -0.233557   -0.715843    0.969865
     10          1           0       -2.923201    0.707212   -0.737683
     11          1           0       -2.956067   -0.452930    0.605363
     12          1           0       -2.543802    1.245015    0.908021
     13          1           0        1.215535    2.481994   -0.559292
     14          1           0        0.518374    2.006140    0.999577
     15          1           0        2.510750    0.434747   -0.709409
     16          1           0        2.560173    0.798199    1.021271
     17          1           0        1.844923   -1.514494    0.973396
     18          1           0       -1.292980   -2.094287   -0.676544
     19          1           0       -0.573731   -0.911024    1.978722
 ---------------------------------------------------------------------

 SCF Done:  E(RB3LYP) =  -423.148368198     A.U. after    1 cycles

 The electronic state is 1-A.
 Alpha  occ. eigenvalues --  -19.13815 -19.13466 -10.24123 -10.23874 -10.23388
 Alpha  occ. eigenvalues --  -10.22782 -10.19271 -10.18304 -10.18122  -1.06240
 Alpha  occ. eigenvalues --   -1.02092  -0.83318  -0.78008  -0.71302  -0.67878
 Alpha  occ. eigenvalues --   -0.62714  -0.56068  -0.52577  -0.51527  -0.50810
 Alpha  occ. eigenvalues --   -0.47341  -0.44130  -0.42533  -0.41263  -0.40338
 Alpha  occ. eigenvalues --   -0.39214  -0.38700  -0.37687  -0.34320  -0.32317
 Alpha  occ. eigenvalues --   -0.31085  -0.26475  -0.26045  -0.22288
 Alpha virt. eigenvalues --    0.07685   0.08998   0.10433   0.12026   0.13037
 Alpha virt. eigenvalues --    0.13774   0.14743   0.15537   0.15754   0.16159
 Alpha virt. eigenvalues --    0.17355   0.18570   0.19649   0.21082   0.21397

 Mulliken charges:
               1
     1  C   -0.467105
     2  C    0.410999
     3  O   -0.292506
     4  C   -0.077687
     5  C   -0.233952
     6  C    0.107844
     7  O   -0.300004
     8  C    0.042156
     9  C   -0.257244
    10  H    0.132863
    11  H    0.116340
    12  H    0.121818
    13  H    0.108980
    14  H    0.090158
    15  H    0.121768
    16  H    0.096339
    17  H    0.085341
    18  H    0.100530
    19  H    0.093363
 Sum of Mulliken charges =   0.00000

 Dipole moment (field-independent basis, Debye):
    X=             -0.1687    Y=              0.2374    Z=              2.2939  Tot=              2.3124
 Quadrupole moment (field-independent basis, Debye-Ang):
   XX=            -49.2684   YY=            -53.6342   ZZ=            -54.2902
   XY=              3.4204   XZ=              1.2329   YZ=             -0.6307

  Exact polarizability:  84.326   2.339  73.916   1.976   0.570  63.863
 Approx polarizability: 111.266   1.694 106.116   3.603   2.771 105.634

                      1                      2                      3
                      A                      A                      A
 Frequencies --    173.6515               214.4946               230.4261
 Red. masses --      2.6251                 1.1144                 1.9797
 Frc consts  --      0.0466                 0.0302                 0.0619
 IR Inten    --      1.2229                 0.5108                 1.9722

                      4                      5                      6
                      A                      A                      A
 Frequencies --    280.8666               337.1742               370.6818
 Red. masses --      3.3781                 2.8356                 3.4000
 Frc consts  --      0.1570                 0.1899                 0.2753
 IR Inten    --      0.1231                 1.6463                 3.6663

                      7                      8                      9
                      A                      A                      A
 Frequencies --    471.0297               511.8402               572.5216
 Red. masses --      3.5233                 4.5005                 3.8893
 Frc consts  --      0.4606                 0.6947                 0.7511
 IR Inten    --      3.6462                 2.2444                 9.0291

                     10                     11                     12
                      A                      A                      A
 Frequencies --    668.1567               693.7984               770.8030
 Red. masses --      2.8628                 3.3366                 2.3683
 Frc consts  --      0.7530                 0.9463                 0.8290
 IR Inten    --     10.7716                 4.5497                 5.5683

                     13                     14                     15
                      A                      A                      A
 Frequencies --    823.4004               842.7581               874.2166
 Red. masses --      1.6960                 2.4703                 3.0462
 Frc consts  --      0.6775                 1.0337                 1.3717
 IR Inten    --      4.0006                13.3714                 4.4325

                     16                     17                     18
                      A                      A                      A
 Frequencies --    908.6689               916.6279               953.0316
 Red. masses --      2.7238                 2.2386                 2.0822
 Frc consts  --      1.3251                 1.1082                 1.1142
 IR Inten    --      4.4398                 5.6686                 6.2289

                     19                     20                     21
                      A                      A                      A
 Frequencies --    968.2860              1028.1797              1039.6765
 Red. masses --      1.6916                 1.5476                 1.8343
 Frc consts  --      0.9345                 0.9639                 1.1682
 IR Inten    --      4.8133                25.1397                19.9905

                     22                     23                     24
                      A                      A                      A
 Frequencies --   1049.7520              1081.1371              1092.3420
 Red. masses --      2.5847                 2.4981                 2.0953
 Frc consts  --      1.6782                 1.7204                 1.4731
 IR Inten    --     20.2378                 5.7199                24.4302

                     25                     26                     27
                      A                      A                      A
 Frequencies --   1114.0431              1133.2341              1193.7336
 Red. masses --      4.3749                 2.5704                 2.1528
 Frc consts  --      3.1991                 1.9449                 1.8075
 IR Inten    --     68.9323                32.0113                10.9237

                     28                     29                     30
                      A                      A                      A
 Frequencies --   1226.6265              1240.0192              1241.4998
 Red. masses --      1.5863                 1.4759                 1.4933
 Frc consts  --      1.4062                 1.3371                 1.3561
 IR Inten    --     10.3311                14.8693                 6.0128

                     31                     32                     33
                      A                      A                      A
 Frequencies --   1288.0639              1305.7252              1341.3107
 Red. masses --      1.6843                 1.5910                 1.4245
 Frc consts  --      1.6464                 1.5982                 1.5100
 IR Inten    --     39.3316                 9.6581                12.3932

                     34                     35                     36
                      A                      A                      A
 Frequencies --   1371.2863              1406.5887              1411.6424
 Red. masses --      1.4735                 2.5332                 1.3239
 Frc consts  --      1.6325                 2.9529                 1.5544
 IR Inten    --      4.7181                16.6231                 4.8210

                     37                     38                     39
                      A                      A                      A
 Frequencies --   1414.4875              1467.4735              1480.7583
 Red. masses --      1.3694                 1.0897                 1.0470
 Frc consts  --      1.6143                 1.3827                 1.3525
 IR Inten    --      8.8747                 2.3619                 2.6268

                     40                     41                     42
                      A                      A                      A
 Frequencies --   1498.3471              1503.0665              2984.1916
 Red. masses --      1.0777                 1.1132                 1.0711
 Frc consts  --      1.4256                 1.4818                 5.6198
 IR Inten    --      1.3969                 0.7870                47.6178

                     43                     44                     45
                      A                      A                      A
 Frequencies --   3033.2750              3039.0222              3066.0293
 Red. masses --      1.0350                 1.0624                 1.0866
 Frc consts  --      5.6109                 5.7810                 6.0182
 IR Inten    --     25.5583                16.2856                58.2533

                     46                     47                     48
                      A                      A                      A
 Frequencies --   3087.3108              3100.4399              3101.8795
 Red. masses --      1.0988                 1.1010                 1.0966
 Frc consts  --      6.1709                 6.2357                 6.2166
 IR Inten    --     19.1722                21.8305                32.0767

                     49                     50                     51
                      A                      A                      A
 Frequencies --   3111.3354              3172.7292              3191.5193
 Red. masses --      1.1014                 1.0900                 1.0978
 Frc consts  --      6.2818                 6.4646                 6.5883
 IR Inten    --     17.2263                22.1131                11.8110

 - Thermochemistry -
 -------------------
 Temperature   298.150 Kelvin.  Pressure   1.00000 Atm.
 Atom     1 has atomic number  6 and mass  12.00000

 Molecular mass:   126.06808 amu.
 Principal axes and moments of inertia in atomic units:
                           1         2         3
     Eigenvalues --   680.03454 913.029051275.14491
           X            0.99842   0.05623   0.00120
           Y           -0.05622   0.99841  -0.00307
           Z           -0.00137   0.00300   0.99999
 This molecule is an asymmetric top.
 Rotational symmetry number  1.
 Warning -- assumption of classical behavior for rotation
           may cause significant error
 Rotational temperatures (Kelvin)      0.12737     0.09486     0.06792
 Rotational constants (GHZ):           2.65390     1.97665     1.41532
 Zero-point vibrational energy     421080.5 (Joules/Mol)
                                  100.64065 (Kcal/Mol)
 Warning -- explicit consideration of   9 degrees of freedom as
           vibrations may cause significant error
 Vibrational temperatures:    249.85   308.61   331.53   404.10   485.12
          (Kelvin)            533.33   677.71   736.42   823.73   961.33
                              998.22  1109.01  1184.69  1212.54  1257.80
                             1307.37  1318.82  1371.20  1393.15  1479.32
                             1495.86  1510.36  1555.51  1571.63  1602.86
                             1630.47  1717.51  1764.84  1784.11  1786.24
                             1853.23  1878.64  1929.84  1972.97  2023.76
                             2031.04  2035.13  2111.36  2130.48  2155.78
                             2162.57  4293.58  4364.20  4372.47  4411.33
                             4441.95  4460.84  4462.91  4476.51  4564.84
                             4591.88

 Zero-point correction=                           0.160381 (Hartree/Particle)
 Thermal correction to Energy=                    0.167719
 Thermal correction to Enthalpy=                  0.168663
 Thermal correction to Gibbs Free Energy=         0.129098
 Sum of electronic and zero-point Energies=           -422.987987
 Sum of electronic and thermal Energies=              -422.980649
 Sum of electronic and thermal Enthalpies=            -422.979705
 Sum of electronic and thermal Free Energies=         -423.019270

                     E (Thermal)             CV                S
                      KCal/Mol        Cal/Mol-Kelvin    Cal/Mol-Kelvin
 Total                  105.245             29.932             83.270
 Electronic               0.000              0.000              0.000
 Translational            0.889              2.981             40.409
 Rotational               0.889              2.981             28.162
 Vibrational            103.468             23.971             14.700
 Vibration     1          0.627              1.875              2.396
 Vibration     2          0.644              1.819              2.005
 Vibration     3          0.652              1.795              1.876
 Vibration     4          0.681              1.709              1.528
 Vibration     5          0.718              1.601              1.225
 Vibration     6          0.743              1.532              1.077
 Vibration     7          0.828              1.314              0.735
 Vibration     8          0.867              1.224              0.629
 Vibration     9          0.929              1.091              0.499

 Normal termination of Gaussian 09 at Mon Jan 27 22:51:12 2020.
