 Gaussian 09, Revision D.01,
 Gaussian 09:  ES64L-G09RevD.01 24-Apr-2013

 -----------------------------
 # b3lyp 6-31G(2df,p) opt Freq
 -----------------------------

 -----
 titel
 -----
 Symbolic Z-matrix:
 Charge =  0 Multiplicity = 1

 SCF Done:  E(RB3LYP) =  -423.131730367     A.U. after   14 cycles
 Optimization completed.
    -- Stationary point found.
 Normal termination of Gaussian 09 at Tue Jan 28 14:06:43 2020.

 ----------------------------------------------------------------------
 #N Geom=AllCheck Guess=TCheck SCRF=Check GenChk RB3LYP/6-31G(2df,p) Fr
 eq
 ----------------------------------------------------------------------

 Structure from the checkpoint file:  "/scratch/puck/g09_9781cfd2-c4ef-4f6b-b672-18f6e1b9ac00/Gau-10855.chk"
 -----
 titel
 -----
 Charge =  0 Multiplicity = 1

                         Standard orientation:
 ---------------------------------------------------------------------
 Center     Atomic      Atomic             Coordinates (Angstroms)
 Number     Number       Type             X           Y           Z
 ---------------------------------------------------------------------
      1          6           0        2.510513   -0.474976   -0.091630
      2          8           0        1.315764   -1.157338    0.258270
      3          6           0        0.210846   -0.762919   -0.486281
      4          6           0       -1.132756   -1.422063   -0.091175
      5          6           0       -1.840437   -0.244725   -0.820682
      6          6           0       -0.699240    0.416617    0.015863
      7          6           0       -1.137824   -0.532590    1.189136
      8          6           0       -0.413811    1.872939    0.124517
      9          8           0        0.665619    2.386005   -0.051238
     10          1           0        2.404004    0.609132   0.609132    0.030293
     11          1           0        3.295014   -0.850108    0.569236
     12          1           0        2.794220   -0.685688   -1.134035
     13          1           0        0.439683   -0.738065   -1.561784
     14          1           0       -1.379688   -2.481218   -0.159257
     15          1           0       -1.740048   -0.193901   -1.908523
     16          1           0       -2.860029   -0.027023   -0.497591
     17          1           0       -0.374863   -0.743921    1.936462
     18          1           0       -2.114625   -0.326544    1.633294
     19          1           0       -1.298475    2.494301    0.397158
 ---------------------------------------------------------------------

 SCF Done:  E(RB3LYP) =  -423.131730367     A.U. after    1 cycles

 The electronic state is 1-A.
 Alpha  occ. eigenvalues --  -19.14467 -19.14316 -10.27345 -10.24288 -10.21728
 Alpha  occ. eigenvalues --  -10.21396 -10.20990 -10.20408 -10.19959  -1.04977
 Alpha  occ. eigenvalues --   -1.03960  -0.91822  -0.70948  -0.68982  -0.67940
 Alpha  occ. eigenvalues --   -0.63587  -0.58198  -0.54506  -0.50567  -0.49075
 Alpha  occ. eigenvalues --   -0.48064  -0.44792  -0.44427  -0.41857  -0.40787
 Alpha  occ. eigenvalues --   -0.39419  -0.35900  -0.34433  -0.33790  -0.33341
 Alpha  occ. eigenvalues --   -0.33150  -0.30519  -0.25564  -0.24841
 Alpha virt. eigenvalues --   -0.03251   0.10125   0.10658   0.11480   0.12995
 Alpha virt. eigenvalues --    0.13331   0.14260   0.15015   0.15182   0.16403
 Alpha virt. eigenvalues --    0.16839   0.18006   0.18189   0.19760   0.20271

 Mulliken charges:
               1
     1  C   -0.263074
     2  O   -0.264185
     3  C    0.154323
     4  C   -0.098533
     5  C   -0.273028
     6  C    0.196113
     7  C   -0.263763
     8  C    0.033457
     9  O   -0.251140
    10  H    0.145587
    11  H    0.123348
    12  H    0.104821
    13  H    0.066192
    14  H    0.083115
    15  H    0.102718
    16  H    0.105088
    17  H    0.125364
    18  H    0.095891
    19  H    0.077707
 Sum of Mulliken charges =   0.00000

 Dipole moment (field-independent basis, Debye):
    X=             -1.7564    Y=             -0.8849    Z=             -0.3692  Tot=              2.0011
 Quadrupole moment (field-independent basis, Debye-Ang):
   XX=            -49.7813   YY=            -59.4445   ZZ=            -52.0112
   XY=             -2.6923   XZ=             -0.6680   YZ=              1.3775

  Exact polarizability:  89.212   1.282  76.542  -1.460   0.531  67.122
 Approx polarizability: 125.753   6.737 112.791  -2.743  -1.710 102.894

                      1                      2                      3
                      A                      A                      A
 Frequencies --     80.3507               116.5083               149.5477
 Red. masses --      3.7712                 2.5749                 6.6095
 Frc consts  --      0.0143                 0.0206                 0.0871
 IR Inten    --      5.4810                 3.4323                 5.6998

                      4                      5                      6
                      A                      A                      A
 Frequencies --    192.0845               216.5419               280.9596
 Red. masses --      1.1229                 2.7985                 2.2654
 Frc consts  --      0.0244                 0.0773                 0.1054
 IR Inten    --      0.4536                 0.7311                 1.9185

                      7                      8                      9
                      A                      A                      A
 Frequencies --    342.2499               428.3163               457.8809
 Red. masses --      3.9606                 3.3529                 4.7037
 Frc consts  --      0.2733                 0.3624                 0.5810
 IR Inten    --      8.6839                 2.8330                 3.8646

                     10                     11                     12
                      A                      A                      A
 Frequencies --    534.4313               585.7680               721.9310
 Red. masses --      2.3814                 2.8515                 3.4530
 Frc consts  --      0.4007                 0.5765                 1.0603
 IR Inten    --      5.3527                 5.1827                 3.3650

                     13                     14                     15
                      A                      A                      A
 Frequencies --    802.8387               825.5550               893.4279
 Red. masses --      3.4247                 2.9556                 3.0992
 Frc consts  --      1.3005                 1.1868                 1.4575
 IR Inten    --      4.1517                 6.8561                 3.8575

                     16                     17                     18
                      A                      A                      A
 Frequencies --    910.0143               948.4603               974.9195
 Red. masses --      2.1931                 1.7811                 1.8180
 Frc consts  --      1.0701                 0.9440                 1.0181
 IR Inten    --      0.2554                 2.9204                19.7415

                     19                     20                     21
                      A                      A                      A
 Frequencies --   1010.5452              1023.3071              1060.7425
 Red. masses --      2.1562                 1.2052                 2.4290
 Frc consts  --      1.2973                 0.7436                 1.6102
 IR Inten    --      2.6603                 1.3391                22.0696

                     22                     23                     24
                      A                      A                      A
 Frequencies --   1070.8551              1090.2077              1141.5152
 Red. masses --      1.7699                 1.7067                 1.4309
 Frc consts  --      1.1958                 1.1952                 1.0986
 IR Inten    --      2.9435                 7.8102                25.5193

                     25                     26                     27
                      A                      A                      A
 Frequencies --   1155.3466              1158.5110              1183.2322
 Red. masses --      1.7754                 1.7095                 2.0806
 Frc consts  --      1.3963                 1.3518                 1.7162
 IR Inten    --     16.7795                17.4713                76.8742

                     28                     29                     30
                      A                      A                      A
 Frequencies --   1191.6905              1217.7616              1235.3810
 Red. masses --      1.2907                 1.6646                 1.6733
 Frc consts  --      1.0800                 1.4544                 1.5046
 IR Inten    --      4.3620                 3.7760                14.6155

                     31                     32                     33
                      A                      A                      A
 Frequencies --   1246.5931              1255.2693              1299.8520
 Red. masses --      1.9475                 1.7946                 4.2040
 Frc consts  --      1.7831                 1.6660                 4.1851
 IR Inten    --     61.8869                13.5707                19.8420

                     34                     35                     36
                      A                      A                      A
 Frequencies --   1408.7809              1422.6865              1483.1015
 Red. masses --      1.2167                 1.2546                 1.1210
 Frc consts  --      1.4227                 1.4961                 1.4528
 IR Inten    --     33.0925                 7.8677                 1.1687

                     37                     38                     39
                      A                      A                      A
 Frequencies --   1488.9281              1493.1105              1518.2415
 Red. masses --      1.0566                 1.1159                 1.0604
 Frc consts  --      1.3801                 1.4657                 1.4402
 IR Inten    --      3.9453                 4.8559                 9.5325

                     40                     41                     42
                      A                      A                      A
 Frequencies --   1532.2507              1807.4225              2861.6596
 Red. masses --      1.1729                10.8627                 1.0817
 Frc consts  --      1.6225                20.9077                 5.2192
 IR Inten    --      7.8096               174.5941               131.5135

                     43                     44                     45
                      A                      A                      A
 Frequencies --   2988.6394              3000.7922              3058.4960
 Red. masses --      1.0472                 1.0799                 1.0552
 Frc consts  --      5.5110                 5.7294                 5.8155
 IR Inten    --     40.8933                74.2678                41.1483

                     46                     47                     48
                      A                      A                      A
 Frequencies --   3068.3778              3072.4277              3119.8536
 Red. masses --      1.0911                 1.0581                 1.0928
 Frc consts  --      6.0526                 5.8849                 6.2669
 IR Inten    --     22.4622                35.0175                50.5937

                     49                     50                     51
                      A                      A                      A
 Frequencies --   3126.3809              3129.9433              3161.1694
 Red. masses --      1.1025                 1.1097                 1.1073
 Frc consts  --      6.3492                 6.4049                 6.5195
 IR Inten    --     21.4232                29.0242                16.0094

 - Thermochemistry -
 -------------------
 Temperature   298.150 Kelvin.  Pressure   1.00000 Atm.
 Atom     1 has atomic number  6 and mass  12.00000

 Molecular mass:   126.06808 amu.
 Principal axes and moments of inertia in atomic units:
                           1         2         3
     Eigenvalues --   906.51118 996.373121588.52987
           X            0.99690  -0.07817  -0.00857
           Y            0.07824   0.99690   0.00772
           Z            0.00794  -0.00836   0.99993
 This molecule is an asymmetric top.
 Rotational symmetry number  1.
 Warning -- assumption of classical behavior for rotation
           may cause significant error
 Rotational temperatures (Kelvin)      0.09555     0.08693     0.05452
 Rotational constants (GHZ):           1.99086     1.81131     1.13611
 Zero-point vibrational energy     415970.6 (Joules/Mol)
                                   99.41936 (Kcal/Mol)
 Warning -- explicit consideration of  11 degrees of freedom as
           vibrations may cause significant error
 Vibrational temperatures:    115.61   167.63   215.17   276.37   311.56
          (Kelvin)            404.24   492.42   616.25   658.79   768.93
                              842.79  1038.70  1155.10  1187.79  1285.44
                             1309.31  1364.62  1402.69  1453.95  1472.31
                             1526.17  1540.72  1568.56  1642.38  1662.28
                             1666.84  1702.41  1714.57  1752.09  1777.44
                             1793.57  1806.05  1870.19  2026.92  2046.93
                             2133.85  2142.23  2148.25  2184.41  2204.56
                             2600.47  4117.28  4299.98  4317.47  4400.49
                             4414.71  4420.53  4488.77  4498.16  4503.28
                             4548.21

 Zero-point correction=                           0.158435 (Hartree/Particle)
 Thermal correction to Energy=                    0.167021
 Thermal correction to Enthalpy=                  0.167965
 Thermal correction to Gibbs Free Energy=         0.124944
 Sum of electronic and zero-point Energies=           -422.973296
 Sum of electronic and thermal Energies=              -422.964709
 Sum of electronic and thermal Enthalpies=            -422.963765
 Sum of electronic and thermal Free Energies=         -423.006787

                     E (Thermal)             CV                S
                      KCal/Mol        Cal/Mol-Kelvin    Cal/Mol-Kelvin
 Total                  104.807             31.840             90.547
 Electronic               0.000              0.000              0.000
 Translational            0.889              2.981             40.409
 Rotational               0.889              2.981             28.752
 Vibrational            103.030             25.878             21.386
 Vibration     1          0.600              1.962              3.882
 Vibration     2          0.608              1.936              3.157
 Vibration     3          0.618              1.903              2.678
 Vibration     4          0.634              1.851              2.208
 Vibration     5          0.645              1.816              1.988
 Vibration     6          0.681              1.709              1.528
 Vibration     7          0.721              1.591              1.202
 Vibration     8          0.790              1.409              0.864
 Vibration     9          0.816              1.343              0.772
 Vibration    10          0.889              1.174              0.577
 Vibration    11          0.943              1.062              0.475

 Optimization completed.
    -- Stationary point found.
 Normal termination of Gaussian 09 at Tue Jan 28 14:57:48 2020.
