 Gaussian 09, Revision D.01,
 Gaussian 09:  ES64L-G09RevD.01 24-Apr-2013

 -----------------------------
 # b3lyp 6-31G(2df,p) opt Freq
 -----------------------------

 -----
 titel
 -----
 Symbolic Z-matrix:
 Charge =  0 Multiplicity = 1

 SCF Done:  E(RB3LYP) =  -423.163209169     A.U. after   13 cycles
 Optimization completed.
    -- Stationary point found.
 Normal termination of Gaussian 09 at Mon Jan 27 22:04:23 2020.

 ----------------------------------------------------------------------
 #N Geom=AllCheck Guess=TCheck SCRF=Check GenChk RB3LYP/6-31G(2df,p) Fr
 eq
 ----------------------------------------------------------------------

 Structure from the checkpoint file:  "/scratch/puck/g09_68ccd1c2-2abb-4778-92dd-d23e457fe714/Gau-53074.chk"
 -----
 titel
 -----
 Charge =  0 Multiplicity = 1

                         Standard orientation:
 ---------------------------------------------------------------------
 Center     Atomic      Atomic             Coordinates (Angstroms)
 Number     Number       Type             X           Y           Z
 ---------------------------------------------------------------------
      1          6           0        0.407233    2.093207    0.454567
      2          6           0        0.058554    0.712241   -0.059346
      3          8           0       -1.224879    0.780713   -0.675003
      4          6           0       -1.862132   -0.458799   -0.480058
      5          8           0       -1.421750   -0.952944    0.765684
      6          6           0       -0.075641   -0.547157    0.892089
      7          6           0        0.925090   -1.300116    0.006291
      8          6           0        2.217874   -0.539646   -0.033713
      9          6           0        1.081677   -0.072923   -0.900234
     10          1           0        1.394780    2.106807    0.922337
     11          1           0        0.410820    2.811036   -0.371902
     12          1           0       -0.334041    2.423619    1.187836
     13          1           0       -2.944045   -0.304628   -0.440558
     14          1           0       -1.607373   -1.163033   -1.289704
     15          1           0        0.153512   -0.462613    1.957415
     16          1           0        0.852327   -2.348638   -0.254606
     17          1           0        2.543363    0.042498    0.825899
     18          1           0        3.030260   -1.030078   -0.560131
     19          1           0        1.157496   -0.017969   -1.979610
 ---------------------------------------------------------------------

 SCF Done:  E(RB3LYP) =  -423.163209169     A.U. after    1 cycles

 The electronic state is 1-A.
 Alpha  occ. eigenvalues --  -19.14695 -19.14422 -10.27020 -10.24165 -10.23489
 Alpha  occ. eigenvalues --  -10.19519 -10.19447 -10.19387 -10.17559  -1.08875
 Alpha  occ. eigenvalues --   -0.99520  -0.89504  -0.76147  -0.70274  -0.64501
 Alpha  occ. eigenvalues --   -0.63312  -0.57999  -0.55300  -0.50880  -0.50329
 Alpha  occ. eigenvalues --   -0.48487  -0.45464  -0.43555  -0.41524  -0.40267
 Alpha  occ. eigenvalues --   -0.39243  -0.38485  -0.37306  -0.32797  -0.31555
 Alpha  occ. eigenvalues --   -0.31362  -0.26749  -0.26444  -0.25110
 Alpha virt. eigenvalues --    0.09235   0.09703   0.10576   0.12180   0.13179
 Alpha virt. eigenvalues --    0.13950   0.14605   0.15758   0.16097   0.16610
 Alpha virt. eigenvalues --    0.17170   0.18237   0.19968   0.21148   0.21555

 Mulliken charges:
               1
     1  C   -0.460311
     2  C    0.388325
     3  O   -0.294579
     4  C    0.000254
     5  O   -0.257320
     6  C    0.041781
     7  C   -0.084255
     8  C   -0.305731
     9  C   -0.103109
    10  H    0.116721
    11  H    0.128434
    12  H    0.127215
    13  H    0.118679
    14  H    0.087952
    15  H    0.082886
    16  H    0.094447
    17  H    0.108493
    18  H    0.119261
    19  H    0.090857
 Sum of Mulliken charges =   0.00000

 Dipole moment (field-independent basis, Debye):
    X=              1.3643    Y=             -0.2505    Z=             -0.3819  Tot=              1.4387
 Quadrupole moment (field-independent basis, Debye-Ang):
   XX=            -52.0159   YY=            -53.8207   ZZ=            -52.9153
   XY=              0.0041   XZ=              1.1674   YZ=              2.9697

  Exact polarizability:  83.013  -0.005  72.692   1.567   2.050  65.680
 Approx polarizability: 114.770   1.077 105.176   2.430  -2.939 102.829

                      1                      2                      3
                      A                      A                      A
 Frequencies --    158.3567               200.3622               220.0762
 Red. masses --      3.7833                 1.0315                 2.3362
 Frc consts  --      0.0559                 0.0244                 0.0667
 IR Inten    --      1.1276                 0.0384                 1.7238

                      4                      5                      6
                      A                      A                      A
 Frequencies --    251.2670               301.7101               383.1978
 Red. masses --      2.6311                 2.6409                 3.0399
 Frc consts  --      0.0979                 0.1416                 0.2630
 IR Inten    --      0.7644                 3.0079                 4.3551

                      7                      8                      9
                      A                      A                      A
 Frequencies --    413.0196               493.8337               618.0735
 Red. masses --      3.5037                 4.0044                 4.0852
 Frc consts  --      0.3521                 0.5754                 0.9195
 IR Inten    --      0.7758                 4.6532                 1.4715

                     10                     11                     12
                      A                      A                      A
 Frequencies --    641.3674               742.8860               783.4527
 Red. masses --      3.8777                 7.2593                 1.7835
 Frc consts  --      0.9398                 2.3604                 0.6450
 IR Inten    --      1.0722                 0.2089                11.0339

                     13                     14                     15
                      A                      A                      A
 Frequencies --    808.3365               854.3700               914.6461
 Red. masses --      1.7899                 1.9665                 2.3240
 Frc consts  --      0.6891                 0.8457                 1.1455
 IR Inten    --     22.4184                 3.1546                11.6300

                     16                     17                     18
                      A                      A                      A
 Frequencies --    935.5550               950.2866               957.4178
 Red. masses --      2.4098                 2.3060                 2.0127
 Frc consts  --      1.2427                 1.2269                 1.0870
 IR Inten    --      6.1919                 3.2791                15.4736

                     19                     20                     21
                      A                      A                      A
 Frequencies --    991.6353              1017.0386              1031.6707
 Red. masses --      2.8597                 1.5852                 1.7668
 Frc consts  --      1.6568                 0.9661                 1.1079
 IR Inten    --     52.4792                 3.9239                 6.6999

                     22                     23                     24
                      A                      A                      A
 Frequencies --   1066.5654              1078.9585              1092.1072
 Red. masses --      1.6289                 2.1084                 1.4530
 Frc consts  --      1.0917                 1.4461                 1.0210
 IR Inten    --      5.9260                23.2133                 4.0199

                     25                     26                     27
                      A                      A                      A
 Frequencies --   1122.2927              1155.4106              1164.0491
 Red. masses --      3.8377                 2.0870                 1.8403
 Frc consts  --      2.8480                 1.6416                 1.4692
 IR Inten    --    120.2379                 2.3684                10.0486

                     28                     29                     30
                      A                      A                      A
 Frequencies --   1166.7217              1188.7061              1211.1460
 Red. masses --      2.0806                 2.1520                 1.9449
 Frc consts  --      1.6687                 1.7916                 1.6809
 IR Inten    --     40.3285                45.8391                45.7411

                     31                     32                     33
                      A                      A                      A
 Frequencies --   1241.2002              1263.2808              1301.4204
 Red. masses --      1.1985                 2.0160                 2.2157
 Frc consts  --      1.0878                 1.8956                 2.2111
 IR Inten    --      2.9984                 7.2811                10.6119

                     34                     35                     36
                      A                      A                      A
 Frequencies --   1338.1403              1357.8112              1410.3825
 Red. masses --      1.8675                 1.6773                 1.3259
 Frc consts  --      1.9702                 1.8220                 1.5539
 IR Inten    --      7.1714                16.1848                10.0306

                     37                     38                     39
                      A                      A                      A
 Frequencies --   1429.3009              1482.3599              1488.3371
 Red. masses --      1.2822                 1.0511                 1.1010
 Frc consts  --      1.5433                 1.3608                 1.4370
 IR Inten    --      9.0028                 3.0526                 0.3393

                     40                     41                     42
                      A                      A                      A
 Frequencies --   1498.5447              1539.6528              2961.7914
 Red. masses --      1.1369                 1.0994                 1.0695
 Frc consts  --      1.5042                 1.5356                 5.5275
 IR Inten    --      3.6023                 2.0785                85.9516

                     43                     44                     45
                      A                      A                      A
 Frequencies --   3042.9288              3079.4061              3090.4180
 Red. masses --      1.0355                 1.0874                 1.0959
 Frc consts  --      5.6489                 6.0757                 6.1666
 IR Inten    --     15.7024                37.5301                49.4380

                     46                     47                     48
                      A                      A                      A
 Frequencies --   3106.2560              3112.3061              3124.4013
 Red. masses --      1.0595                 1.0999                 1.1008
 Frc consts  --      6.0232                 6.2771                 6.3312
 IR Inten    --     16.2971                17.2600                22.6255

                     49                     50                     51
                      A                      A                      A
 Frequencies --   3181.5025              3188.9855              3201.4318
 Red. masses --      1.0898                 1.1027                 1.1053
 Frc consts  --      6.4990                 6.6071                 6.6747
 IR Inten    --     13.8352                 1.8233                17.6613

 - Thermochemistry -
 -------------------
 Temperature   298.150 Kelvin.  Pressure   1.00000 Atm.
 Atom     1 has atomic number  6 and mass  12.00000

 Molecular mass:   126.06808 amu.
 Principal axes and moments of inertia in atomic units:
                           1         2         3
     Eigenvalues --   692.41376 959.590531266.34408
           X            0.99983   0.01147   0.01459
           Y           -0.01242   0.99770   0.06665
           Z           -0.01380  -0.06682   0.99767
 This molecule is an asymmetric top.
 Rotational symmetry number  1.
 Warning -- assumption of classical behavior for rotation
           may cause significant error
 Rotational temperatures (Kelvin)      0.12509     0.09026     0.06840
 Rotational constants (GHZ):           2.60645     1.88074     1.42516
 Zero-point vibrational energy     420812.6 (Joules/Mol)
                                  100.57663 (Kcal/Mol)
 Warning -- explicit consideration of   9 degrees of freedom as
           vibrations may cause significant error
 Vibrational temperatures:    227.84   288.28   316.64   361.52   434.09
          (Kelvin)            551.34   594.24   710.52   889.27   922.78
                             1068.85  1127.21  1163.01  1229.25  1315.97
                             1346.05  1367.25  1377.51  1426.74  1463.29
                             1484.34  1534.55  1552.38  1571.30  1614.73
                             1662.38  1674.80  1678.65  1710.28  1742.57
                             1785.81  1817.58  1872.45  1925.28  1953.59
                             2029.22  2056.44  2132.78  2141.38  2156.07
                             2215.21  4261.35  4378.09  4430.57  4446.42
                             4469.20  4477.91  4495.31  4577.47  4588.23
                             4606.14

 Zero-point correction=                           0.160279 (Hartree/Particle)
 Thermal correction to Energy=                    0.167771
 Thermal correction to Enthalpy=                  0.168716
 Thermal correction to Gibbs Free Energy=         0.128740
 Sum of electronic and zero-point Energies=           -423.002930
 Sum of electronic and thermal Energies=              -422.995438
 Sum of electronic and thermal Enthalpies=            -422.994493
 Sum of electronic and thermal Free Energies=         -423.034470

                     E (Thermal)             CV                S
                      KCal/Mol        Cal/Mol-Kelvin    Cal/Mol-Kelvin
 Total                  105.278             30.104             84.137
 Electronic               0.000              0.000              0.000
 Translational            0.889              2.981             40.409
 Rotational               0.889              2.981             28.222
 Vibrational            103.501             24.143             15.506
 Vibration     1          0.621              1.893              2.569
 Vibration     2          0.638              1.839              2.130
 Vibration     3          0.647              1.811              1.958
 Vibration     4          0.663              1.761              1.722
 Vibration     5          0.694              1.670              1.407
 Vibration     6          0.752              1.506              1.027
 Vibration     7          0.777              1.442              0.916
 Vibration     8          0.849              1.264              0.674
 Vibration     9          0.978              0.994              0.420

 Optimization completed.
    -- Stationary point found.
 Normal termination of Gaussian 09 at Mon Jan 27 22:56:38 2020.
