 Gaussian 09, Revision D.01,
 Gaussian 09:  ES64L-G09RevD.01 24-Apr-2013

 -----------------------------
 # b3lyp 6-31G(2df,p) opt Freq
 -----------------------------

 -----
 titel
 -----
 Symbolic Z-matrix:
 Charge =  0 Multiplicity = 1

 SCF Done:  E(RB3LYP) =  -423.172967103     A.U. after   14 cycles
 Optimization completed.
    -- Stationary point found.
 Normal termination of Gaussian 09 at Mon Jan 27 17:26:29 2020.

 ----------------------------------------------------------------------
 #N Geom=AllCheck Guess=TCheck SCRF=Check GenChk RB3LYP/6-31G(2df,p) Fr
 eq
 ----------------------------------------------------------------------

 Structure from the checkpoint file:  "/scratch/puck/g09_97c335c1-4a75-4489-9516-6210374000c6/Gau-168394.chk"
 -----
 titel
 -----
 Charge =  0 Multiplicity = 1

                         Standard orientation:
 ---------------------------------------------------------------------
 Center     Atomic      Atomic             Coordinates (Angstroms)
 Number     Number       Type             X           Y           Z
 ---------------------------------------------------------------------
      1          6           0        1.931911   -0.651070    1.195285
      2          6           0        1.104791   -0.003822    0.079952
      3          8           0        1.888125    0.993082   -0.592120
      4          6           0        0.557260   -1.029874   -0.913478
      5          6           0       -0.773985   -1.044895   -0.956024
      6          6           0       -1.360212   -0.026428   -0.027298
      7          8           0       -2.560828   -0.286262    0.628546
      8          6           0       -1.050933    1.403722   -0.360588
      9          6           0       -0.164831    0.656071    0.617220
     10          1           0        2.793751   -1.188081    0.781597
     11          1           0        2.303336    0.118745    1.879028
     12          1           0        1.333466   -1.369950    1.763409
     13          1           0        2.658962    0.554415   -0.968725
     14          1           0        1.220537   -1.615829   -1.542639
     15          1           0       -1.393302   -1.661407   -1.598770
     16          1           0       -2.431050   -1.061426    1.186660
     17          1           0       -0.658781    1.647453   -1.340677
     18          1           0       -1.711027    2.143285    0.080346
     19          1           0       -0.198278    0.956008    1.657956
 ---------------------------------------------------------------------

 SCF Done:  E(RB3LYP) =  -423.172967103     A.U. after    1 cycles

 The electronic state is 1-A.
 Alpha  occ. eigenvalues --  -19.14418 -19.13213 -10.24120 -10.23707 -10.18430
 Alpha  occ. eigenvalues --  -10.18042 -10.18033 -10.17927 -10.17772  -1.03041
 Alpha  occ. eigenvalues --   -1.01424  -0.87163  -0.77039  -0.73599  -0.64767
 Alpha  occ. eigenvalues --   -0.60415  -0.56331  -0.55591  -0.52730  -0.47974
 Alpha  occ. eigenvalues --   -0.46111  -0.43069  -0.42649  -0.41709  -0.40336
 Alpha  occ. eigenvalues --   -0.38197  -0.37326  -0.35957  -0.32945  -0.31507
 Alpha  occ. eigenvalues --   -0.30071  -0.26674  -0.26370  -0.22864
 Alpha virt. eigenvalues --    0.00427   0.07813   0.08691   0.11336   0.12832
 Alpha virt. eigenvalues --    0.13427   0.14892   0.15749   0.16507   0.17112
 Alpha virt. eigenvalues --    0.18565   0.19830   0.20801   0.22553   0.23580

 Mulliken charges:
               1
     1  C   -0.438312
     2  C    0.335993
     3  O   -0.462694
     4  C   -0.124972
     5  C   -0.189738
     6  C    0.380971
     7  O   -0.467954
     8  C   -0.310872
     9  C   -0.139843
    10  H    0.102207
    11  H    0.125095
    12  H    0.116609
    13  H    0.274107
    14  H    0.090127
    15  H    0.102406
    16  H    0.279547
    17  H    0.125696
    18  H    0.117210
    19  H    0.084417
 Sum of Mulliken charges =   0.00000

 Dipole moment (field-independent basis, Debye):
    X=              1.3462    Y=             -2.0418    Z=              0.3940  Tot=              2.4772
 Quadrupole moment (field-independent basis, Debye-Ang):
   XX=            -53.3876   YY=            -53.1314   ZZ=            -50.3654
   XY=             -0.6536   XZ=             -2.1947   YZ=              0.2036

  Exact polarizability:  90.729  -2.563  70.935   0.143   2.612  67.530
 Approx polarizability: 136.206  -0.852 106.051  -1.941   2.683  99.276

                      1                      2                      3
                      A                      A                      A
 Frequencies --    115.8173               194.3151               251.9826
 Red. masses --      3.6467                 3.1136                 1.0706
 Frc consts  --      0.0288                 0.0693                 0.0401
 IR Inten    --      0.2438                 1.3675                 0.0799

                      4                      5                      6
                      A                      A                      A
 Frequencies --    264.6505               295.0703               331.8992
 Red. masses --      1.0887                 2.2190                 2.7763
 Frc consts  --      0.0449                 0.1138                 0.1802
 IR Inten    --     79.0005                14.0892                 3.5394

                      7                      8                      9
                      A                      A                      A
 Frequencies --    339.0278               356.3591               400.2189
 Red. masses --      2.9546                 1.4332                 2.9088
 Frc consts  --      0.2001                 0.1072                 0.2745
 IR Inten    --      6.8931                86.1168                20.9783

                     10                     11                     12
                      A                      A                      A
 Frequencies --    417.0654               503.7960               562.0412
 Red. masses --      3.2254                 2.5185                 3.9142
 Frc consts  --      0.3306                 0.3766                 0.7285
 IR Inten    --      2.6368                 1.6800                 0.5927

                     13                     14                     15
                      A                      A                      A
 Frequencies --    610.3006               651.1104               748.6544
 Red. masses --      3.3984                 3.8661                 2.3044
 Frc consts  --      0.7458                 0.9657                 0.7610
 IR Inten    --     12.8856                 6.2170                11.0071

                     16                     17                     18
                      A                      A                      A
 Frequencies --    784.7296               798.6531               897.0407
 Red. masses --      3.9328                 1.6699                 2.2200
 Frc consts  --      1.4269                 0.6275                 1.0525
 IR Inten    --      1.4324                26.2125                25.9996

                     19                     20                     21
                      A                      A                      A
 Frequencies --    924.6376               934.4696               954.8806
 Red. masses --      1.8998                 2.0686                 2.0798
 Frc consts  --      0.9570                 1.0643                 1.1173
 IR Inten    --      3.3199                 3.9942                 4.9301

                     22                     23                     24
                      A                      A                      A
 Frequencies --    956.4034               977.8927              1029.2496
 Red. masses --      1.4942                 1.4908                 2.0124
 Frc consts  --      0.8053                 0.8400                 1.2560
 IR Inten    --     14.6420                 0.6593                 7.7147

                     25                     26                     27
                      A                      A                      A
 Frequencies --   1043.2704              1073.2690              1097.3538
 Red. masses --      1.5227                 1.4127                 1.5533
 Frc consts  --      0.9765                 0.9588                 1.1021
 IR Inten    --      2.6020                11.1737                 8.3173

                     28                     29                     30
                      A                      A                      A
 Frequencies --   1127.8339              1153.8430              1181.1937
 Red. masses --      1.3856                 2.6197                 2.1385
 Frc consts  --      1.0384                 2.0549                 1.7580
 IR Inten    --      5.3109               147.2030                20.0178

                     31                     32                     33
                      A                      A                      A
 Frequencies --   1241.8880              1283.5166              1295.8696
 Red. masses --      1.6721                 3.3417                 1.4421
 Frc consts  --      1.5194                 3.2436                 1.4268
 IR Inten    --     27.8576                45.7601                55.0744

                     34                     35                     36
                      A                      A                      A
 Frequencies --   1359.6684              1374.8848              1398.8696
 Red. masses --      1.8733                 1.9269                 1.2817
 Frc consts  --      2.0404                 2.1461                 1.4778
 IR Inten    --     50.2215                34.6176                 6.7764

                     37                     38                     39
                      A                      A                      A
 Frequencies --   1414.5354              1476.8113              1487.9118
 Red. masses --      1.7728                 1.4148                 1.0662
 Frc consts  --      2.0900                 1.8180                 1.3908
 IR Inten    --     15.0464                14.1573                 0.9325

                     40                     41                     42
                      A                      A                      A
 Frequencies --   1490.3548              1673.5871              3025.4169
 Red. masses --      1.0713                 6.9190                 1.0359
 Frc consts  --      1.4019                11.4180                 5.5863
 IR Inten    --      4.3049                 3.5917                21.7607

                     43                     44                     45
                      A                      A                      A
 Frequencies --   3093.8717              3112.5818              3136.9422
 Red. masses --      1.0995                 1.1023                 1.0537
 Frc consts  --      6.2009                 6.2920                 6.1093
 IR Inten    --     23.5666                19.5289                10.5369

                     46                     47                     48
                      A                      A                      A
 Frequencies --   3170.1792              3180.2685              3198.9681
 Red. masses --      1.0851                 1.0911                 1.1038
 Frc consts  --      6.4255                 6.5022                 6.6551
 IR Inten    --      9.7526                 7.9607                17.2066

                     49                     50                     51
                      A                      A                      A
 Frequencies --   3232.9256              3788.9361              3799.8524
 Red. masses --      1.1172                 1.0659                 1.0660
 Frc consts  --      6.8795                 9.0160                 9.0687
 IR Inten    --      3.6244                13.6440                12.5255

 - Thermochemistry -
 -------------------
 Temperature   298.150 Kelvin.  Pressure   1.00000 Atm.
 Atom     1 has atomic number  6 and mass  12.00000

 Molecular mass:   126.06808 amu.
 Principal axes and moments of inertia in atomic units:
                           1         2         3
     Eigenvalues --   608.996611351.681951422.19795
           X            0.99949  -0.02565   0.01876
           Y            0.02598   0.99951  -0.01740
           Z           -0.01831   0.01788   0.99967
 This molecule is an asymmetric top.
 Rotational symmetry number  1.
 Warning -- assumption of classical behavior for rotation
           may cause significant error
 Rotational temperatures (Kelvin)      0.14222     0.06408     0.06090
 Rotational constants (GHZ):           2.96347     1.33518     1.26898
 Zero-point vibrational energy     413996.9 (Joules/Mol)
                                   98.94762 (Kcal/Mol)
 Warning -- explicit consideration of  13 degrees of freedom as
           vibrations may cause significant error
 Vibrational temperatures:    166.64   279.58   362.55   380.77   424.54
          (Kelvin)            477.53   487.78   512.72   575.83   600.06
                              724.85   808.65   878.09   936.80  1077.15
                             1129.05  1149.08  1290.64  1330.35  1344.49
                             1373.86  1376.05  1406.97  1480.86  1501.03
                             1544.19  1578.85  1622.70  1660.12  1699.47
                             1786.80  1846.69  1864.46  1956.26  1978.15
                             2012.66  2035.20  2124.80  2140.77  2144.29
                             2407.92  4352.89  4451.39  4478.31  4513.35
                             4561.18  4575.69  4602.60  4651.45  5451.43
                             5467.13

 Zero-point correction=                           0.157683 (Hartree/Particle)
 Thermal correction to Energy=                    0.166370
 Thermal correction to Enthalpy=                  0.167314
 Thermal correction to Gibbs Free Energy=         0.125217
 Sum of electronic and zero-point Energies=           -423.015284
 Sum of electronic and thermal Energies=              -423.006598
 Sum of electronic and thermal Enthalpies=            -423.005653
 Sum of electronic and thermal Free Energies=         -423.047750

                     E (Thermal)             CV                S
                      KCal/Mol        Cal/Mol-Kelvin    Cal/Mol-Kelvin
 Total                  104.399             34.827             88.599
 Electronic               0.000              0.000              0.000
 Translational            0.889              2.981             40.409
 Rotational               0.889              2.981             28.550
 Vibrational            102.621             28.865             19.640
 Vibration     1          0.608              1.936              3.169
 Vibration     2          0.635              1.848              2.186
 Vibration     3          0.664              1.759              1.717
 Vibration     4          0.671              1.738              1.631
 Vibration     5          0.689              1.683              1.445
 Vibration     6          0.714              1.612              1.251
 Vibration     7          0.719              1.598              1.217
 Vibration     8          0.732              1.562              1.138
 Vibration     9          0.766              1.470              0.962
 Vibration    10          0.780              1.433              0.902
 Vibration    11          0.859              1.242              0.649
 Vibration    12          0.918              1.113              0.520
 Vibration    13          0.969              1.010              0.432

 Normal termination of Gaussian 09 at Mon Jan 27 18:10:41 2020.
