 Gaussian 09, Revision D.01,
 Gaussian 09:  ES64L-G09RevD.01 24-Apr-2013

 -----------------------------
 # b3lyp 6-31G(2df,p) opt Freq
 -----------------------------

 -----
 titel
 -----
 Symbolic Z-matrix:
 Charge =  0 Multiplicity = 1

 SCF Done:  E(RB3LYP) =  -423.227254602     A.U. after   14 cycles
 Optimization completed.
    -- Stationary point found.
 Normal termination of Gaussian 09 at Mon Jan 27 15:34:32 2020.

 ----------------------------------------------------------------------
 #N Geom=AllCheck Guess=TCheck SCRF=Check GenChk RB3LYP/6-31G(2df,p) Fr
 eq
 ----------------------------------------------------------------------

 Structure from the checkpoint file:  "/scratch/puck/g09_06e6363d-82e0-42a0-b7a4-4bccc8ac3275/Gau-163594.chk"
 -----
 titel
 -----
 Charge =  0 Multiplicity = 1

                         Standard orientation:
 ---------------------------------------------------------------------
 Center     Atomic      Atomic             Coordinates (Angstroms)
 Number     Number       Type             X           Y           Z
 ---------------------------------------------------------------------
      1          6           0       -2.358659   -0.859066    1.000980
      2          6           0       -1.737308   -0.409013   -0.330828
      3          8           0       -2.367444    0.769519   -0.824236
      4          6           0       -0.275977   -0.094232   -0.169315
      5          6           0        0.745383   -0.937516   -0.379542
      6          6           0        2.038272   -0.292961   -0.068203
      7          8           0        3.140647   -0.784283   -0.150619
      8          6           0        1.719933    1.142868    0.384587
      9          6           0        0.187955    1.267847    0.303863
     10          1           0       -1.875766   -1.768437    1.369403
     11          1           0       -2.260715   -0.075796    1.758114
     12          1           0       -3.424961   -1.074140    0.864799
     13          1           0       -1.840198   -1.229621   -1.057680
     14          1           0       -3.316044    0.609643   -0.850361
     15          1           0        0.678150   -1.958466   -0.735627
     16          1           0        2.109163    1.294767    1.395681
     17          1           0        2.243969    1.851082   -0.263557
     18          1           0       -0.270108    1.523667    1.266622
     19          1           0       -0.146719    2.037854   -0.397817
 ---------------------------------------------------------------------

 SCF Done:  E(RB3LYP) =  -423.227254602     A.U. after    1 cycles

 The electronic state is 1-A.
 Alpha  occ. eigenvalues --  -19.15001 -19.11019 -10.25365 -10.25315 -10.21329
 Alpha  occ. eigenvalues --  -10.19445 -10.19421 -10.18468 -10.18371  -1.03335
 Alpha  occ. eigenvalues --   -1.02073  -0.85263  -0.77157  -0.72191  -0.68568
 Alpha  occ. eigenvalues --   -0.63416  -0.54902  -0.53545  -0.51126  -0.47914
 Alpha  occ. eigenvalues --   -0.46667  -0.44866  -0.42651  -0.39962  -0.39840
 Alpha  occ. eigenvalues --   -0.38877  -0.38342  -0.37747  -0.36541  -0.34677
 Alpha  occ. eigenvalues --   -0.33542  -0.28774  -0.25992  -0.23074
 Alpha virt. eigenvalues --   -0.03832   0.05792   0.06338   0.09585   0.11589
 Alpha virt. eigenvalues --    0.12202   0.14480   0.14845   0.15958   0.16536
 Alpha virt. eigenvalues --    0.17377   0.18979   0.20095   0.21671   0.23263

 Mulliken charges:
               1
     1  C   -0.407948
     2  C    0.025646
     3  O   -0.435912
     4  C    0.363506
     5  C   -0.325188
     6  C    0.400164
     7  O   -0.339192
     8  C   -0.344765
     9  C   -0.306631
    10  H    0.132160
    11  H    0.131563
    12  H    0.112315
    13  H    0.081658
    14  H    0.286991
    15  H    0.104259
    16  H    0.131267
    17  H    0.133299
    18  H    0.116925
    19  H    0.139884
 Sum of Mulliken charges =   0.00000

 Dipole moment (field-independent basis, Debye):
    X=             -4.5934    Y=              0.4078    Z=              0.7464  Tot=              4.6715
 Quadrupole moment (field-independent basis, Debye-Ang):
   XX=            -58.3265   YY=            -52.6013   ZZ=            -52.7787
   XY=              6.9406   XZ=              1.0467   YZ=              1.1598

  Exact polarizability: 106.238  -4.051  76.081  -1.339   4.278  58.447
 Approx polarizability: 155.878 -19.923 117.192  -2.939   7.023  88.578

                      1                      2                      3
                      A                      A                      A
 Frequencies --     42.7489                96.0175               115.9558
 Red. masses --      3.8522                 1.8475                 4.0957
 Frc consts  --      0.0041                 0.0100                 0.0324
 IR Inten    --      2.7330                 1.6739                 0.6954

                      4                      5                      6
                      A                      A                      A
 Frequencies --    192.6479               247.3950               260.2250
 Red. masses --      2.8190                 1.2881                 1.7515
 Frc consts  --      0.0616                 0.0464                 0.0699
 IR Inten    --      2.9994                 4.6856                49.8484

                      7                      8                      9
                      A                      A                      A
 Frequencies --    271.7622               338.6880               449.8607
 Red. masses --      1.3895                 4.9092                 3.7291
 Frc consts  --      0.0605                 0.3318                 0.4446
 IR Inten    --     48.9571                 8.7352                 3.5377

                     10                     11                     12
                      A                      A                      A
 Frequencies --    515.9526               543.3489               566.2113
 Red. masses --      3.8144                 1.7264                 3.1080
 Frc consts  --      0.5983                 0.3003                 0.5871
 IR Inten    --      3.8421                 2.0111                 2.2390

                     13                     14                     15
                      A                      A                      A
 Frequencies --    626.7444               643.2155               826.9478
 Red. masses --      3.6622                 4.0712                 1.4323
 Frc consts  --      0.8476                 0.9924                 0.5771
 IR Inten    --      3.2513                11.8929                 0.7501

                     16                     17                     18
                      A                      A                      A
 Frequencies --    835.3125               857.2586               899.5123
 Red. masses --      4.9200                 3.4040                 1.6360
 Frc consts  --      2.0226                 1.4739                 0.7799
 IR Inten    --     10.6086                 3.8074                 9.4175

                     19                     20                     21
                      A                      A                      A
 Frequencies --    909.5395               991.5059              1009.4837
 Red. masses --      1.8614                 1.9116                 2.0433
 Frc consts  --      0.9073                 1.1072                 1.2268
 IR Inten    --     12.6965                10.3104                 3.2235

                     22                     23                     24
                      A                      A                      A
 Frequencies --   1019.5229              1079.7613              1118.7663
 Red. masses --      1.9103                 2.7680                 2.2390
 Frc consts  --      1.1699                 1.9014                 1.6511
 IR Inten    --      0.3602                 8.2944                16.5847

                     25                     26                     27
                      A                      A                      A
 Frequencies --   1136.9342              1157.0944              1185.2275
 Red. masses --      2.3093                 1.3065                 1.8567
 Frc consts  --      1.7587                 1.0306                 1.5367
 IR Inten    --    135.0955                 8.2421                50.1477

                     28                     29                     30
                      A                      A                      A
 Frequencies --   1227.4444              1230.2545              1260.5653
 Red. masses --      1.1333                 1.4139                 1.5674
 Frc consts  --      1.0060                 1.2609                 1.4674
 IR Inten    --      0.8934                49.8860                 0.9542

                     31                     32                     33
                      A                      A                      A
 Frequencies --   1304.5406              1351.7490              1358.5933
 Red. masses --      1.6636                 1.3632                 1.9230
 Frc consts  --      1.6680                 1.4676                 2.0913
 IR Inten    --     15.8479                 7.2091                20.5844

                     34                     35                     36
                      A                      A                      A
 Frequencies --   1397.3367              1416.7996              1450.3336
 Red. masses --      1.2490                 1.4677                 1.0767
 Frc consts  --      1.4368                 1.7358                 1.3344
 IR Inten    --      7.9012                15.5056                 2.2619

                     37                     38                     39
                      A                      A                      A
 Frequencies --   1477.4187              1489.6667              1498.2162
 Red. masses --      1.0977                 1.0467                 1.1040
 Frc consts  --      1.4116                 1.3686                 1.4601
 IR Inten    --      8.3976                 5.8211                 3.0161

                     40                     41                     42
                      A                      A                      A
 Frequencies --   1680.7046              1811.8254              2979.8985
 Red. masses --      7.2922                12.4563                 1.0833
 Frc consts  --     12.1364                24.0919                 5.6675
 IR Inten    --     52.3206               325.2751                38.0749

                     43                     44                     45
                      A                      A                      A
 Frequencies --   3031.2651              3042.4934              3066.1768
 Red. masses --      1.0371                 1.0660                 1.0616
 Frc consts  --      5.6145                 5.8137                 5.8803
 IR Inten    --     18.1076                22.3568                10.2160

                     46                     47                     48
                      A                      A                      A
 Frequencies --   3081.0833              3102.2482              3107.2923
 Red. masses --      1.0953                 1.0985                 1.1023
 Frc consts  --      6.1259                 6.2288                 6.2709
 IR Inten    --      2.4884                24.9334                10.9224

                     49                     50                     51
                      A                      A                      A
 Frequencies --   3125.5178              3209.5617              3823.2716
 Red. masses --      1.1027                 1.0956                 1.0662
 Frc consts  --      6.3465                 6.6493                 9.1824
 IR Inten    --     17.3878                 4.4076                21.7812

 - Thermochemistry -
 -------------------
 Temperature   298.150 Kelvin.  Pressure   1.00000 Atm.
 Atom     1 has atomic number  6 and mass  12.00000

 Molecular mass:   126.06808 amu.
 Principal axes and moments of inertia in atomic units:
                           1         2         3
     Eigenvalues --   498.601941893.317962096.13966
           X            0.99949   0.03106  -0.00696
           Y           -0.03091   0.99933   0.01947
           Z            0.00756  -0.01925   0.99979
 This molecule is an asymmetric top.
 Rotational symmetry number  1.
 Warning -- assumption of classical behavior for rotation
           may cause significant error
 Rotational temperatures (Kelvin)      0.17371     0.04575     0.04132
 Rotational constants (GHZ):           3.61960     0.95322     0.86098
 Zero-point vibrational energy     415474.4 (Joules/Mol)
                                   99.30077 (Kcal/Mol)
 Warning -- explicit consideration of  12 degrees of freedom as
           vibrations may cause significant error
 Vibrational temperatures:     61.51   138.15   166.83   277.18   355.95
          (Kelvin)            374.41   391.00   487.30   647.25   742.34
                              781.76   814.65   901.74   925.44  1189.79
                             1201.83  1233.40  1294.20  1308.62  1426.55
                             1452.42  1466.86  1553.53  1609.65  1635.79
                             1664.80  1705.28  1766.02  1770.06  1813.67
                             1876.94  1944.86  1954.71  2010.45  2038.46
                             2086.70  2125.67  2143.30  2155.60  2418.16
                             2606.81  4287.40  4361.31  4377.46  4411.54
                             4432.99  4463.44  4470.70  4496.92  4617.84
                             5500.83

 Zero-point correction=                           0.158246 (Hartree/Particle)
 Thermal correction to Energy=                    0.167512
 Thermal correction to Enthalpy=                  0.168456
 Thermal correction to Gibbs Free Energy=         0.123500
 Sum of electronic and zero-point Energies=           -423.069009
 Sum of electronic and thermal Energies=              -423.059742
 Sum of electronic and thermal Enthalpies=            -423.058798
 Sum of electronic and thermal Free Energies=         -423.103754

                     E (Thermal)             CV                S
                      KCal/Mol        Cal/Mol-Kelvin    Cal/Mol-Kelvin
 Total                  105.116             33.919             94.618
 Electronic               0.000              0.000              0.000
 Translational            0.889              2.981             40.409
 Rotational               0.889              2.981             29.072
 Vibrational            103.338             27.957             25.138
 Vibration     1          0.595              1.980              5.127
 Vibration     2          0.603              1.952              3.534
 Vibration     3          0.608              1.936              3.167
 Vibration     4          0.635              1.850              2.202
 Vibration     5          0.661              1.767              1.749
 Vibration     6          0.668              1.745              1.660
 Vibration     7          0.675              1.725              1.585
 Vibration     8          0.719              1.598              1.218
 Vibration     9          0.809              1.361              0.796
 Vibration    10          0.871              1.215              0.619
 Vibration    11          0.898              1.154              0.558
 Vibration    12          0.922              1.104              0.512

 Optimization completed.
    -- Stationary point found.
 Normal termination of Gaussian 09 at Mon Jan 27 16:14:02 2020.
