 Gaussian 09, Revision D.01,
 Gaussian 09:  ES64L-G09RevD.01 24-Apr-2013

 -----------------------------
 # b3lyp 6-31G(2df,p) opt Freq
 -----------------------------

 -----
 titel
 -----
 Symbolic Z-matrix:
 Charge =  0 Multiplicity = 1

 SCF Done:  E(RB3LYP) =  -423.186308637     A.U. after   14 cycles
 SCF Done:  E(RB3LYP) =  -423.186308755     A.U. after    7 cycles
 SCF Done:  E(RB3LYP) =  -423.186308656     A.U. after    7 cycles
 SCF Done:  E(RB3LYP) =  -423.186308529     A.U. after    7 cycles
 SCF Done:  E(RB3LYP) =  -423.186308915     A.U. after    7 cycles
 Optimization completed.
    -- Stationary point found.
 Normal termination of Gaussian 09 at Mon Jan 27 15:41:49 2020.

 ----------------------------------------------------------------------
 #N Geom=AllCheck Guess=TCheck SCRF=Check GenChk RB3LYP/6-31G(2df,p) Fr
 eq
 ----------------------------------------------------------------------

 Structure from the checkpoint file:  "/scratch/puck/g09_eebd727b-a5b9-4c16-9a8a-01364ad0fbb4/Gau-44356.chk"
 -----
 titel
 -----
 Charge =  0 Multiplicity = 1

                         Standard orientation:
 ---------------------------------------------------------------------
 Center     Atomic      Atomic             Coordinates (Angstroms)
 Number     Number       Type             X           Y           Z
 ---------------------------------------------------------------------
      1          6           0       -3.015734   -0.337080   -0.558237
      2          6           0       -1.713044    0.449009   -0.396582
      3          6           0       -1.848077    1.593307    0.628762
      4          6           0       -0.578520   -0.470760    0.025311
      5          8           0       -0.695631   -1.565685    0.516373
      6          8           0        0.621800    0.113306   -0.199941
      7          6           0        1.760259   -0.667708    0.215792
      8          6           0        2.970996    0.085706   -0.061188
      9          6           0        3.990485    0.682078   -0.276213
     10          1           0       -2.918484   -1.120852   -1.314327
     11          1           0       -3.294435   -0.819321    0.382407
     12          1           0       -3.825645    0.333753   -0.859711
     13          1           0       -1.420356    0.891973   -1.355558
     14          1           0       -0.913631    2.151565    0.723536
     15          1           0       -2.634391    2.285921    0.314815
     16          1           0       -2.118760    1.200510    1.614575
     17          1           0        1.670929   -0.898848    1.282798
     18          1           0        1.756025   -1.624224   -0.318065
     19          1           0        4.891211    1.211233   -0.467796
 ---------------------------------------------------------------------

 SCF Done:  E(RB3LYP) =  -423.186308915     A.U. after    1 cycles

 The electronic state is 1-A.
 Alpha  occ. eigenvalues --  -19.18735 -19.12921 -10.30473 -10.26679 -10.20438
 Alpha  occ. eigenvalues --  -10.19264 -10.18643 -10.18519 -10.17693  -1.10544
 Alpha  occ. eigenvalues --   -1.01707  -0.81370  -0.78284  -0.71587  -0.68982
 Alpha  occ. eigenvalues --   -0.63278  -0.56179  -0.54269  -0.50889  -0.49412
 Alpha  occ. eigenvalues --   -0.48499  -0.45470  -0.44643  -0.42084  -0.39391
 Alpha  occ. eigenvalues --   -0.38594  -0.38302  -0.35595  -0.34818  -0.34150
 Alpha  occ. eigenvalues --   -0.31053  -0.29179  -0.27454  -0.26708
 Alpha virt. eigenvalues --    0.01061   0.02462   0.04823   0.09026   0.11525
 Alpha virt. eigenvalues --    0.12264   0.13775   0.14581   0.15223   0.16786
 Alpha virt. eigenvalues --    0.17460   0.18173   0.18927   0.19541   0.22124

 Mulliken charges:
               1
     1  C   -0.383741
     2  C   -0.085570
     3  C   -0.392714
     4  C    0.463582
     5  O   -0.357682
     6  O   -0.248921
     7  C   -0.231145
     8  C    0.286706
     9  C   -0.413769
    10  H    0.122731
    11  H    0.134257
    12  H    0.110581
    13  H    0.103652
    14  H    0.133723
    15  H    0.121075
    16  H    0.127542
    17  H    0.152215
    18  H    0.152455
    19  H    0.205022
 Sum of Mulliken charges =   0.00000

 Dipole moment (field-independent basis, Debye):
    X=              0.3080    Y=              1.3933    Z=             -0.4718  Tot=              1.5029
 Quadrupole moment (field-independent basis, Debye-Ang):
   XX=            -46.1846   YY=            -55.6057   ZZ=            -52.9450
   XY=             -1.5098   XZ=              0.6886   YZ=              1.1718

  Exact polarizability: 106.803   9.202  72.278  -2.475  -2.499  58.463
 Approx polarizability: 135.291  21.634 112.869  -7.874 -10.495  88.924

                      1                      2                      3
                      A                      A                      A
 Frequencies --      4.5578                42.1594               102.2678
 Red. masses --      2.9843                 5.9332                 3.8216
 Frc consts  --      0.0000                 0.0062                 0.0235
 IR Inten    --      0.0155                 0.8095                 0.9069

                      4                      5                      6
                      A                      A                      A
 Frequencies --    131.1441               202.0272               218.3396
 Red. masses --      2.8011                 1.0395                 2.3232
 Frc consts  --      0.0284                 0.0250                 0.0653
 IR Inten    --      1.7936                 0.1046                 0.2084

                      7                      8                      9
                      A                      A                      A
 Frequencies --    240.6051               284.0219               318.0309
 Red. masses --      1.4606                 3.0197                 3.8166
 Frc consts  --      0.0498                 0.1435                 0.2274
 IR Inten    --      1.6743                 4.3000                13.0804

                     10                     11                     12
                      A                      A                      A
 Frequencies --    328.1791               331.8599               430.2546
 Red. masses --      3.0929                 3.6143                 3.1628
 Frc consts  --      0.1963                 0.2345                 0.3450
 IR Inten    --      4.9111                 1.2842                 0.7246

                     13                     14                     15
                      A                      A                      A
 Frequencies --    547.7589               617.2652               645.3809
 Red. masses --      5.8543                 1.2022                 3.6315
 Frc consts  --      1.0349                 0.2699                 0.8912
 IR Inten    --      1.5648                44.5963                 3.6151

                     16                     17                     18
                      A                      A                      A
 Frequencies --    683.9112               758.6590               848.2037
 Red. masses --      1.2523                 4.4411                 3.9751
 Frc consts  --      0.3451                 1.5060                 1.6850
 IR Inten    --     33.5190                 5.3642                 1.6788

                     19                     20                     21
                      A                      A                      A
 Frequencies --    923.4630               934.8232               972.5985
 Red. masses --      2.9968                 1.1744                 1.4617
 Frc consts  --      1.5057                 0.6047                 0.8147
 IR Inten    --      9.4303                 1.4959                 3.0735

                     22                     23                     24
                      A                      A                      A
 Frequencies --    981.7264              1013.7397              1027.8087
 Red. masses --      6.1080                 1.6801                 3.6180
 Frc consts  --      3.4684                 1.0173                 2.2519
 IR Inten    --     25.8965                 2.5089                40.6881

                     25                     26                     27
                      A                      A                      A
 Frequencies --   1117.9264              1129.5710              1180.1922
 Red. masses --      1.6013                 2.5890                 2.8588
 Frc consts  --      1.1791                 1.9463                 2.3460
 IR Inten    --      4.7381                49.6647               281.3469

                     28                     29                     30
                      A                      A                      A
 Frequencies --   1212.1527              1248.4386              1327.1979
 Red. masses --      2.1721                 1.0697                 1.3646
 Frc consts  --      1.8804                 0.9823                 1.4162
 IR Inten    --    203.5859                 2.2331                10.6637

                     31                     32                     33
                      A                      A                      A
 Frequencies --   1365.2760              1393.1586              1405.3740
 Red. masses --      1.5207                 1.3136                 1.4688
 Frc consts  --      1.6701                 1.5022                 1.7092
 IR Inten    --     47.9558                 3.9415                 7.0159

                     34                     35                     36
                      A                      A                      A
 Frequencies --   1422.3362              1486.2249              1487.2279
 Red. masses --      1.2485                 1.0449                 1.0611
 Frc consts  --      1.4881                 1.3599                 1.3828
 IR Inten    --      9.4862                 1.9121                 2.9421

                     37                     38                     39
                      A                      A                      A
 Frequencies --   1488.8604              1499.9334              1513.0940
 Red. masses --      1.0567                 1.0448                 1.0669
 Frc consts  --      1.3801                 1.3849                 1.4391
 IR Inten    --      4.2372                 7.7103                13.4587

                     40                     41                     42
                      A                      A                      A
 Frequencies --   1814.6009              2251.2005              3038.8566
 Red. masses --     11.8817                 5.8929                 1.0397
 Frc consts  --     23.0511                17.5957                 5.6569
 IR Inten    --    205.1393                 1.6488                14.7965

                     43                     44                     45
                      A                      A                      A
 Frequencies --   3044.8345              3045.8172              3046.4588
 Red. masses --      1.0638                 1.0696                 1.0360
 Frc consts  --      5.8107                 5.8463                 5.6649
 IR Inten    --     13.0222                11.2781                18.5813

                     46                     47                     48
                      A                      A                      A
 Frequencies --   3078.8223              3109.1826              3116.8280
 Red. masses --      1.1049                 1.1018                 1.1020
 Frc consts  --      6.1709                 6.2753                 6.3076
 IR Inten    --      7.7308                13.2415                25.4094

                     49                     50                     51
                      A                      A                      A
 Frequencies --   3125.5429              3127.0325              3505.5759
 Red. masses --      1.1015                 1.1018                 1.1642
 Frc consts  --      6.3401                 6.3475                 8.4294
 IR Inten    --     22.6701                20.9507                66.3831

 - Thermochemistry -
 -------------------
 Temperature   298.150 Kelvin.  Pressure   1.00000 Atm.
 Atom     1 has atomic number  6 and mass  12.00000

 Molecular mass:   126.06808 amu.
 Principal axes and moments of inertia in atomic units:
                           1         2         3
     Eigenvalues --   474.533792292.839792578.61651
           X            0.99993  -0.01139   0.00334
           Y            0.01128   0.99940   0.03287
           Z           -0.00371  -0.03283   0.99945
 This molecule is an asymmetric top.
 Rotational symmetry number  1.
 Warning -- assumption of classical behavior for rotation
           may cause significant error
 Rotational temperatures (Kelvin)      0.18252     0.03778     0.03359
 Rotational constants (GHZ):           3.80319     0.78712     0.69989
 Zero-point vibrational energy     407750.2 (Joules/Mol)
                                   97.45463 (Kcal/Mol)
 Warning -- explicit consideration of  14 degrees of freedom as
           vibrations may cause significant error
 Vibrational temperatures:      6.56    60.66   147.14   188.69   290.67
          (Kelvin)            314.14   346.18   408.64   457.57   472.18
                              477.47   619.04   788.10   888.11   928.56
                              983.99  1091.54  1220.37  1328.66  1345.00
                             1399.35  1412.48  1458.54  1478.79  1608.44
                             1625.20  1698.03  1744.02  1796.22  1909.54
                             1964.33  2004.44  2022.02  2046.42  2138.34
                             2139.79  2142.14  2158.07  2177.00  2610.80
                             3238.97  4372.23  4380.83  4382.25  4383.17
                             4429.73  4473.41  4484.41  4496.95  4499.10
                             5043.74

 Zero-point correction=                           0.155304 (Hartree/Particle)
 Thermal correction to Energy=                    0.165966
 Thermal correction to Enthalpy=                  0.166910
 Thermal correction to Gibbs Free Energy=         0.116501
 Sum of electronic and zero-point Energies=           -423.031005
 Sum of electronic and thermal Energies=              -423.020343
 Sum of electronic and thermal Enthalpies=            -423.019399
 Sum of electronic and thermal Free Energies=         -423.069808

                     E (Thermal)             CV                S
                      KCal/Mol        Cal/Mol-Kelvin    Cal/Mol-Kelvin
 Total                  104.145             36.964            106.095
 Electronic               0.000              0.000              0.000
 Translational            0.889              2.981             40.409
 Rotational               0.889              2.981             29.419
 Vibrational            102.368             31.003             36.267
 Vibration     1          0.593              1.987              9.572
 Vibration     2          0.595              1.980              5.155
 Vibration     3          0.604              1.947              3.411
 Vibration     4          0.612              1.922              2.929
 Vibration     5          0.639              1.837              2.115
 Vibration     6          0.646              1.813              1.973
 Vibration     7          0.658              1.778              1.798
 Vibration     8          0.682              1.703              1.509
 Vibration     9          0.704              1.639              1.320
 Vibration    10          0.711              1.619              1.269
 Vibration    11          0.714              1.612              1.251
 Vibration    12          0.791              1.404              0.858
 Vibration    13          0.903              1.145              0.549
 Vibration    14          0.977              0.995              0.421

 Normal termination of Gaussian 09 at Mon Jan 27 16:16:13 2020.
