 Gaussian 09, Revision D.01,
 Gaussian 09:  ES64L-G09RevD.01 24-Apr-2013

 -----------------------------
 # b3lyp 6-31G(2df,p) opt Freq
 -----------------------------

 -----
 titel
 -----
 Symbolic Z-matrix:
 Charge =  0 Multiplicity = 1

 SCF Done:  E(RB3LYP) =  -423.153318277     A.U. after   14 cycles
 Optimization completed.
    -- Stationary point found.
 Normal termination of Gaussian 09 at Tue Jan 28 00:50:33 2020.

 ----------------------------------------------------------------------
 #N Geom=AllCheck Guess=TCheck SCRF=Check GenChk RB3LYP/6-31G(2df,p) Fr
 eq
 ----------------------------------------------------------------------

 Structure from the checkpoint file:  "/scratch/puck/g09_b1267622-0361-4f4c-9a7f-1964dee4bec3/Gau-38713.chk"
 -----
 titel
 -----
 Charge =  0 Multiplicity = 1

                         Standard orientation:
 ---------------------------------------------------------------------
 Center     Atomic      Atomic             Coordinates (Angstroms)
 Number     Number       Type             X           Y           Z
 ---------------------------------------------------------------------
      1          6           0        2.436386   -1.272574   -0.109610
      2          6           0        1.021926   -0.851948    0.245769
      3          6           0        0.899859    0.478364    1.024014
      4          6           0       -0.284641    1.219408    0.373515
      5          8           0        0.230979    2.366486   -0.282501
      6          6           0       -0.827119    0.168701   -0.644605
      7          8           0        0.291596   -0.639469   -0.968267
      8          6           0       -1.940077   -0.611496   -0.087874
      9          6           0       -2.848861   -1.240466    0.385696
     10          1           0        2.427652   -2.191141   -0.702789
     11          1           0        2.931193   -0.488367   -0.690567
     12          1           0        3.018337   -1.455438    0.799108
     13          1           0        0.528824   -1.654739    0.815420
     14          1           0        0.747601    0.313570    2.092494
     15          1           0        1.791605    1.096476    0.894744
     16          1           0       -1.059665    1.497712    1.097345
     17          1           0       -0.508724    2.866757   -0.642265
     18          1           0       -1.147583    0.660845   -1.569255
     19          1           0       -3.654683   -1.801739    0.790473
 ---------------------------------------------------------------------

 SCF Done:  E(RB3LYP) =  -423.153318277     A.U. after    1 cycles

 The electronic state is 1-A.
 Alpha  occ. eigenvalues --  -19.14284 -19.13948 -10.25127 -10.24066 -10.23005
 Alpha  occ. eigenvalues --  -10.18333 -10.18148 -10.17918 -10.17355  -1.04589
 Alpha  occ. eigenvalues --   -1.01984  -0.78527  -0.77795  -0.73370  -0.67984
 Alpha  occ. eigenvalues --   -0.60786  -0.58384  -0.53455  -0.51761  -0.49741
 Alpha  occ. eigenvalues --   -0.48476  -0.47707  -0.42725  -0.38993  -0.38811
 Alpha  occ. eigenvalues --   -0.37825  -0.36667  -0.35131  -0.33789  -0.32328
 Alpha  occ. eigenvalues --   -0.28998  -0.27601  -0.26187  -0.25553
 Alpha virt. eigenvalues --    0.03690   0.04718   0.07288   0.10099   0.12159
 Alpha virt. eigenvalues --    0.12389   0.12996   0.14893   0.15960   0.16118
 Alpha virt. eigenvalues --    0.17367   0.18011   0.19653   0.20340   0.23527

 Mulliken charges:
               1
     1  C   -0.410395
     2  C    0.156230
     3  C   -0.257991
     4  C    0.120268
     5  O   -0.432859
     6  C   -0.140315
     7  O   -0.244402
     8  C    0.344940
     9  C   -0.481279
    10  H    0.126562
    11  H    0.127850
    12  H    0.116094
    13  H    0.075874
    14  H    0.107759
    15  H    0.123693
    16  H    0.082021
    17  H    0.283024
    18  H    0.103169
    19  H    0.199757
 Sum of Mulliken charges =   0.00000

 Dipole moment (field-independent basis, Debye):
    X=             -1.0461    Y=              0.4842    Z=              1.2179  Tot=              1.6769
 Quadrupole moment (field-independent basis, Debye-Ang):
   XX=            -49.1662   YY=            -51.4131   ZZ=            -53.3384
   XY=             -2.9088   XZ=              0.5872   YZ=             -3.4242

  Exact polarizability:  91.852   5.855  75.650  -3.668  -5.374  63.582
 Approx polarizability: 125.628  15.740 108.081 -11.517 -12.090 100.090

                      1                      2                      3
                      A                      A                      A
 Frequencies --     19.3942                95.0983               147.2521
 Red. masses --      2.8087                 3.8517                 4.0565
 Frc consts  --      0.0006                 0.0205                 0.0518
 IR Inten    --      0.5731                 0.6948                 0.3643

                      4                      5                      6
                      A                      A                      A
 Frequencies --    224.5362               248.1599               304.8469
 Red. masses --      1.8244                 1.6454                 1.7139
 Frc consts  --      0.0542                 0.0597                 0.0938
 IR Inten    --      1.7472                 1.0935                35.5704

                      7                      8                      9
                      A                      A                      A
 Frequencies --    324.1021               369.6942               393.2509
 Red. masses --      1.3956                 5.1434                 3.4566
 Frc consts  --      0.0864                 0.4142                 0.3149
 IR Inten    --     70.0209                11.3635                 8.1443

                     10                     11                     12
                      A                      A                      A
 Frequencies --    433.1599               527.0766               567.1321
 Red. masses --      2.7711                 4.7630                 4.7521
 Frc consts  --      0.3063                 0.7796                 0.9005
 IR Inten    --      1.3075                 4.3983                15.2201

                     13                     14                     15
                      A                      A                      A
 Frequencies --    627.3280               637.7868               673.9415
 Red. masses --      3.5574                 1.2551                 1.2634
 Frc consts  --      0.8248                 0.3008                 0.3381
 IR Inten    --      2.7399                39.6953                36.0713

                     16                     17                     18
                      A                      A                      A
 Frequencies --    783.7647               830.8162               880.7002
 Red. masses --      5.2231                 3.4978                 1.9203
 Frc consts  --      1.8904                 1.4225                 0.8776
 IR Inten    --      9.6283                 5.6709                 6.7562

                     19                     20                     21
                      A                      A                      A
 Frequencies --    905.3324               937.7021               975.5519
 Red. masses --      1.9632                 2.2835                 4.0853
 Frc consts  --      0.9481                 1.1830                 2.2908
 IR Inten    --      8.4803                18.6319                19.4218

                     22                     23                     24
                      A                      A                      A
 Frequencies --    993.8776              1040.8486              1057.4571
 Red. masses --      2.3288                 2.3305                 2.7357
 Frc consts  --      1.3553                 1.4875                 1.8024
 IR Inten    --      6.5567                38.7157                54.3078

                     25                     26                     27
                      A                      A                      A
 Frequencies --   1105.2983              1148.4065              1154.4441
 Red. masses --      4.1408                 2.4151                 1.9235
 Frc consts  --      2.9805                 1.8766                 1.5104
 IR Inten    --    104.9102                35.3447                 7.8080

                     28                     29                     30
                      A                      A                      A
 Frequencies --   1209.9027              1236.2955              1271.8079
 Red. masses --      1.2663                 1.3504                 1.3295
 Frc consts  --      1.0922                 1.2161                 1.2670
 IR Inten    --     25.0757                 7.0836                22.4243

                     31                     32                     33
                      A                      A                      A
 Frequencies --   1291.1187              1320.9722              1347.1455
 Red. masses --      1.2536                 1.3853                 1.2210
 Frc consts  --      1.2312                 1.4242                 1.3055
 IR Inten    --     18.5756                36.7704                 4.0247

                     34                     35                     36
                      A                      A                      A
 Frequencies --   1381.2853              1390.9275              1413.8326
 Red. masses --      1.3185                 1.3212                 1.4279
 Frc consts  --      1.4821                 1.5060                 1.6817
 IR Inten    --      8.7187                 7.2393                15.6448

                     37                     38                     39
                      A                      A                      A
 Frequencies --   1426.4530              1483.5297              1485.1105
 Red. masses --      1.3793                 1.0935                 1.0541
 Frc consts  --      1.6536                 1.4179                 1.3698
 IR Inten    --      9.4248                 3.1121                 2.9896

                     40                     41                     42
                      A                      A                      A
 Frequencies --   1500.4286              2227.8880              2980.9884
 Red. masses --      1.0530                 5.9004                 1.0832
 Frc consts  --      1.3967                17.2550                 5.6715
 IR Inten    --      2.6773                 0.7271                37.7429

                     43                     44                     45
                      A                      A                      A
 Frequencies --   3032.6250              3041.1617              3053.5846
 Red. masses --      1.0857                 1.0347                 1.0841
 Frc consts  --      5.8832                 5.6385                 5.9556
 IR Inten    --     34.8608                18.5101                22.1268

                     46                     47                     48
                      A                      A                      A
 Frequencies --   3073.3941              3115.5034              3119.5531
 Red. masses --      1.0603                 1.1015                 1.1032
 Frc consts  --      5.9011                 6.2995                 6.3253
 IR Inten    --     12.5774                18.0506                17.4170

                     49                     50                     51
                      A                      A                      A
 Frequencies --   3125.4874              3501.8215              3814.5405
 Red. masses --      1.1051                 1.1621                 1.0661
 Frc consts  --      6.3602                 8.3965                 9.1401
 IR Inten    --     21.3734                63.1983                20.1613

 - Thermochemistry -
 -------------------
 Temperature   298.150 Kelvin.  Pressure   1.00000 Atm.
 Atom     1 has atomic number  6 and mass  12.00000

 Molecular mass:   126.06808 amu.
 Principal axes and moments of inertia in atomic units:
                           1         2         3
     Eigenvalues --   869.977331222.049561731.84949
           X            0.99744  -0.07140   0.00228
           Y            0.07142   0.99738  -0.01177
           Z           -0.00143   0.01190   0.99993
 This molecule is an asymmetric top.
 Rotational symmetry number  1.
 Warning -- assumption of classical behavior for rotation
           may cause significant error
 Rotational temperatures (Kelvin)      0.09956     0.07088     0.05001
 Rotational constants (GHZ):           2.07447     1.47682     1.04209
 Zero-point vibrational energy     414220.8 (Joules/Mol)
                                   99.00116 (Kcal/Mol)
 Warning -- explicit consideration of  12 degrees of freedom as
           vibrations may cause significant error
 Vibrational temperatures:     27.90   136.83   211.86   323.06   357.05
          (Kelvin)            438.61   466.31   531.91   565.80   623.22
                              758.34   815.98   902.58   917.63   969.65
                             1127.66  1195.36  1267.13  1302.57  1349.14
                             1403.60  1429.97  1497.55  1521.44  1590.28
                             1652.30  1660.99  1740.78  1778.75  1829.85
                             1857.63  1900.58  1938.24  1987.36  2001.23
                             2034.19  2052.35  2134.47  2136.74  2158.78
                             3205.43  4288.97  4363.27  4375.55  4393.42
                             4421.92  4482.51  4488.34  4496.87  5038.33
                             5488.27

 Zero-point correction=                           0.157768 (Hartree/Particle)
 Thermal correction to Energy=                    0.167073
 Thermal correction to Enthalpy=                  0.168018
 Thermal correction to Gibbs Free Energy=         0.122652
 Sum of electronic and zero-point Energies=           -422.995550
 Sum of electronic and thermal Energies=              -422.986245
 Sum of electronic and thermal Enthalpies=            -422.985301
 Sum of electronic and thermal Free Energies=         -423.030666

                     E (Thermal)             CV                S
                      KCal/Mol        Cal/Mol-Kelvin    Cal/Mol-Kelvin
 Total                  104.840             34.747             95.480
 Electronic               0.000              0.000              0.000
 Translational            0.889              2.981             40.409
 Rotational               0.889              2.981             29.000
 Vibrational            103.063             28.786             26.071
 Vibration     1          0.593              1.986              6.695
 Vibration     2          0.603              1.953              3.552
 Vibration     3          0.617              1.906              2.707
 Vibration     4          0.649              1.804              1.922
 Vibration     5          0.662              1.766              1.744
 Vibration     6          0.696              1.665              1.390
 Vibration     7          0.709              1.627              1.289
 Vibration     8          0.742              1.534              1.081
 Vibration     9          0.760              1.485              0.988
 Vibration    10          0.794              1.398              0.848
 Vibration    11          0.882              1.190              0.594
 Vibration    12          0.923              1.102              0.510

 Optimization completed.
    -- Stationary point found.
 Normal termination of Gaussian 09 at Tue Jan 28 02:52:06 2020.
