 Gaussian 09, Revision D.01,
 Gaussian 09:  ES64L-G09RevD.01 24-Apr-2013

 -----------------------------
 # b3lyp 6-31G(2df,p) opt Freq
 -----------------------------

 -----
 titel
 -----
 Symbolic Z-matrix:
 Charge =  0 Multiplicity = 1

 SCF Done:  E(RB3LYP) =  -423.156456103     A.U. after   14 cycles
 Optimization completed.
    -- Stationary point found.
 Normal termination of Gaussian 09 at Mon Jan 27 17:28:25 2020.

 ----------------------------------------------------------------------
 #N Geom=AllCheck Guess=TCheck SCRF=Check GenChk RB3LYP/6-31G(2df,p) Fr
 eq
 ----------------------------------------------------------------------

 Structure from the checkpoint file:  "/scratch/puck/g09_87bee0fa-23e8-46c3-bdee-d040f14980fc/Gau-1856.chk"
 -----
 titel
 -----
 Charge =  0 Multiplicity = 1

                         Standard orientation:
 ---------------------------------------------------------------------
 Center     Atomic      Atomic             Coordinates (Angstroms)
 Number     Number       Type             X           Y           Z
 ---------------------------------------------------------------------
      1          6           0       -2.331298    1.472015    0.342119
      2          6           0       -1.599481    0.245749   -0.093209
      3          6           0       -2.183685   -1.101369   -0.389535
      4          6           0       -1.043105   -0.980321    0.604338
      5          6           0        0.239658   -0.683351   -0.162852
      6          6           0        1.412638   -0.197041    0.684190
      7          6           0        2.509064    0.420846   -0.159179
      8          8           0        3.675249    0.129227   -0.078393
      9          8           0       -0.396666    0.427646   -0.862933
     10          1           0       -3.179442    1.205321    0.979026
     11          1           0       -1.674845    2.149671    0.896678
     12          1           0       -2.719914    2.012540   -0.528435
     13          1           0       -3.151915   -1.303099    0.058479
     14          1           0       -2.020664   -1.560039   -1.361320
     15          1           0       -1.104198   -1.307047    1.634256
     16          1           0        0.567550   -1.454998   -0.871715
     17          1           0        1.042458    0.572427    1.375630
     18          1           0        1.836615   -1.018264    1.270956
     19          1           0        2.152934    1.189337   -0.878170
 ---------------------------------------------------------------------

 SCF Done:  E(RB3LYP) =  -423.156456103     A.U. after    1 cycles

 The electronic state is 1-A.
 Alpha  occ. eigenvalues --  -19.14462 -19.13687 -10.26864 -10.25243 -10.25143
 Alpha  occ. eigenvalues --  -10.20229 -10.19684 -10.19514 -10.19195  -1.05893
 Alpha  occ. eigenvalues --   -1.04299  -0.84121  -0.78749  -0.73853  -0.66017
 Alpha  occ. eigenvalues --   -0.60219  -0.57486  -0.53890  -0.49859  -0.49649
 Alpha  occ. eigenvalues --   -0.48904  -0.44553  -0.43331  -0.42197  -0.41723
 Alpha  occ. eigenvalues --   -0.40693  -0.39289  -0.37517  -0.36117  -0.34479
 Alpha  occ. eigenvalues --   -0.32452  -0.28221  -0.24985  -0.23949
 Alpha virt. eigenvalues --   -0.02163   0.07838   0.09751   0.10783   0.10864
 Alpha virt. eigenvalues --    0.11706   0.12862   0.14161   0.15290   0.15460
 Alpha virt. eigenvalues --    0.16868   0.17825   0.18464   0.20064   0.21151

 Mulliken charges:
               1
     1  C   -0.486408
     2  C    0.471927
     3  C   -0.345162
     4  C   -0.187942
     5  C    0.110180
     6  C   -0.293537
     7  C    0.152000
     8  O   -0.240885
     9  O   -0.336114
    10  H    0.126676
    11  H    0.126881
    12  H    0.136586
    13  H    0.116514
    14  H    0.116231
    15  H    0.101449
    16  H    0.090517
    17  H    0.122401
    18  H    0.119839
    19  H    0.098847
 Sum of Mulliken charges =   0.00000

 Dipole moment (field-independent basis, Debye):
    X=             -3.4817    Y=             -0.3354    Z=              1.3967  Tot=              3.7664
 Quadrupole moment (field-independent basis, Debye-Ang):
   XX=            -63.7441   YY=            -51.6931   ZZ=            -52.7493
   XY=             -0.0727   XZ=             -0.6780   YZ=              1.0291

  Exact polarizability:  96.415  -1.779  71.070   0.584  -1.144  63.705
 Approx polarizability: 128.036  -4.603 105.644   1.470  -4.893  98.867

                      1                      2                      3
                      A                      A                      A
 Frequencies --     54.9268                74.0217               134.5028
 Red. masses --      4.8513                 3.5308                 3.3303
 Frc consts  --      0.0086                 0.0114                 0.0355
 IR Inten    --      4.1858                 2.4931                 4.2035

                      4                      5                      6
                      A                      A                      A
 Frequencies --    174.9981               195.9810               308.3141
 Red. masses --      1.7786                 1.2481                 2.5486
 Frc consts  --      0.0321                 0.0282                 0.1427
 IR Inten    --      0.4206                 0.6046                 2.7605

                      7                      8                      9
                      A                      A                      A
 Frequencies --    327.6063               370.3340               423.1314
 Red. masses --      3.6956                 2.6002                 3.2440
 Frc consts  --      0.2337                 0.2101                 0.3422
 IR Inten    --      1.0000                 2.5111                 7.2736

                     10                     11                     12
                      A                      A                      A
 Frequencies --    468.0189               536.7457               641.8128
 Red. masses --      3.0660                 1.9350                 3.1627
 Frc consts  --      0.3957                 0.3285                 0.7676
 IR Inten    --      5.7495                10.3226                 3.8655

                     13                     14                     15
                      A                      A                      A
 Frequencies --    777.9311               806.1773               845.1292
 Red. masses --      2.5744                 2.1506                 2.2625
 Frc consts  --      0.9179                 0.8235                 0.9521
 IR Inten    --      0.7768                 1.7605                 8.6113

                     16                     17                     18
                      A                      A                      A
 Frequencies --    873.0668               891.2688               931.0326
 Red. masses --      1.8744                 2.6145                 1.9763
 Frc consts  --      0.8418                 1.2236                 1.0093
 IR Inten    --      2.0779                39.0417                 6.4134

                     19                     20                     21
                      A                      A                      A
 Frequencies --    969.2324               976.8905              1014.1233
 Red. masses --      1.6192                 1.7997                 1.7772
 Frc consts  --      0.8962                 1.0119                 1.0769
 IR Inten    --      0.0136                40.1736                38.5418

                     22                     23                     24
                      A                      A                      A
 Frequencies --   1052.2512              1055.5665              1075.1337
 Red. masses --      2.3817                 1.6366                 1.8060
 Frc consts  --      1.5537                 1.0744                 1.2300
 IR Inten    --     11.7603                25.5104                26.0004

                     25                     26                     27
                      A                      A                      A
 Frequencies --   1087.4602              1114.2573              1138.9002
 Red. masses --      2.3913                 1.7499                 2.3779
 Frc consts  --      1.6662                 1.2801                 1.8173
 IR Inten    --      9.6275                 4.4521                19.5507

                     28                     29                     30
                      A                      A                      A
 Frequencies --   1207.0134              1219.5870              1249.9441
 Red. masses --      1.8402                 1.3572                 1.5335
 Frc consts  --      1.5796                 1.1894                 1.4117
 IR Inten    --     31.5595                 6.1729                10.6162

                     31                     32                     33
                      A                      A                      A
 Frequencies --   1276.0872              1322.1886              1383.0595
 Red. masses --      1.6731                 1.6095                 1.4762
 Frc consts  --      1.6052                 1.6578                 1.6637
 IR Inten    --      3.5701                 8.1627                 5.9005

                     34                     35                     36
                      A                      A                      A
 Frequencies --   1388.0025              1422.3006              1426.4159
 Red. masses --      1.5308                 1.2125                 1.5877
 Frc consts  --      1.7376                 1.4452                 1.9034
 IR Inten    --     29.5137                 6.4594                 9.1024

                     37                     38                     39
                      A                      A                      A
 Frequencies --   1449.9536              1473.0253              1488.5208
 Red. masses --      1.0949                 1.0491                 1.3473
 Frc consts  --      1.3563                 1.3412                 1.7589
 IR Inten    --      5.1046                 3.4376                 9.1690

                     40                     41                     42
                      A                      A                      A
 Frequencies --   1501.7133              1830.2854              2910.1534
 Red. masses --      1.2964                 9.8385                 1.0836
 Frc consts  --      1.7226                19.4186                 5.4067
 IR Inten    --      6.5245               193.1406                66.6284

                     43                     44                     45
                      A                      A                      A
 Frequencies --   3017.1643              3027.4321              3033.9320
 Red. masses --      1.0748                 1.0712                 1.0358
 Frc consts  --      5.7647                 5.7845                 5.6173
 IR Inten    --     16.4787                33.9339                20.9326

                     46                     47                     48
                      A                      A                      A
 Frequencies --   3094.9999              3097.7328              3112.6258
 Red. masses --      1.0993                 1.1004                 1.0562
 Frc consts  --      6.2041                 6.2212                 6.0291
 IR Inten    --     15.9825                14.7742                 9.1862

                     49                     50                     51
                      A                      A                      A
 Frequencies --   3118.0276              3195.5752              3207.1734
 Red. masses --      1.0994                 1.0978                 1.1120
 Frc consts  --      6.2977                 6.6052                 6.7388
 IR Inten    --     18.1641                 5.1110                10.4142

 - Thermochemistry -
 -------------------
 Temperature   298.150 Kelvin.  Pressure   1.00000 Atm.
 Atom     1 has atomic number  6 and mass  12.00000

 Molecular mass:   126.06808 amu.
 Principal axes and moments of inertia in atomic units:
                           1         2         3
     Eigenvalues --   438.519562025.918122196.27721
           X            0.99996  -0.00832  -0.00268
           Y            0.00841   0.99935   0.03516
           Z            0.00239  -0.03519   0.99938
 This molecule is an asymmetric top.
 Rotational symmetry number  1.
 Warning -- assumption of classical behavior for rotation
           may cause significant error
 Rotational temperatures (Kelvin)      0.19751     0.04275     0.03944
 Rotational constants (GHZ):           4.11553     0.89083     0.82173
 Zero-point vibrational energy     411346.3 (Joules/Mol)
                                   98.31412 (Kcal/Mol)
 Warning -- explicit consideration of  11 degrees of freedom as
           vibrations may cause significant error
 Vibrational temperatures:     79.03   106.50   193.52   251.78   281.97
          (Kelvin)            443.59   471.35   532.83   608.79   673.37
                              772.26   923.42  1119.27  1159.91  1215.95
                             1256.15  1282.34  1339.55  1394.51  1405.53
                             1459.10  1513.95  1518.72  1546.88  1564.61
                             1603.17  1638.62  1736.62  1754.71  1798.39
                             1836.00  1902.33  1989.91  1997.02  2046.37
                             2052.29  2086.16  2119.35  2141.65  2160.63
                             2633.37  4187.06  4341.02  4355.79  4365.15
                             4453.01  4456.94  4478.37  4486.14  4597.71
                             4614.40

 Zero-point correction=                           0.156674 (Hartree/Particle)
 Thermal correction to Energy=                    0.165751
 Thermal correction to Enthalpy=                  0.166695
 Thermal correction to Gibbs Free Energy=         0.122086
 Sum of electronic and zero-point Energies=           -422.999783
 Sum of electronic and thermal Energies=              -422.990705
 Sum of electronic and thermal Enthalpies=            -422.989761
 Sum of electronic and thermal Free Energies=         -423.034370

                     E (Thermal)             CV                S
                      KCal/Mol        Cal/Mol-Kelvin    Cal/Mol-Kelvin
 Total                  104.010             33.184             93.887
 Electronic               0.000              0.000              0.000
 Translational            0.889              2.981             40.409
 Rotational               0.889              2.981             29.058
 Vibrational            102.233             27.222             24.420
 Vibration     1          0.596              1.976              4.632
 Vibration     2          0.599              1.966              4.043
 Vibration     3          0.613              1.919              2.881
 Vibration     4          0.627              1.873              2.381
 Vibration     5          0.636              1.845              2.171
 Vibration     6          0.698              1.658              1.371
 Vibration     7          0.711              1.620              1.272
 Vibration     8          0.742              1.533              1.078
 Vibration     9          0.785              1.420              0.881
 Vibration    10          0.825              1.321              0.743
 Vibration    11          0.892              1.169              0.572

 Normal termination of Gaussian 09 at Mon Jan 27 18:10:35 2020.
