 Gaussian 09, Revision D.01,
 Gaussian 09:  ES64L-G09RevD.01 24-Apr-2013

 -----------------------------
 # b3lyp 6-31G(2df,p) opt Freq
 -----------------------------

 -----
 titel
 -----
 Symbolic Z-matrix:
 Charge =  0 Multiplicity = 1

 SCF Done:  E(RB3LYP) =  -423.198075640     A.U. after   14 cycles
 Optimization completed.
    -- Stationary point found.
 Normal termination of Gaussian 09 at Mon Jan 27 22:54:34 2020.

 ----------------------------------------------------------------------
 #N Geom=AllCheck Guess=TCheck SCRF=Check GenChk RB3LYP/6-31G(2df,p) Fr
 eq
 ----------------------------------------------------------------------

 Structure from the checkpoint file:  "/scratch/puck/g09_ed087f96-b151-4228-bfad-e6f340a7c371/Gau-75169.chk"
 -----
 titel
 -----
 Charge =  0 Multiplicity = 1

                         Standard orientation:
 ---------------------------------------------------------------------
 Center     Atomic      Atomic             Coordinates (Angstroms)
 Number     Number       Type             X           Y           Z
 ---------------------------------------------------------------------
      1          6           0        1.741218    1.748379    0.363072
      2          6           0        0.787627    0.796330   -0.379206
      3          6           0       -0.629195    0.805700    0.164766
      4          6           0       -1.636201   -0.126267   -0.451954
      5          8           0       -3.000245    0.175768   -0.465825
      6          6           0       -0.938236   -0.557395    0.809645
      7          6           0        0.279900   -1.445527    0.671277
      8          6           0        1.269260   -0.661762   -0.208898
      9          8           0        2.283209   -1.106324   -0.679613
     10          1           0        1.733068    1.555700    1.441299
     11          1           0        2.763314    1.616701   -0.001156
     12          1           0        1.446180    2.790110    0.205235
     13          1           0        0.825314    1.031435   -1.449841
     14          1           0       -1.004129    1.718592    0.618787
     15          1           0       -1.374319   -0.626241   -1.382042
     16          1           0       -3.218526    0.663943    0.334482
     17          1           0       -1.530563   -0.609274    1.717346
     18          1           0        0.762422   -1.625819    1.640255
     19          1           0        0.087289   -2.427456    0.226922
 ---------------------------------------------------------------------

 SCF Done:  E(RB3LYP) =  -423.198075640     A.U. after    1 cycles

 The electronic state is 1-A.
 Alpha  occ. eigenvalues --  -19.15003 -19.13205 -10.26881 -10.24317 -10.20011
 Alpha  occ. eigenvalues --  -10.19814 -10.19627 -10.19624 -10.18709  -1.04338
 Alpha  occ. eigenvalues --   -1.03538  -0.88229  -0.77384  -0.73898  -0.65827
 Alpha  occ. eigenvalues --   -0.62019  -0.57423  -0.54094  -0.51319  -0.48978
 Alpha  occ. eigenvalues --   -0.45279  -0.43509  -0.42852  -0.42439  -0.40101
 Alpha  occ. eigenvalues --   -0.39972  -0.38554  -0.37041  -0.36046  -0.35423
 Alpha  occ. eigenvalues --   -0.34649  -0.27884  -0.24577  -0.24076
 Alpha virt. eigenvalues --   -0.02088   0.06964   0.08503   0.10462   0.11128
 Alpha virt. eigenvalues --    0.12703   0.13506   0.15994   0.16388   0.17119
 Alpha virt. eigenvalues --    0.17916   0.18876   0.19148   0.21216   0.22959

 Mulliken charges:
               1
     1  C   -0.405288
     2  C   -0.095535
     3  C   -0.119524
     4  C    0.134517
     5  O   -0.434392
     6  C   -0.117908
     7  C   -0.336477
     8  C    0.378899
     9  O   -0.314438
    10  H    0.118462
    11  H    0.139210
    12  H    0.120411
    13  H    0.104569
    14  H    0.081585
    15  H    0.108749
    16  H    0.284208
    17  H    0.085799
    18  H    0.133413
    19  H    0.133739
 Sum of Mulliken charges =   0.00000

 Dipole moment (field-independent basis, Debye):
    X=             -1.3269    Y=              1.5391    Z=              2.2216  Tot=              3.0109
 Quadrupole moment (field-independent basis, Debye-Ang):
   XX=            -62.1566   YY=            -52.1347   ZZ=            -51.9433
   XY=              1.8155   XZ=             -1.9608   YZ=             -0.5692

  Exact polarizability:  83.907  -0.378  75.710  -3.058  -0.578  64.926
 Approx polarizability: 116.467  -4.653 108.828  -6.125   0.609 102.969

                      1                      2                      3
                      A                      A                      A
 Frequencies --     50.7759               115.0739               157.3515
 Red. masses --      4.3239                 1.0442                 3.3968
 Frc consts  --      0.0066                 0.0081                 0.0496
 IR Inten    --      4.4291                85.2120                 1.0457

                      4                      5                      6
                      A                      A                      A
 Frequencies --    211.5798               226.4915               265.2959
 Red. masses --      2.7815                 1.1295                 2.1564
 Frc consts  --      0.0734                 0.0341                 0.0894
 IR Inten    --      1.8662                 0.1569                 1.4980

                      7                      8                      9
                      A                      A                      A
 Frequencies --    297.8016               376.6577               420.7605
 Red. masses --      5.0674                 2.9965                 4.5028
 Frc consts  --      0.2648                 0.2505                 0.4697
 IR Inten    --     11.3692                 5.1520                 4.0383

                     10                     11                     12
                      A                      A                      A
 Frequencies --    467.7794               569.4512               639.1082
 Red. masses --      4.1448                 2.5739                 3.9979
 Frc consts  --      0.5344                 0.4918                 0.9621
 IR Inten    --      4.1343                 1.3818                 1.2609

                     13                     14                     15
                      A                      A                      A
 Frequencies --    695.9336               726.8348               823.4466
 Red. masses --      4.1027                 3.2595                 3.3239
 Frc consts  --      1.1707                 1.0145                 1.3279
 IR Inten    --      2.0142                 3.7934                12.1107

                     16                     17                     18
                      A                      A                      A
 Frequencies --    827.1903               898.2198               937.4529
 Red. masses --      1.6879                 2.1776                 1.9603
 Frc consts  --      0.6805                 1.0352                 1.0150
 IR Inten    --      8.0631                29.6671                 5.0402

                     19                     20                     21
                      A                      A                      A
 Frequencies --    959.0284              1017.2470              1035.2422
 Red. masses --      2.0864                 1.7210                 1.2524
 Frc consts  --      1.1306                 1.0492                 0.7908
 IR Inten    --      6.5036                 8.3147                 9.6156

                     22                     23                     24
                      A                      A                      A
 Frequencies --   1042.2816              1083.2228              1086.6433
 Red. masses --      1.9620                 2.4422                 1.3549
 Frc consts  --      1.2558                 1.6884                 0.9426
 IR Inten    --     13.1253                13.8264                 3.6531

                     25                     26                     27
                      A                      A                      A
 Frequencies --   1110.3711              1129.5202              1165.5329
 Red. masses --      1.9176                 2.2864                 1.9016
 Frc consts  --      1.3930                 1.7187                 1.5220
 IR Inten    --     70.9006                40.3762                16.7986

                     28                     29                     30
                      A                      A                      A
 Frequencies --   1176.0929              1186.0913              1259.2681
 Red. masses --      1.7746                 1.4331                 1.5605
 Frc consts  --      1.4462                 1.1879                 1.4580
 IR Inten    --     34.0605                10.4974                14.6815

                     31                     32                     33
                      A                      A                      A
 Frequencies --   1277.9193              1298.2717              1302.8570
 Red. masses --      1.6944                 1.5020                 1.4585
 Frc consts  --      1.6303                 1.4916                 1.4587
 IR Inten    --      6.6467                 2.0858                 3.3455

                     34                     35                     36
                      A                      A                      A
 Frequencies --   1339.2282              1379.0301              1402.2997
 Red. masses --      1.6948                 1.4903                 1.2138
 Frc consts  --      1.7909                 1.6698                 1.4064
 IR Inten    --      5.1421                 8.4272                 4.9115

                     37                     38                     39
                      A                      A                      A
 Frequencies --   1448.9551              1465.3008              1496.4476
 Red. masses --      1.1846                 1.7637                 1.0459
 Frc consts  --      1.4654                 2.2312                 1.3799
 IR Inten    --     19.3046                66.2474                 6.8960

                     40                     41                     42
                      A                      A                      A
 Frequencies --   1498.9435              1842.4605              3033.9364
 Red. masses --      1.0513                12.6770                 1.0643
 Frc consts  --      1.3917                25.3549                 5.7720
 IR Inten    --      3.0299               185.7083                11.2329

                     43                     44                     45
                      A                      A                      A
 Frequencies --   3036.5494              3037.1744              3081.1769
 Red. masses --      1.0611                 1.0542                 1.0987
 Frc consts  --      5.7644                 5.7296                 6.1454
 IR Inten    --     15.2828                23.2838                 8.3182

                     46                     47                     48
                      A                      A                      A
 Frequencies --   3104.4937              3123.4046              3134.0661
 Red. masses --      1.1016                 1.1020                 1.0902
 Frc consts  --      6.2554                 6.3339                 6.3090
 IR Inten    --     24.2647                13.4881                 9.9139

                     49                     50                     51
                      A                      A                      A
 Frequencies --   3146.8188              3164.0435              3820.9352
 Red. masses --      1.0887                 1.0904                 1.0659
 Frc consts  --      6.3519                 6.4317                 9.1689
 IR Inten    --     12.4264                19.4477                21.7843

 - Thermochemistry -
 -------------------
 Temperature   298.150 Kelvin.  Pressure   1.00000 Atm.
 Atom     1 has atomic number  6 and mass  12.00000

 Molecular mass:   126.06808 amu.
 Principal axes and moments of inertia in atomic units:
                           1         2         3
     Eigenvalues --   627.858531471.610621791.92174
           X            0.99936   0.03585   0.00118
           Y           -0.03584   0.99933  -0.00743
           Z           -0.00144   0.00739   0.99997
 This molecule is an asymmetric top.
 Rotational symmetry number  1.
 Warning -- assumption of classical behavior for rotation
           may cause significant error
 Rotational temperatures (Kelvin)      0.13795     0.05886     0.04834
 Rotational constants (GHZ):           2.87444     1.22637     1.00715
 Zero-point vibrational energy     415056.7 (Joules/Mol)
                                   99.20093 (Kcal/Mol)
 Warning -- explicit consideration of  11 degrees of freedom as
           vibrations may cause significant error
 Vibrational temperatures:     73.06   165.57   226.39   304.42   325.87
          (Kelvin)            381.70   428.47   541.93   605.38   673.03
                              819.31   919.53  1001.29  1045.75  1184.75
                             1190.14  1292.34  1348.78  1379.83  1463.59
                             1489.48  1499.61  1558.51  1563.44  1597.57
                             1625.13  1676.94  1692.13  1706.52  1811.80
                             1838.64  1867.92  1874.52  1926.85  1984.11
                             2017.59  2084.72  2108.24  2153.05  2156.64
                             2650.89  4365.15  4368.91  4369.81  4433.12
                             4466.67  4493.88  4509.22  4527.56  4552.35
                             5497.47

 Zero-point correction=                           0.158087 (Hartree/Particle)
 Thermal correction to Energy=                    0.167081
 Thermal correction to Enthalpy=                  0.168025
 Thermal correction to Gibbs Free Energy=         0.124018
 Sum of electronic and zero-point Energies=           -423.039989
 Sum of electronic and thermal Energies=              -423.030994
 Sum of electronic and thermal Enthalpies=            -423.030050
 Sum of electronic and thermal Free Energies=         -423.074057

                     E (Thermal)             CV                S
                      KCal/Mol        Cal/Mol-Kelvin    Cal/Mol-Kelvin
 Total                  104.845             33.465             92.621
 Electronic               0.000              0.000              0.000
 Translational            0.889              2.981             40.409
 Rotational               0.889              2.981             28.895
 Vibrational            103.068             27.504             23.318
 Vibration     1          0.595              1.977              4.787
 Vibration     2          0.608              1.937              3.181
 Vibration     3          0.621              1.894              2.581
 Vibration     4          0.643              1.823              2.030
 Vibration     5          0.650              1.801              1.907
 Vibration     6          0.671              1.737              1.627
 Vibration     7          0.691              1.678              1.429
 Vibration     8          0.747              1.520              1.053
 Vibration     9          0.783              1.425              0.889
 Vibration    10          0.825              1.322              0.744
 Vibration    11          0.926              1.097              0.505

 Optimization completed.
    -- Stationary point found.
 Normal termination of Gaussian 09 at Mon Jan 27 23:39:33 2020.
