 Gaussian 09, Revision D.01,
 Gaussian 09:  ES64L-G09RevD.01 24-Apr-2013

 -----------------------------
 # b3lyp 6-31G(2df,p) opt Freq
 -----------------------------

 -----
 titel
 -----
 Symbolic Z-matrix:
 Charge =  0 Multiplicity = 1

 SCF Done:  E(RB3LYP) =  -423.166976384     A.U. after   14 cycles
 Optimization completed.
    -- Stationary point found.
 Normal termination of Gaussian 09 at Tue Jan 28 09:46:51 2020.

 ----------------------------------------------------------------------
 #N Geom=AllCheck Guess=TCheck SCRF=Check GenChk RB3LYP/6-31G(2df,p) Fr
 eq
 ----------------------------------------------------------------------

 Structure from the checkpoint file:  "/scratch/puck/g09_3ec8899c-38bf-428a-808f-b0d217b527fa/Gau-18591.chk"
 -----
 titel
 -----
 Charge =  0 Multiplicity = 1

                         Standard orientation:
 ---------------------------------------------------------------------
 Center     Atomic      Atomic             Coordinates (Angstroms)
 Number     Number       Type             X           Y           Z
 ---------------------------------------------------------------------
      1          8           0        2.193886   -0.938245   -0.787347
      2          6           0        1.961124    0.261730   -0.069372
      3          6           0        0.504564    0.426099    0.301234
      4          6           0       -0.023350    1.768794    0.729753
      5          6           0       -0.473217    1.140102   -0.587342
      6          6           0       -1.824288    0.542344   -0.713295
      7          6           0       -2.045755   -0.698830   -0.287521
      8          6           0       -0.936779   -1.497486    0.345274
      9          8           0        0.030535   -0.691899    1.019532
     10          1           0        1.952258   -1.653533   -0.188838
     11          1           0        2.571352    0.296147    0.847152
     12          1           0        2.281839    1.086871   -0.713471
     13          1           0       -0.734591    1.765110    1.547453
     14          1           0        0.638460    2.628284    0.689583
     15          1           0       -0.072927    1.594748   -1.490103
     16          1           0       -2.612783    1.137945   -1.164746
     17          1           0       -3.015441   -1.176787   -0.387264
     18          1           0       -1.332135   -2.173225    1.110401
     19          1           0       -0.445180   -2.120926   -0.420029
 ---------------------------------------------------------------------

 SCF Done:  E(RB3LYP) =  -423.166976384     A.U. after    1 cycles

 The electronic state is 1-A.
 Alpha  occ. eigenvalues --  -19.14642 -19.13131 -10.23650 -10.23495 -10.22536
 Alpha  occ. eigenvalues --  -10.19635 -10.18752 -10.18696 -10.18430  -1.04368
 Alpha  occ. eigenvalues --   -1.00909  -0.85933  -0.79223  -0.69330  -0.68439
 Alpha  occ. eigenvalues --   -0.62125  -0.58259  -0.52563  -0.50760  -0.49014
 Alpha  occ. eigenvalues --   -0.47735  -0.47694  -0.43256  -0.42429  -0.40646
 Alpha  occ. eigenvalues --   -0.40032  -0.36535  -0.35244  -0.34222  -0.32809
 Alpha  occ. eigenvalues --   -0.28608  -0.27013  -0.24860  -0.23697
 Alpha virt. eigenvalues --    0.01067   0.07902   0.09296   0.11162   0.12403
 Alpha virt. eigenvalues --    0.14180   0.14640   0.14936   0.16098   0.17341
 Alpha virt. eigenvalues --    0.18023   0.18346   0.20222   0.22007   0.22945

 Mulliken charges:
               1
     1  O   -0.419795
     2  C   -0.129253
     3  C    0.392097
     4  C   -0.341290
     5  C   -0.129239
     6  C   -0.070611
     7  C   -0.080870
     8  C   -0.136203
     9  O   -0.315238
    10  H    0.288426
    11  H    0.092884
    12  H    0.104945
    13  H    0.122604
    14  H    0.110311
    15  H    0.100008
    16  H    0.094955
    17  H    0.095603
    18  H    0.114723
    19  H    0.105942
 Sum of Mulliken charges =   0.00000

 Dipole moment (field-independent basis, Debye):
    X=             -1.1342    Y=              0.2817    Z=              0.2480  Tot=              1.1947
 Quadrupole moment (field-independent basis, Debye-Ang):
   XX=            -53.4035   YY=            -48.2138   ZZ=            -56.2934
   XY=              2.8206   XZ=              2.7990   YZ=             -1.9662

  Exact polarizability:  80.992   6.490  86.844   3.092  -2.803  61.442
 Approx polarizability: 106.593   9.073 134.490   3.317  -7.756  98.256

                      1                      2                      3
                      A                      A                      A
 Frequencies --     87.6148               121.3202               170.5138
 Red. masses --      3.2050                 5.1733                 2.1978
 Frc consts  --      0.0145                 0.0449                 0.0376
 IR Inten    --      2.8779                 7.5898                 6.7293

                      4                      5                      6
                      A                      A                      A
 Frequencies --    245.4903               308.6138               342.3435
 Red. masses --      3.3382                 2.0001                 2.4848
 Frc consts  --      0.1185                 0.1122                 0.1716
 IR Inten    --      9.6644                15.3174                 8.9111

                      7                      8                      9
                      A                      A                      A
 Frequencies --    410.9055               478.8985               498.1083
 Red. masses --      1.3036                 2.3612                 4.8019
 Frc consts  --      0.1297                 0.3191                 0.7020
 IR Inten    --     99.4844                13.2056                16.5321

                     10                     11                     12
                      A                      A                      A
 Frequencies --    518.8804               546.7124               712.3614
 Red. masses --      4.0693                 4.4514                 1.3479
 Frc consts  --      0.6455                 0.7839                 0.4030
 IR Inten    --      0.8782                 4.5846                24.1886

                     13                     14                     15
                      A                      A                      A
 Frequencies --    721.7323               798.3236               828.2635
 Red. masses --      3.9841                 1.9111                 2.8465
 Frc consts  --      1.2227                 0.7176                 1.1505
 IR Inten    --     13.4429                 3.9696                10.2436

                     16                     17                     18
                      A                      A                      A
 Frequencies --    880.7184               920.7067               939.9635
 Red. masses --      2.2016                 1.5559                 2.6144
 Frc consts  --      1.0062                 0.7771                 1.3609
 IR Inten    --      6.6078                 2.7254                 4.4811

                     19                     20                     21
                      A                      A                      A
 Frequencies --    981.4932               991.5842              1022.9432
 Red. masses --      1.5396                 2.0616                 2.7332
 Frc consts  --      0.8738                 1.1943                 1.6851
 IR Inten    --      7.2880                 3.2675                16.7369

                     22                     23                     24
                      A                      A                      A
 Frequencies --   1040.1277              1052.9318              1065.3134
 Red. masses --      1.3777                 1.8255                 2.4004
 Frc consts  --      0.8781                 1.1924                 1.6050
 IR Inten    --     10.3699                19.4040                60.9884

                     25                     26                     27
                      A                      A                      A
 Frequencies --   1080.4468              1109.4953              1124.7696
 Red. masses --      3.1912                 1.7490                 2.1291
 Frc consts  --      2.1948                 1.2685                 1.5870
 IR Inten    --     26.3688                46.0368                44.9778

                     28                     29                     30
                      A                      A                      A
 Frequencies --   1183.2440              1203.6023              1254.3550
 Red. masses --      1.3448                 1.1724                 2.5816
 Frc consts  --      1.1094                 1.0007                 2.3932
 IR Inten    --      5.0945                 5.2295                20.3507

                     31                     32                     33
                      A                      A                      A
 Frequencies --   1273.0419              1294.4479              1381.4259
 Red. masses --      1.1224                 1.5400                 1.2510
 Frc consts  --      1.0717                 1.5204                 1.4066
 IR Inten    --      3.5070                13.3404                 4.0141

                     34                     35                     36
                      A                      A                      A
 Frequencies --   1387.7399              1400.5445              1412.4509
 Red. masses --      1.4601                 1.4507                 1.4610
 Frc consts  --      1.6567                 1.6765                 1.7173
 IR Inten    --     14.3035                 9.1340                25.3966

                     37                     38                     39
                      A                      A                      A
 Frequencies --   1437.7283              1480.9794              1489.3084
 Red. masses --      1.5139                 1.6300                 1.1143
 Frc consts  --      1.8438                 2.1063                 1.4563
 IR Inten    --     18.4693                 3.6863                 0.7762

                     40                     41                     42
                      A                      A                      A
 Frequencies --   1494.0591              1716.8526              2965.8687
 Red. masses --      1.1063                 6.7626                 1.0711
 Frc consts  --      1.4549                11.7444                 5.5511
 IR Inten    --      0.9191                 5.0686                46.8519

                     43                     44                     45
                      A                      A                      A
 Frequencies --   2980.0823              3070.9324              3077.8632
 Red. masses --      1.0693                 1.0899                 1.0935
 Frc consts  --      5.5952                 6.0560                 6.1031
 IR Inten    --     62.5831                31.2948                21.2236

                     46                     47                     48
                      A                      A                      A
 Frequencies --   3129.2459              3137.1215              3159.6748
 Red. masses --      1.0552                 1.0864                 1.0846
 Frc consts  --      6.0881                 6.2996                 6.3795
 IR Inten    --     11.9147                10.9194                 9.6791

                     49                     50                     51
                      A                      A                      A
 Frequencies --   3184.3357              3227.5005              3810.3511
 Red. masses --      1.0983                 1.1165                 1.0655
 Frc consts  --      6.5618                 6.8527                 9.1146
 IR Inten    --     24.6634                 5.4337                19.1094

 - Thermochemistry -
 -------------------
 Temperature   298.150 Kelvin.  Pressure   1.00000 Atm.
 Atom     1 has atomic number  8 and mass  15.99491

 Molecular mass:   126.06808 amu.
 Principal axes and moments of inertia in atomic units:
                           1         2         3
     Eigenvalues --   709.709441144.857521454.20726
           X            0.99920   0.03818   0.01183
           Y           -0.03813   0.99926  -0.00438
           Z           -0.01199   0.00392   0.99992
 This molecule is an asymmetric top.
 Rotational symmetry number  1.
 Warning -- assumption of classical behavior for rotation
           may cause significant error
 Rotational temperatures (Kelvin)      0.12204     0.07565     0.05956
 Rotational constants (GHZ):           2.54293     1.57639     1.24105
 Zero-point vibrational energy     419610.1 (Joules/Mol)
                                  100.28922 (Kcal/Mol)
 Warning -- explicit consideration of  11 degrees of freedom as
           vibrations may cause significant error
 Vibrational temperatures:    126.06   174.55   245.33   353.21   444.03
          (Kelvin)            492.56   591.20   689.03   716.67   746.55
                              786.60  1024.93  1038.41  1148.61  1191.68
                             1267.16  1324.69  1352.40  1412.15  1426.67
                             1471.79  1496.51  1514.93  1532.75  1554.52
                             1596.31  1618.29  1702.42  1731.71  1804.73
                             1831.62  1862.42  1987.56  1996.65  2015.07
                             2032.20  2068.57  2130.80  2142.78  2149.62
                             2470.16  4267.22  4287.67  4418.38  4428.35
                             4502.28  4513.61  4546.06  4581.54  4643.65
                             5482.24

 Zero-point correction=                           0.159821 (Hartree/Particle)
 Thermal correction to Energy=                    0.168071
 Thermal correction to Enthalpy=                  0.169015
 Thermal correction to Gibbs Free Energy=         0.127036
 Sum of electronic and zero-point Energies=           -423.007155
 Sum of electronic and thermal Energies=              -422.998905
 Sum of electronic and thermal Enthalpies=            -422.997961
 Sum of electronic and thermal Free Energies=         -423.039940

                     E (Thermal)             CV                S
                      KCal/Mol        Cal/Mol-Kelvin    Cal/Mol-Kelvin
 Total                  105.466             32.032             88.353
 Electronic               0.000              0.000              0.000
 Translational            0.889              2.981             40.409
 Rotational               0.889              2.981             28.559
 Vibrational            103.689             26.070             19.385
 Vibration     1          0.601              1.958              3.713
 Vibration     2          0.609              1.931              3.079
 Vibration     3          0.626              1.879              2.430
 Vibration     4          0.660              1.770              1.763
 Vibration     5          0.698              1.657              1.370
 Vibration     6          0.721              1.591              1.201
 Vibration     7          0.775              1.447              0.923
 Vibration     8          0.835              1.297              0.713
 Vibration     9          0.854              1.254              0.663
 Vibration    10          0.874              1.208              0.613
 Vibration    11          0.902              1.147              0.551

 Normal termination of Gaussian 09 at Tue Jan 28 10:31:02 2020.
