 Gaussian 09, Revision D.01,
 Gaussian 09:  ES64L-G09RevD.01 24-Apr-2013

 -----------------------------
 # b3lyp 6-31G(2df,p) opt Freq
 -----------------------------

 -----
 titel
 -----
 Symbolic Z-matrix:
 Charge =  0 Multiplicity = 1

 SCF Done:  E(RB3LYP) =  -423.130657753     A.U. after   14 cycles
 SCF Done:  E(RB3LYP) =  -423.130657977     A.U. after    6 cycles
 SCF Done:  E(RB3LYP) =  -423.130658012     A.U. after    7 cycles
 Optimization completed.
    -- Stationary point found.
 Normal termination of Gaussian 09 at Tue Jan 28 03:09:04 2020.

 ----------------------------------------------------------------------
 #N Geom=AllCheck Guess=TCheck SCRF=Check GenChk RB3LYP/6-31G(2df,p) Fr
 eq
 ----------------------------------------------------------------------

 Structure from the checkpoint file:  "/scratch/puck/g09_9c08db96-d0d0-433b-b57f-d99020a5dcaa/Gau-89746.chk"
 -----
 titel
 -----
 Charge =  0 Multiplicity = 1

                         Standard orientation:
 ---------------------------------------------------------------------
 Center     Atomic      Atomic             Coordinates (Angstroms)
 Number     Number       Type             X           Y           Z
 ---------------------------------------------------------------------
      1          6           0       -2.449778    0.710460    0.377779
      2          6           0       -1.145314    0.027603    0.131430
      3          8           0       -0.688578   -0.072238   -1.236278
      4          6           0       -0.771234   -1.278648   -0.451682
      5          6           0        0.500626   -1.372236    0.423950
      6          6           0        1.797402   -0.763810   -0.176595
      7          6           0        1.426213    0.634083    0.434716
      8          8           0        1.309265    1.731454   -0.426458
      9          6           0        0.116437    0.015873    1.036652
     10          1           0       -3.190487    0.401356   -0.364677
     11          1           0       -2.828273    0.470205    1.376336
     12          1           0       -2.331197    1.798054    0.315804
     13          1           0       -1.373684   -2.075720   -0.875237
     14          1           0        0.571238   -2.265827    1.042710
     15          1           0        2.715237   -1.191953    0.233339
     16          1           0        1.858151   -0.771333   -1.266951
     17          1           0        2.124089    0.934809    1.221122
     18          1           0        0.724622    1.442209   -1.139332
     19          1           0       -0.081311    0.144526    2.101279
 ---------------------------------------------------------------------

 SCF Done:  E(RB3LYP) =  -423.130658012     A.U. after    1 cycles

 The electronic state is 1-A.
 Alpha  occ. eigenvalues --  -19.15935 -19.12085 -10.24736 -10.23993 -10.22630
 Alpha  occ. eigenvalues --  -10.19282 -10.19016 -10.18544 -10.17582  -1.08186
 Alpha  occ. eigenvalues --   -1.00670  -0.84125  -0.75467  -0.70659  -0.66630
 Alpha  occ. eigenvalues --   -0.61059  -0.57898  -0.52929  -0.51666  -0.48919
 Alpha  occ. eigenvalues --   -0.46805  -0.42904  -0.42762  -0.41608  -0.39818
 Alpha  occ. eigenvalues --   -0.39218  -0.38843  -0.36322  -0.33608  -0.32292
 Alpha  occ. eigenvalues --   -0.29409  -0.27060  -0.26126  -0.24188
 Alpha virt. eigenvalues --    0.06879   0.07883   0.09820   0.11225   0.11761
 Alpha virt. eigenvalues --    0.13605   0.13927   0.15449   0.16000   0.16385
 Alpha virt. eigenvalues --    0.17215   0.18372   0.19501   0.21273   0.22043

 Mulliken charges:
               1
     1  C   -0.504687
     2  C    0.412207
     3  O   -0.302175
     4  C   -0.056522
     5  C   -0.058355
     6  C   -0.280461
     7  C    0.146232
     8  O   -0.439591
     9  C   -0.148619
    10  H    0.134179
    11  H    0.127645
    12  H    0.139406
    13  H    0.102895
    14  H    0.074930
    15  H    0.100124
    16  H    0.106195
    17  H    0.085808
    18  H    0.293089
    19  H    0.067700
 Sum of Mulliken charges =   0.00000

 Dipole moment (field-independent basis, Debye):
    X=             -1.4468    Y=             -1.9794    Z=              1.3525  Tot=              2.8001
 Quadrupole moment (field-independent basis, Debye-Ang):
   XX=            -51.7550   YY=            -54.8134   ZZ=            -52.6344
   XY=             -2.8437   XZ=              0.3169   YZ=              0.5608

  Exact polarizability:  81.873  -3.067  73.779   1.175   2.189  66.677
 Approx polarizability: 106.236  -2.406 112.721   1.727   1.611 108.077

                      1                      2                      3
                      A                      A                      A
 Frequencies --    139.8538               169.0574               202.2452
 Red. masses --      3.3592                 3.3862                 1.0949
 Frc consts  --      0.0387                 0.0570                 0.0264
 IR Inten    --      1.7760                 1.6346                 0.3118

                      4                      5                      6
                      A                      A                      A
 Frequencies --    262.0117               331.3253               370.6475
 Red. masses --      3.1694                 3.3689                 3.5829
 Frc consts  --      0.1282                 0.2179                 0.2900
 IR Inten    --      1.9289                 1.3348                 3.7798

                      7                      8                      9
                      A                      A                      A
 Frequencies --    422.0430               500.8586               565.4712
 Red. masses --      2.3831                 2.5710                 4.4232
 Frc consts  --      0.2501                 0.3800                 0.8333
 IR Inten    --      2.9790                 2.6299                 4.6562

                     10                     11                     12
                      A                      A                      A
 Frequencies --    575.9167               684.8676               693.5787
 Red. masses --      1.2063                 3.5915                 4.6084
 Frc consts  --      0.2357                 0.9925                 1.3062
 IR Inten    --     97.9073                 4.5384                 3.7040

                     13                     14                     15
                      A                      A                      A
 Frequencies --    728.3820               783.9383               830.4566
 Red. masses --      2.8103                 2.5680                 2.5386
 Frc consts  --      0.8785                 0.9298                 1.0315
 IR Inten    --      2.0207                10.7642                 4.6146

                     16                     17                     18
                      A                      A                      A
 Frequencies --    859.6686               881.7514               908.1408
 Red. masses --      2.4773                 2.0374                 3.1610
 Frc consts  --      1.0787                 0.9333                 1.5360
 IR Inten    --     11.6301                 3.8575                 8.2478

                     19                     20                     21
                      A                      A                      A
 Frequencies --    948.5256               979.9777               990.3772
 Red. masses --      1.6214                 2.4278                 1.8657
 Frc consts  --      0.8595                 1.3737                 1.0782
 IR Inten    --      1.5007                 4.1311                 7.5990

                     22                     23                     24
                      A                      A                      A
 Frequencies --   1026.0550              1051.0013              1089.2710
 Red. masses --      2.1115                 2.1077                 1.6308
 Frc consts  --      1.3097                 1.3717                 1.1401
 IR Inten    --      3.5501                 4.1285                 0.3595

                     25                     26                     27
                      A                      A                      A
 Frequencies --   1093.3023              1112.7186              1152.6101
 Red. masses --      1.6929                 1.9441                 1.8742
 Frc consts  --      1.1922                 1.4182                 1.4670
 IR Inten    --     14.7568                29.3365               119.3895

                     28                     29                     30
                      A                      A                      A
 Frequencies --   1175.2722              1212.5239              1217.8949
 Red. masses --      1.5342                 1.9713                 1.6004
 Frc consts  --      1.2485                 1.7076                 1.3986
 IR Inten    --      1.5220                11.4465                 5.8670

                     31                     32                     33
                      A                      A                      A
 Frequencies --   1245.9447              1266.4655              1285.2730
 Red. masses --      1.4477                 1.5310                 1.4503
 Frc consts  --      1.3242                 1.4468                 1.4116
 IR Inten    --      9.2681                 7.9856                 0.6889

                     34                     35                     36
                      A                      A                      A
 Frequencies --   1297.2851              1333.6649              1402.2647
 Red. masses --      1.7218                 1.6063                 1.2889
 Frc consts  --      1.7073                 1.6834                 1.4932
 IR Inten    --      4.7899                 3.2178                 1.3746

                     37                     38                     39
                      A                      A                      A
 Frequencies --   1451.0643              1456.2503              1467.4676
 Red. masses --      1.5168                 1.6862                 1.2284
 Frc consts  --      1.8817                 2.1068                 1.5585
 IR Inten    --     60.7282                45.5905                 0.3088

                     40                     41                     42
                      A                      A                      A
 Frequencies --   1480.9907              1493.5937              3035.1051
 Red. masses --      1.1243                 1.1438                 1.0358
 Frc consts  --      1.4529                 1.5033                 5.6215
 IR Inten    --      6.7480                 2.6473                18.7854

                     43                     44                     45
                      A                      A                      A
 Frequencies --   3063.2429              3070.0734              3099.5432
 Red. masses --      1.0694                 1.0767                 1.0998
 Frc consts  --      5.9122                 5.9794                 6.2255
 IR Inten    --     20.2536                42.0182                12.5253

                     46                     47                     48
                      A                      A                      A
 Frequencies --   3107.9809              3119.4599              3121.4112
 Red. masses --      1.0884                 1.0988                 1.1016
 Frc consts  --      6.1944                 6.3000                 6.3241
 IR Inten    --     23.6686                 5.8198                11.1449

                     49                     50                     51
                      A                      A                      A
 Frequencies --   3128.4688              3170.2553              3762.4545
 Red. masses --      1.0979                 1.0942                 1.0646
 Frc consts  --      6.3310                 6.4793                 8.8796
 IR Inten    --     42.5573                25.3145                43.4959

 - Thermochemistry -
 -------------------
 Temperature   298.150 Kelvin.  Pressure   1.00000 Atm.
 Atom     1 has atomic number  6 and mass  12.00000

 Molecular mass:   126.06808 amu.
 Principal axes and moments of inertia in atomic units:
                           1         2         3
     Eigenvalues --   672.086661074.687381302.01656
           X            0.99812  -0.06028  -0.01094
           Y            0.06045   0.99803   0.01661
           Z            0.00992  -0.01725   0.99980
 This molecule is an asymmetric top.
 Rotational symmetry number  1.
 Warning -- assumption of classical behavior for rotation
           may cause significant error
 Rotational temperatures (Kelvin)      0.12887     0.08059     0.06652
 Rotational constants (GHZ):           2.68528     1.67932     1.38611
 Zero-point vibrational energy     417604.4 (Joules/Mol)
                                   99.80985 (Kcal/Mol)
 Warning -- explicit consideration of  10 degrees of freedom as
           vibrations may cause significant error
 Vibrational temperatures:    201.22   243.24   290.99   376.98   476.70
          (Kelvin)            533.28   607.23   720.62   813.59   828.61
                              985.37   997.90  1047.98  1127.91  1194.84
                             1236.87  1268.64  1306.61  1364.72  1409.97
                             1424.93  1476.26  1512.15  1567.22  1573.02
                             1600.95  1658.35  1690.95  1744.55  1752.28
                             1792.63  1822.16  1849.22  1866.50  1918.84
                             2017.54  2087.76  2095.22  2111.36  2130.81
                             2148.95  4366.83  4407.32  4417.15  4459.55
                             4471.69  4488.20  4491.01  4501.16  4561.28
                             5413.33

 Zero-point correction=                           0.159057 (Hartree/Particle)
 Thermal correction to Energy=                    0.166865
 Thermal correction to Enthalpy=                  0.167809
 Thermal correction to Gibbs Free Energy=         0.127202
 Sum of electronic and zero-point Energies=           -422.971601
 Sum of electronic and thermal Energies=              -422.963793
 Sum of electronic and thermal Enthalpies=            -422.962849
 Sum of electronic and thermal Free Energies=         -423.003456

                     E (Thermal)             CV                S
                      KCal/Mol        Cal/Mol-Kelvin    Cal/Mol-Kelvin
 Total                  104.709             31.562             85.465
 Electronic               0.000              0.000              0.000
 Translational            0.889              2.981             40.409
 Rotational               0.889              2.981             28.333
 Vibrational            102.932             25.600             16.724
 Vibration     1          0.615              1.913              2.806
 Vibration     2          0.625              1.881              2.446
 Vibration     3          0.639              1.837              2.113
 Vibration     4          0.669              1.742              1.648
 Vibration     5          0.714              1.613              1.254
 Vibration     6          0.743              1.532              1.077
 Vibration     7          0.784              1.422              0.885
 Vibration     8          0.856              1.248              0.656
 Vibration     9          0.921              1.106              0.513
 Vibration    10          0.932              1.083              0.493

 Optimization completed.
    -- Stationary point found.
 Normal termination of Gaussian 09 at Tue Jan 28 04:03:14 2020.
