 Gaussian 09, Revision D.01,
 Gaussian 09:  ES64L-G09RevD.01 24-Apr-2013

 -----------------------------
 # b3lyp 6-31G(2df,p) opt Freq
 -----------------------------

 -----
 titel
 -----
 Symbolic Z-matrix:
 Charge =  0 Multiplicity = 1

 SCF Done:  E(RB3LYP) =  -423.168326408     A.U. after   14 cycles
 Optimization completed.
    -- Stationary point found.
 Normal termination of Gaussian 09 at Mon Jan 27 14:12:46 2020.

 ----------------------------------------------------------------------
 #N Geom=AllCheck Guess=TCheck SCRF=Check GenChk RB3LYP/6-31G(2df,p) Fr
 eq
 ----------------------------------------------------------------------

 Structure from the checkpoint file:  "/scratch/puck/g09_0826a330-a27a-4d64-8cbb-1c21dfbcf878/Gau-5024.chk"
 -----
 titel
 -----
 Charge =  0 Multiplicity = 1

                         Standard orientation:
 ---------------------------------------------------------------------
 Center     Atomic      Atomic             Coordinates (Angstroms)
 Number     Number       Type             X           Y           Z
 ---------------------------------------------------------------------
      1          6           0       -2.641460    0.012681    0.369072
      2          6           0       -1.319555   -0.598900   -0.068480
      3          8           0       -1.247101   -1.779447   -0.344095
      4          6           0       -0.091635    0.257868   -0.127762
      5          6           0       -0.185466    1.641987   -0.773828
      6          6           0        0.013392    1.527418    0.700456
      7          6           0        1.165504   -0.525074   -0.396931
      8          6           0        2.101163   -0.902633    0.666427
      9          8           0        2.397980    0.177884   -0.228459
     10          1           0       -2.651414    0.104136    1.461534
     11          1           0       -2.815683    1.010254   -0.041792
     12          1           0       -3.449524   -0.657278    0.073273
     13          1           0        0.669427    1.931586   -1.374183
     14          1           0       -1.144427    1.967827   -1.158715
     15          1           0        1.001968    1.752230    1.082978
     16          1           0       -0.807957    1.775517    1.361884
     17          1           0        1.122849   -1.156887   -1.281714
     18          1           0        1.891615   -0.607973    1.693392
     19          1           0        2.724466   -1.786986    0.550047
 ---------------------------------------------------------------------

 SCF Done:  E(RB3LYP) =  -423.168326408     A.U. after    1 cycles

 The electronic state is 1-A.
 Alpha  occ. eigenvalues --  -19.15420 -19.12580 -10.27271 -10.23962 -10.23325
 Alpha  occ. eigenvalues --  -10.21269 -10.20445 -10.20260 -10.19238  -1.07292
 Alpha  occ. eigenvalues --   -1.03803  -0.87798  -0.74535  -0.70070  -0.65480
 Alpha  occ. eigenvalues --   -0.61746  -0.60547  -0.53989  -0.50344  -0.49497
 Alpha  occ. eigenvalues --   -0.48791  -0.44579  -0.43693  -0.42495  -0.40571
 Alpha  occ. eigenvalues --   -0.39075  -0.38051  -0.37467  -0.36924  -0.33248
 Alpha  occ. eigenvalues --   -0.31861  -0.28263  -0.27256  -0.24444
 Alpha virt. eigenvalues --   -0.01439   0.07716   0.09506   0.10603   0.11123
 Alpha virt. eigenvalues --    0.12177   0.12922   0.13742   0.15651   0.16417
 Alpha virt. eigenvalues --    0.16941   0.18540   0.19848   0.21097   0.22144

 Mulliken charges:
               1
     1  C   -0.496110
     2  C    0.333032
     3  O   -0.313234
     4  C    0.193965
     5  C   -0.299384
     6  C   -0.313480
     7  C    0.017929
     8  C   -0.174348
     9  O   -0.250367
    10  H    0.148109
    11  H    0.133668
    12  H    0.147269
    13  H    0.143851
    14  H    0.122829
    15  H    0.143190
    16  H    0.117828
    17  H    0.110510
    18  H    0.112081
    19  H    0.122661
 Sum of Mulliken charges =   0.00000

 Dipole moment (field-independent basis, Debye):
    X=             -1.1032    Y=              1.7067    Z=              1.1079  Tot=              2.3146
 Quadrupole moment (field-independent basis, Debye-Ang):
   XX=            -53.7931   YY=            -57.0217   ZZ=            -50.6784
   XY=             -6.3446   XZ=              0.6027   YZ=             -1.2714

  Exact polarizability:  82.617  -2.932  78.879   1.513   0.358  65.079
 Approx polarizability: 107.476   0.725 127.123   2.454   2.045 102.012

                      1                      2                      3
                      A                      A                      A
 Frequencies --     68.3885                80.4164               110.0121
 Red. masses --      3.9818                 3.5975                 1.0670
 Frc consts  --      0.0110                 0.0137                 0.0076
 IR Inten    --      3.1814                 3.5338                 0.1864

                      4                      5                      6
                      A                      A                      A
 Frequencies --    190.9598               220.6760               267.6045
 Red. masses --      4.2159                 3.2888                 3.0408
 Frc consts  --      0.0906                 0.0944                 0.1283
 IR Inten    --      8.6890                 0.8194                 0.7727

                      7                      8                      9
                      A                      A                      A
 Frequencies --    277.6746               364.8525               452.1886
 Red. masses --      2.2916                 4.3597                 4.4033
 Frc consts  --      0.1041                 0.3419                 0.5305
 IR Inten    --      0.5763                 0.2992                 2.6585

                     10                     11                     12
                      A                      A                      A
 Frequencies --    469.7329               562.8374               611.5921
 Red. masses --      2.9168                 3.8612                 2.5635
 Frc consts  --      0.3792                 0.7207                 0.5649
 IR Inten    --      3.1027                27.3967                 1.2151

                     13                     14                     15
                      A                      A                      A
 Frequencies --    661.7636               786.3681               813.9265
 Red. masses --      2.7342                 1.1432                 2.1330
 Frc consts  --      0.7055                 0.4165                 0.8325
 IR Inten    --      2.2891                 3.1651                 6.2887

                     16                     17                     18
                      A                      A                      A
 Frequencies --    858.1017               880.6970               913.8650
 Red. masses --      4.6540                 3.4814                 3.4220
 Frc consts  --      2.0191                 1.5910                 1.6838
 IR Inten    --      5.4694                24.3359                 5.7023

                     19                     20                     21
                      A                      A                      A
 Frequencies --    940.6359               959.5608              1009.3294
 Red. masses --      1.2377                 1.9815                 2.0025
 Frc consts  --      0.6452                 1.0750                 1.2020
 IR Inten    --      6.4762                40.7080                17.8713

                     22                     23                     24
                      A                      A                      A
 Frequencies --   1051.0154              1057.2855              1071.8534
 Red. masses --      1.8082                 1.3792                 1.6676
 Frc consts  --      1.1768                 0.9084                 1.1288
 IR Inten    --      2.0001                10.7438                 3.4487

                     25                     26                     27
                      A                      A                      A
 Frequencies --   1099.0907              1099.6437              1138.4281
 Red. masses --      1.2781                 1.3802                 1.9516
 Frc consts  --      0.9097                 0.9834                 1.4902
 IR Inten    --      4.4584                 3.0175                39.9310

                     28                     29                     30
                      A                      A                      A
 Frequencies --   1158.4404              1171.6785              1201.3487
 Red. masses --      1.4591                 1.3606                 1.2898
 Frc consts  --      1.1537                 1.1005                 1.0967
 IR Inten    --      9.4390                 3.5436                 0.2355

                     31                     32                     33
                      A                      A                      A
 Frequencies --   1278.8100              1324.7740              1333.2581
 Red. masses --      2.0189                 1.8712                 3.4349
 Frc consts  --      1.9452                 1.9349                 3.5974
 IR Inten    --     12.5085                 6.9464                37.3646

                     34                     35                     36
                      A                      A                      A
 Frequencies --   1387.1260              1437.0645              1450.1586
 Red. masses --      1.3651                 2.0986                 1.0865
 Frc consts  --      1.5476                 2.5535                 1.3462
 IR Inten    --     31.8324                30.1578                 5.6591

                     37                     38                     39
                      A                      A                      A
 Frequencies --   1469.4794              1477.5530              1494.5272
 Red. masses --      1.0642                 1.1064                 1.2519
 Frc consts  --      1.3539                 1.4231                 1.6475
 IR Inten    --      4.2677                 7.3004                 4.2885

                     40                     41                     42
                      A                      A                      A
 Frequencies --   1528.0008              1775.9190              3042.7679
 Red. masses --      1.3525                11.3653                 1.0398
 Frc consts  --      1.8605                21.1193                 5.6718
 IR Inten    --      4.5591               181.9693                 2.1906

                     43                     44                     45
                      A                      A                      A
 Frequencies --   3090.9799              3109.6336              3134.6360
 Red. masses --      1.0502                 1.0943                 1.0884
 Frc consts  --      5.9119                 6.2347                 6.3012
 IR Inten    --     23.1708                 7.4808                10.3969

                     46                     47                     48
                      A                      A                      A
 Frequencies --   3144.5470              3147.7243              3154.2881
 Red. masses --      1.0537                 1.0546                 1.1018
 Frc consts  --      6.1388                 6.1563                 6.4588
 IR Inten    --      9.7990                 7.3384                 9.0383

                     49                     50                     51
                      A                      A                      A
 Frequencies --   3180.7603              3228.6158              3242.2205
 Red. masses --      1.1194                 1.1180                 1.1164
 Frc consts  --      6.6729                 6.8662                 6.9143
 IR Inten    --     23.5243                 1.0268                 5.1221

 - Thermochemistry -
 -------------------
 Temperature   298.150 Kelvin.  Pressure   1.00000 Atm.
 Atom     1 has atomic number  6 and mass  12.00000

 Molecular mass:   126.06808 amu.
 Principal axes and moments of inertia in atomic units:
                           1         2         3
     Eigenvalues --   670.124001330.726461728.20608
           X            0.99885  -0.04788  -0.00115
           Y            0.04786   0.99881  -0.00882
           Z            0.00157   0.00875   0.99996
 This molecule is an asymmetric top.
 Rotational symmetry number  1.
 Warning -- assumption of classical behavior for rotation
           may cause significant error
 Rotational temperatures (Kelvin)      0.12925     0.06509     0.05012
 Rotational constants (GHZ):           2.69315     1.35621     1.04429
 Zero-point vibrational energy     412608.8 (Joules/Mol)
                                   98.61588 (Kcal/Mol)
 Warning -- explicit consideration of  12 degrees of freedom as
           vibrations may cause significant error
 Vibrational temperatures:     98.40   115.70   158.28   274.75   317.50
          (Kelvin)            385.02   399.51   524.94   650.60   675.84
                              809.80   879.94   952.13  1131.41  1171.06
                             1234.62  1267.12  1314.85  1353.36  1380.59
                             1452.20  1512.17  1521.20  1542.16  1581.34
                             1582.14  1637.94  1666.74  1685.78  1728.47
                             1839.92  1906.05  1918.26  1995.76  2067.61
                             2086.45  2114.25  2125.87  2150.29  2198.45
                             2555.15  4377.86  4447.23  4474.06  4510.04
                             4524.30  4528.87  4538.31  4576.40  4645.25
                             4664.83

 Zero-point correction=                           0.157154 (Hartree/Particle)
 Thermal correction to Energy=                    0.166349
 Thermal correction to Enthalpy=                  0.167293
 Thermal correction to Gibbs Free Energy=         0.122754
 Sum of electronic and zero-point Energies=           -423.011172
 Sum of electronic and thermal Energies=              -423.001977
 Sum of electronic and thermal Enthalpies=            -423.001033
 Sum of electronic and thermal Free Energies=         -423.045572

                     E (Thermal)             CV                S
                      KCal/Mol        Cal/Mol-Kelvin    Cal/Mol-Kelvin
 Total                  104.386             33.770             93.741
 Electronic               0.000              0.000              0.000
 Translational            0.889              2.981             40.409
 Rotational               0.889              2.981             28.823
 Vibrational            102.608             27.808             24.509
 Vibration     1          0.598              1.969              4.199
 Vibration     2          0.600              1.962              3.881
 Vibration     3          0.606              1.941              3.269
 Vibration     4          0.634              1.852              2.218
 Vibration     5          0.647              1.810              1.954
 Vibration     6          0.673              1.733              1.612
 Vibration     7          0.679              1.715              1.548
 Vibration     8          0.738              1.545              1.101
 Vibration     9          0.811              1.356              0.789
 Vibration    10          0.827              1.317              0.738
 Vibration    11          0.919              1.112              0.518
 Vibration    12          0.971              1.007              0.430

 Normal termination of Gaussian 09 at Mon Jan 27 16:01:25 2020.
