 Gaussian 09, Revision D.01,
 Gaussian 09:  ES64L-G09RevD.01 24-Apr-2013

 -----------------------------
 # b3lyp 6-31G(2df,p) opt Freq
 -----------------------------

 -----
 titel
 -----
 Symbolic Z-matrix:
 Charge =  0 Multiplicity = 1

 SCF Done:  E(RB3LYP) =  -423.127324315     A.U. after   14 cycles
 Optimization completed.
    -- Stationary point found.
 Normal termination of Gaussian 09 at Tue Jan 28 08:12:12 2020.

 ----------------------------------------------------------------------
 #N Geom=AllCheck Guess=TCheck SCRF=Check GenChk RB3LYP/6-31G(2df,p) Fr
 eq
 ----------------------------------------------------------------------

 Structure from the checkpoint file:  "/scratch/puck/g09_d5d36708-0ebf-4dce-b487-8f65a4c1c606/Gau-101960.chk"
 -----
 titel
 -----
 Charge =  0 Multiplicity = 1

                         Standard orientation:
 ---------------------------------------------------------------------
 Center     Atomic      Atomic             Coordinates (Angstroms)
 Number     Number       Type             X           Y           Z
 ---------------------------------------------------------------------
      1          8           0       -3.562439    0.286747    0.658570
      2          6           0       -2.921293   -0.269835   -0.482517
      3          6           0       -1.465353   -0.322546   -0.369952
      4          6           0       -0.265471   -0.309668   -0.247968
      5          6           0        1.167192   -0.295646   -0.120866
      6          6           0        1.859175    0.986374   -0.564124
      7          8           0        1.449785    2.122339    0.171924
      8          6           0        1.914127   -1.604801   -0.329380
      9          6           0        1.785209   -1.048264    1.056596
     10          1           0       -3.127259    1.124794    0.847512
     11          1           0       -3.330295   -1.281104   -0.588230
     12          1           0       -3.193736    0.277663   -1.399319
     13          1           0        2.949606    0.835229   -0.504139
     14          1           0        1.611374    1.204114   -1.607734
     15          1           0        1.572578    1.923315    1.106365
     16          1           0        1.322605   -2.472975   -0.592320
     17          1           0        2.880406   -1.548067   -0.819496
     18          1           0        1.107228   -1.536121    1.745982
     19          1           0        2.667205   -0.613227    1.516696
 ---------------------------------------------------------------------

 SCF Done:  E(RB3LYP) =  -423.127324315     A.U. after    1 cycles

 The electronic state is 1-A.
 Alpha  occ. eigenvalues --  -19.13757 -19.13572 -10.24752 -10.23541 -10.22287
 Alpha  occ. eigenvalues --  -10.20236 -10.20181 -10.17710 -10.17118  -1.02064
 Alpha  occ. eigenvalues --   -1.01727  -0.88023  -0.76143  -0.71013  -0.68488
 Alpha  occ. eigenvalues --   -0.61589  -0.60722  -0.53857  -0.51853  -0.49254
 Alpha  occ. eigenvalues --   -0.46802  -0.46517  -0.43941  -0.43658  -0.41400
 Alpha  occ. eigenvalues --   -0.38107  -0.35369  -0.34806  -0.33306  -0.31704
 Alpha  occ. eigenvalues --   -0.28237  -0.27481  -0.24865  -0.24369
 Alpha virt. eigenvalues --    0.03137   0.05096   0.07468   0.09824   0.10362
 Alpha virt. eigenvalues --    0.10954   0.13069   0.13377   0.15133   0.16598
 Alpha virt. eigenvalues --    0.17512   0.18758   0.19978   0.21513   0.22042

 Mulliken charges:
               1
     1  O   -0.403837
     2  C   -0.195182
     3  C    0.085498
     4  C    0.003786
     5  C    0.104127
     6  C   -0.118113
     7  O   -0.409168
     8  C   -0.294702
     9  C   -0.296509
    10  H    0.287589
    11  H    0.136565
    12  H    0.117642
    13  H    0.080747
    14  H    0.118728
    15  H    0.282488
    16  H    0.131115
    17  H    0.120760
    18  H    0.132950
    19  H    0.115515
 Sum of Mulliken charges =   0.00000

 Dipole moment (field-independent basis, Debye):
    X=              2.0450    Y=             -0.7550    Z=              0.1123  Tot=              2.1829
 Quadrupole moment (field-independent basis, Debye-Ang):
   XX=            -54.4227   YY=            -54.9214   ZZ=            -50.6711
   XY=             -2.7410   XZ=              4.4650   YZ=              2.7172

  Exact polarizability: 110.027  -3.906  70.449   3.623   1.197  65.997
 Approx polarizability: 156.483  -5.412  99.241   5.633   2.315  98.514

                      1                      2                      3
                      A                      A                      A
 Frequencies --     27.2201                72.4271                96.5043
 Red. masses --      3.4843                 3.9565                 3.7256
 Frc consts  --      0.0015                 0.0122                 0.0204
 IR Inten    --      2.0118                 1.8444                 1.9358

                      4                      5                      6
                      A                      A                      A
 Frequencies --    116.9990               200.8471               226.2273
 Red. masses --      2.8038                 3.0151                 2.8191
 Frc consts  --      0.0226                 0.0717                 0.0850
 IR Inten    --      1.4781                12.0909                 1.7895

                      7                      8                      9
                      A                      A                      A
 Frequencies --    276.3961               293.3775               332.2464
 Red. masses --      2.0998                 1.8277                 1.4501
 Frc consts  --      0.0945                 0.0927                 0.0943
 IR Inten    --     16.6368                49.6955               112.3421

                     10                     11                     12
                      A                      A                      A
 Frequencies --    353.4301               417.3354               499.3845
 Red. masses --      1.5045                 4.0327                 4.8336
 Frc consts  --      0.1107                 0.4138                 0.7102
 IR Inten    --     56.5236                12.0397                 3.7802

                     13                     14                     15
                      A                      A                      A
 Frequencies --    551.9257               564.4230               665.0161
 Red. masses --      4.8660                 5.0373                 4.1870
 Frc consts  --      0.8733                 0.9455                 1.0910
 IR Inten    --      3.8566                 7.0434                11.8776

                     16                     17                     18
                      A                      A                      A
 Frequencies --    789.0268               826.8710               909.6969
 Red. masses --      1.0704                 2.5632                 4.6976
 Frc consts  --      0.3926                 1.0326                 2.2904
 IR Inten    --      2.3190                12.9382                10.1168

                     19                     20                     21
                      A                      A                      A
 Frequencies --    937.7146               949.1527               984.3483
 Red. masses --      2.0056                 1.2524                 1.6438
 Frc consts  --      1.0390                 0.6647                 0.9384
 IR Inten    --      8.1674                 2.3900                47.1181

                     22                     23                     24
                      A                      A                      A
 Frequencies --   1016.8339              1031.8343              1058.5233
 Red. masses --      1.7750                 3.9014                 1.2960
 Frc consts  --      1.0813                 2.4473                 0.8556
 IR Inten    --     40.0381                37.7238                 6.2210

                     25                     26                     27
                      A                      A                      A
 Frequencies --   1083.4978              1085.3055              1086.5098
 Red. masses --      2.4117                 4.2041                 1.8604
 Frc consts  --      1.6681                 2.9176                 1.2939
 IR Inten    --     57.4910                28.5289                36.6074

                     28                     29                     30
                      A                      A                      A
 Frequencies --   1193.0464              1215.6026              1217.0098
 Red. masses --      1.2712                 1.2366                 1.1023
 Frc consts  --      1.0661                 1.0766                 0.9619
 IR Inten    --      2.0731                 8.0492                19.6094

                     31                     32                     33
                      A                      A                      A
 Frequencies --   1285.7257              1339.5307              1357.8060
 Red. masses --      2.7735                 2.2013                 1.2333
 Frc consts  --      2.7013                 2.3272                 1.3397
 IR Inten    --      7.6008                 4.4293                 5.9544

                     34                     35                     36
                      A                      A                      A
 Frequencies --   1393.6085              1419.3169              1425.2593
 Red. masses --      1.4619                 1.2547                 1.2675
 Frc consts  --      1.6729                 1.4892                 1.5170
 IR Inten    --      1.5421                81.6772                88.5508

                     37                     38                     39
                      A                      A                      A
 Frequencies --   1463.6732              1490.0810              1490.6891
 Red. masses --      1.0876                 1.1546                 1.1642
 Frc consts  --      1.3728                 1.5105                 1.5242
 IR Inten    --      3.6588                 0.6881                 1.8614

                     40                     41                     42
                      A                      A                      A
 Frequencies --   1505.0759              2352.2147              2968.4412
 Red. masses --      1.1156                11.8974                 1.0708
 Frc consts  --      1.4890                38.7843                 5.5591
 IR Inten    --      0.8448                24.0493                64.5524

                     43                     44                     45
                      A                      A                      A
 Frequencies --   2973.7866              3058.4759              3080.3575
 Red. masses --      1.0714                 1.0881                 1.0917
 Frc consts  --      5.5825                 5.9970                 6.1032
 IR Inten    --     51.1806                19.8780                24.8283

                     46                     47                     48
                      A                      A                      A
 Frequencies --   3131.5028              3139.9314              3222.4054
 Red. masses --      1.0542                 1.0570                 1.1165
 Frc consts  --      6.0906                 6.1402                 6.8306
 IR Inten    --     12.2313                10.3843                 0.2516

                     49                     50                     51
                      A                      A                      A
 Frequencies --   3236.6201              3806.0461              3815.3574
 Red. masses --      1.1155                 1.0659                 1.0662
 Frc consts  --      6.8848                 9.0973                 9.1448
 IR Inten    --      9.1145                12.7522                19.7781

 - Thermochemistry -
 -------------------
 Temperature   298.150 Kelvin.  Pressure   1.00000 Atm.
 Atom     1 has atomic number  8 and mass  15.99491

 Molecular mass:   126.06808 amu.
 Principal axes and moments of inertia in atomic units:
                           1         2         3
     Eigenvalues --   708.570982193.014052581.58994
           X            0.99993  -0.00918   0.00803
           Y            0.00916   0.99996   0.00171
           Z           -0.00805  -0.00163   0.99997
 This molecule is an asymmetric top.
 Rotational symmetry number  1.
 Warning -- assumption of classical behavior for rotation
           may cause significant error
 Rotational temperatures (Kelvin)      0.12224     0.03950     0.03355
 Rotational constants (GHZ):           2.54702     0.82295     0.69908
 Zero-point vibrational energy     412918.8 (Joules/Mol)
                                   98.68997 (Kcal/Mol)
 Warning -- explicit consideration of  14 degrees of freedom as
           vibrations may cause significant error
 Vibrational temperatures:     39.16   104.21   138.85   168.34   288.97
          (Kelvin)            325.49   397.67   422.10   478.03   508.51
                              600.45   718.50   794.10   812.08   956.81
                             1135.23  1189.68  1308.85  1349.16  1365.62
                             1416.26  1463.00  1484.58  1522.98  1558.91
                             1561.51  1563.24  1716.53  1748.98  1751.00
                             1849.87  1927.28  1953.58  2005.09  2042.08
                             2050.63  2105.90  2143.89  2144.77  2165.47
                             3384.31  4270.92  4278.61  4400.46  4431.94
                             4505.53  4517.66  4636.32  4656.77  5476.04
                             5489.44

 Zero-point correction=                           0.157272 (Hartree/Particle)
 Thermal correction to Energy=                    0.167565
 Thermal correction to Enthalpy=                  0.168510
 Thermal correction to Gibbs Free Energy=         0.120529
 Sum of electronic and zero-point Energies=           -422.970052
 Sum of electronic and thermal Energies=              -422.959759
 Sum of electronic and thermal Enthalpies=            -422.958815
 Sum of electronic and thermal Free Energies=         -423.006795

                     E (Thermal)             CV                S
                      KCal/Mol        Cal/Mol-Kelvin    Cal/Mol-Kelvin
 Total                  105.149             36.419            100.984
 Electronic               0.000              0.000              0.000
 Translational            0.889              2.981             40.409
 Rotational               0.889              2.981             29.774
 Vibrational            103.371             30.457             30.801
 Vibration     1          0.593              1.984              6.022
 Vibration     2          0.599              1.967              4.086
 Vibration     3          0.603              1.952              3.524
 Vibration     4          0.608              1.935              3.149
 Vibration     5          0.638              1.839              2.125
 Vibration     6          0.650              1.801              1.909
 Vibration     7          0.678              1.717              1.556
 Vibration     8          0.688              1.686              1.454
 Vibration     9          0.714              1.611              1.249
 Vibration    10          0.730              1.568              1.151
 Vibration    11          0.780              1.433              0.901
 Vibration    12          0.855              1.251              0.660
 Vibration    13          0.907              1.135              0.540
 Vibration    14          0.920              1.108              0.515

 Normal termination of Gaussian 09 at Tue Jan 28 08:47:23 2020.
