 Gaussian 09, Revision D.01,
 Gaussian 09:  ES64L-G09RevD.01 24-Apr-2013

 -----------------------------
 # b3lyp 6-31G(2df,p) opt Freq
 -----------------------------

 -----
 titel
 -----
 Symbolic Z-matrix:
 Charge =  0 Multiplicity = 1

 SCF Done:  E(RB3LYP) =  -423.104195345     A.U. after   13 cycles
 Optimization completed.
    -- Stationary point found.
 Normal termination of Gaussian 09 at Tue Jan 28 01:53:18 2020.

 ----------------------------------------------------------------------
 #N Geom=AllCheck Guess=TCheck SCRF=Check GenChk RB3LYP/6-31G(2df,p) Fr
 eq
 ----------------------------------------------------------------------

 Structure from the checkpoint file:  "/scratch/puck/g09_08cc37db-494b-4042-b764-dc4570d88276/Gau-37895.chk"
 -----
 titel
 -----
 Charge =  0 Multiplicity = 1

                         Standard orientation:
 ---------------------------------------------------------------------
 Center     Atomic      Atomic             Coordinates (Angstroms)
 Number     Number       Type             X           Y           Z
 ---------------------------------------------------------------------
      1          8           0       -2.650527   -0.433382   -0.451035
      2          6           0       -1.609207    0.500997   -0.348954
      3          6           0       -1.237024    0.919903    1.063795
      4          6           0       -0.302664    0.099664    0.238514
      5          6           0        0.356239   -1.271314    0.457373
      6          6           0        1.042139   -1.093351   -0.932255
      7          6           0        1.173555    0.283616   -0.198831
      8          8           0        1.812784    1.433032   -0.615431
      9          6           0        1.567654   -0.501456    1.076460
     10          1           0       -2.427497   -1.049452   -1.156412
     11          1           0       -1.627270    1.287131   -1.107434
     12          1           0       -1.010250    1.966896    1.241914
     13          1           0       -1.787724    0.427458    1.859163
     14          1           0       -0.116863   -2.169756    0.843936
     15          1           0        1.970470   -1.648257   -1.091291
     16          1           0        0.391415   -1.125064   -1.811161
     17          1           0        1.441298    1.700745   -1.463147
     18          1           0        2.532392   -1.015014    1.049478
     19          1           0        1.391816   -0.000243    2.030064
 ---------------------------------------------------------------------

 SCF Done:  E(RB3LYP) =  -423.104195345     A.U. after    1 cycles

 The electronic state is 1-A.
 Alpha  occ. eigenvalues --  -19.15094 -19.14018 -10.25107 -10.23068 -10.20540
 Alpha  occ. eigenvalues --  -10.19363 -10.18921 -10.18624 -10.17800  -1.03791
 Alpha  occ. eigenvalues --   -1.02345  -0.91381  -0.82337  -0.67127  -0.62623
 Alpha  occ. eigenvalues --   -0.61872  -0.59213  -0.54314  -0.53490  -0.50480
 Alpha  occ. eigenvalues --   -0.47860  -0.43842  -0.42759  -0.40559  -0.38782
 Alpha  occ. eigenvalues --   -0.37413  -0.35489  -0.33971  -0.33583  -0.31349
 Alpha  occ. eigenvalues --   -0.30517  -0.28081  -0.25667  -0.24799
 Alpha virt. eigenvalues --    0.06519   0.07027   0.10695   0.12522   0.12677
 Alpha virt. eigenvalues --    0.14173   0.14678   0.15065   0.15888   0.16310
 Alpha virt. eigenvalues --    0.17469   0.19151   0.20732   0.22175   0.22859

 Mulliken charges:
               1
     1  O   -0.422017
     2  C   -0.041432
     3  C   -0.408718
     4  C    0.360055
     5  C   -0.141577
     6  C   -0.289685
     7  C    0.323469
     8  O   -0.466815
     9  C   -0.250178
    10  H    0.285629
    11  H    0.073270
    12  H    0.115151
    13  H    0.123841
    14  H    0.089233
    15  H    0.094347
    16  H    0.077577
    17  H    0.284287
    18  H    0.091739
    19  H    0.101823
 Sum of Mulliken charges =   0.00000

 Dipole moment (field-independent basis, Debye):
    X=              0.3364    Y=             -0.6559    Z=             -1.5958  Tot=              1.7578
 Quadrupole moment (field-independent basis, Debye-Ang):
   XX=            -61.9858   YY=            -51.3263   ZZ=            -48.1691
   XY=             -1.2992   XZ=              0.8655   YZ=             -0.9559

  Exact polarizability:  81.437  -3.958  73.452   0.436   2.178  73.835
 Approx polarizability: 112.981  -1.223 109.713   0.705   2.674 111.056

                      1                      2                      3
                      A                      A                      A
 Frequencies --    123.4042               149.3136               183.0269
 Red. masses --      4.8283                 3.9262                 2.2909
 Frc consts  --      0.0433                 0.0516                 0.0452
 IR Inten    --      1.7911                 3.5551                 8.3143

                      4                      5                      6
                      A                      A                      A
 Frequencies --    256.2384               274.1532               297.4276
 Red. masses --      1.1353                 1.6437                 2.1185
 Frc consts  --      0.0439                 0.0728                 0.1104
 IR Inten    --    103.1875                50.0220                41.2635

                      7                      8                      9
                      A                      A                      A
 Frequencies --    376.9223               445.4359               462.9681
 Red. masses --      3.2608                 2.4578                 2.5914
 Frc consts  --      0.2729                 0.2873                 0.3273
 IR Inten    --     16.1841                 3.2461                 6.1126

                     10                     11                     12
                      A                      A                      A
 Frequencies --    506.1163               628.9461               647.2456
 Red. masses --      2.9859                 3.2929                 2.5493
 Frc consts  --      0.4506                 0.7675                 0.6292
 IR Inten    --     10.2135                 3.8467                 0.2367

                     13                     14                     15
                      A                      A                      A
 Frequencies --    679.2286               772.5071               804.3948
 Red. masses --      3.6135                 2.4856                 3.1731
 Frc consts  --      0.9822                 0.8740                 1.2097
 IR Inten    --      3.4944                 1.2170                 1.5424

                     16                     17                     18
                      A                      A                      A
 Frequencies --    847.2713               913.1851               938.9530
 Red. masses --      1.8768                 2.2803                 1.7301
 Frc consts  --      0.7938                 1.1204                 0.8987
 IR Inten    --     14.6862                 1.5675                 3.6989

                     19                     20                     21
                      A                      A                      A
 Frequencies --    947.2844               950.2966              1001.3846
 Red. masses --      1.9113                 1.9211                 2.1831
 Frc consts  --      1.0105                 1.0222                 1.2898
 IR Inten    --      5.0361                 5.5545                16.0881

                     22                     23                     24
                      A                      A                      A
 Frequencies --   1015.2149              1045.4007              1059.9864
 Red. masses --      1.4468                 1.2520                 1.5337
 Frc consts  --      0.8785                 0.8062                 1.0153
 IR Inten    --     16.3639                 7.8274                13.4994

                     25                     26                     27
                      A                      A                      A
 Frequencies --   1062.1960              1109.2116              1121.8573
 Red. masses --      2.0103                 1.4502                 1.7313
 Frc consts  --      1.3363                 1.0512                 1.2838
 IR Inten    --      6.9706                28.6285                 6.8019

                     28                     29                     30
                      A                      A                      A
 Frequencies --   1138.3221              1149.7023              1167.2285
 Red. masses --      1.5462                 1.4325                 2.5205
 Frc consts  --      1.1804                 1.1157                 2.0232
 IR Inten    --      0.6362                 1.3389                58.1624

                     31                     32                     33
                      A                      A                      A
 Frequencies --   1194.2484              1204.9417              1219.5027
 Red. masses --      1.6169                 1.7621                 1.8843
 Frc consts  --      1.3587                 1.5073                 1.6510
 IR Inten    --      2.3719                 1.0079                 0.6655

                     34                     35                     36
                      A                      A                      A
 Frequencies --   1291.0358              1300.4981              1362.8186
 Red. masses --      2.2370                 1.2736                 1.6892
 Frc consts  --      2.1968                 1.2691                 1.8485
 IR Inten    --    248.9730                37.0118                 8.5337

                     37                     38                     39
                      A                      A                      A
 Frequencies --   1371.4494              1427.1221              1488.5229
 Red. masses --      2.1572                 1.3410                 1.1085
 Frc consts  --      2.3905                 1.6091                 1.4471
 IR Inten    --     22.7545                12.3092                 0.2971

                     40                     41                     42
                      A                      A                      A
 Frequencies --   1496.0748              1540.4120              3045.2150
 Red. masses --      2.0551                 1.3964                 1.0540
 Frc consts  --      2.7101                 1.9523                 5.7589
 IR Inten    --     14.8237                18.6765                49.1430

                     43                     44                     45
                      A                      A                      A
 Frequencies --   3059.6303              3065.3046              3115.0937
 Red. masses --      1.0553                 1.0861                 1.1105
 Frc consts  --      5.8205                 6.0128                 6.3492
 IR Inten    --     42.4839                41.2476                40.0179

                     46                     47                     48
                      A                      A                      A
 Frequencies --   3120.6040              3132.5389              3157.9425
 Red. masses --      1.0543                 1.1106                 1.0933
 Frc consts  --      6.0492                 6.4211                 6.4238
 IR Inten    --      8.7082                33.1463                24.4475

                     49                     50                     51
                      A                      A                      A
 Frequencies --   3209.2721              3806.6222              3807.9258
 Red. masses --      1.1162                 1.0657                 1.0663
 Frc consts  --      6.7732                 9.0982                 9.1097
 IR Inten    --      5.5216                23.7525                15.1529

 - Thermochemistry -
 -------------------
 Temperature   298.150 Kelvin.  Pressure   1.00000 Atm.
 Atom     1 has atomic number  8 and mass  15.99491

 Molecular mass:   126.06808 amu.
 Principal axes and moments of inertia in atomic units:
                           1         2         3
     Eigenvalues --   638.729761343.479751463.99384
           X            0.99957  -0.02946   0.00086
           Y            0.02939   0.99865   0.04284
           Z           -0.00212  -0.04280   0.99908
 This molecule is an asymmetric top.
 Rotational symmetry number  1.
 Warning -- assumption of classical behavior for rotation
           may cause significant error
 Rotational temperatures (Kelvin)      0.13560     0.06447     0.05916
 Rotational constants (GHZ):           2.82552     1.34333     1.23275
 Zero-point vibrational energy     415652.1 (Joules/Mol)
                                   99.34323 (Kcal/Mol)
 Warning -- explicit consideration of  10 degrees of freedom as
           vibrations may cause significant error
 Vibrational temperatures:    177.55   214.83   263.33   368.67   394.44
          (Kelvin)            427.93   542.31   640.88   666.11   728.19
                              904.91   931.24   977.26  1111.46  1157.34
                             1219.03  1313.87  1350.94  1362.93  1367.26
                             1440.77  1460.67  1504.10  1525.08  1528.26
                             1595.91  1614.10  1637.79  1654.16  1679.38
                             1718.25  1733.64  1754.59  1857.51  1871.12
                             1960.79  1973.21  2053.31  2141.65  2152.52
                             2216.31  4381.38  4402.12  4410.28  4481.92
                             4489.85  4507.02  4543.57  4617.42  5476.87
                             5478.75

 Zero-point correction=                           0.158314 (Hartree/Particle)
 Thermal correction to Energy=                    0.166694
 Thermal correction to Enthalpy=                  0.167638
 Thermal correction to Gibbs Free Energy=         0.125758
 Sum of electronic and zero-point Energies=           -422.945882
 Sum of electronic and thermal Energies=              -422.937501
 Sum of electronic and thermal Enthalpies=            -422.936557
 Sum of electronic and thermal Free Energies=         -422.978437

                     E (Thermal)             CV                S
                      KCal/Mol        Cal/Mol-Kelvin    Cal/Mol-Kelvin
 Total                  104.602             33.167             88.143
 Electronic               0.000              0.000              0.000
 Translational            0.889              2.981             40.409
 Rotational               0.889              2.981             28.620
 Vibrational            102.825             27.205             19.114
 Vibration     1          0.610              1.930              3.046
 Vibration     2          0.618              1.903              2.681
 Vibration     3          0.631              1.863              2.297
 Vibration     4          0.666              1.752              1.687
 Vibration     5          0.676              1.721              1.570
 Vibration     6          0.691              1.679              1.431
 Vibration     7          0.747              1.519              1.051
 Vibration     8          0.805              1.371              0.810
 Vibration     9          0.821              1.332              0.758
 Vibration    10          0.861              1.236              0.643

 Normal termination of Gaussian 09 at Tue Jan 28 02:44:21 2020.
