 Gaussian 09, Revision D.01,
 Gaussian 09:  ES64L-G09RevD.01 24-Apr-2013

 -----------------------------
 # b3lyp 6-31G(2df,p) opt Freq
 -----------------------------

 -----
 titel
 -----
 Symbolic Z-matrix:
 Charge =  0 Multiplicity = 1

 SCF Done:  E(RB3LYP) =  -423.184351088     A.U. after   13 cycles
 Optimization completed.
    -- Stationary point found.
 Normal termination of Gaussian 09 at Mon Jan 27 11:29:59 2020.

 ----------------------------------------------------------------------
 #N Geom=AllCheck Guess=TCheck SCRF=Check GenChk RB3LYP/6-31G(2df,p) Fr
 eq
 ----------------------------------------------------------------------

 Structure from the checkpoint file:  "/scratch/puck/g09_782a0d41-76e6-4211-bc4a-b28772321a96/Gau-61256.chk"
 -----
 titel
 -----
 Charge =  0 Multiplicity = 1

                         Standard orientation:
 ---------------------------------------------------------------------
 Center     Atomic      Atomic             Coordinates (Angstroms)
 Number     Number       Type             X           Y           Z
 ---------------------------------------------------------------------
      1          6           0       -0.720821   -0.224432    1.315178
      2          6           0       -0.849087    1.063097    0.474629
      3          8           0        0.416225    1.676491    0.204989
      4          6           0        1.343781    0.919726   -0.560974
      5          6           0        1.762423   -0.433247    0.028653
      6          8           0        0.863439   -1.521071   -0.131471
      7          6           0       -0.503533   -1.316967    0.252862
      8          6           0       -1.306089   -0.766682   -0.918906
      9          6           0       -1.512762    0.542962   -0.787245
     10          1           0        0.064338   -0.167976    2.070760
     11          1           0       -1.669424   -0.416445    1.825694
     12          1           0       -1.418137    1.845286    0.983264
     13          1           0        0.990822    0.768945   -1.589885
     14          1           0        2.238235    1.551042   -0.601387
     15          1           0        2.671256   -0.753189   -0.493411
     16          1           0        2.026980   -0.290585    1.087491
     17          1           0       -0.850142   -2.301147    0.581508
     18          1           0       -1.588772   -1.381880   -1.765520
     19          1           0       -1.985943    1.195843   -1.511843
 ---------------------------------------------------------------------

 SCF Done:  E(RB3LYP) =  -423.184351088     A.U. after    1 cycles

 The electronic state is 1-A.
 Alpha  occ. eigenvalues --  -19.13645 -19.13441 -10.23442 -10.23390 -10.22517
 Alpha  occ. eigenvalues --  -10.22336 -10.18610 -10.18447 -10.18060  -1.03399
 Alpha  occ. eigenvalues --   -1.01391  -0.83952  -0.74085  -0.71285  -0.70747
 Alpha  occ. eigenvalues --   -0.59693  -0.57249  -0.53415  -0.52343  -0.49819
 Alpha  occ. eigenvalues --   -0.48190  -0.44073  -0.42479  -0.42173  -0.40147
 Alpha  occ. eigenvalues --   -0.39673  -0.37102  -0.36375  -0.35484  -0.30731
 Alpha  occ. eigenvalues --   -0.29959  -0.26842  -0.25851  -0.23810
 Alpha virt. eigenvalues --    0.00016   0.09236   0.10648   0.12411   0.13547
 Alpha virt. eigenvalues --    0.14561   0.15419   0.16373   0.16943   0.17355
 Alpha virt. eigenvalues --    0.18068   0.19235   0.19301   0.20326   0.21601

 Mulliken charges:
               1
     1  C   -0.272784
     2  C    0.084582
     3  O   -0.269396
     4  C   -0.089577
     5  C   -0.084285
     6  O   -0.277493
     7  C    0.082802
     8  C   -0.071047
     9  C   -0.099855
    10  H    0.110832
    11  H    0.105492
    12  H    0.080984
    13  H    0.101891
    14  H    0.108147
    15  H    0.108320
    16  H    0.096836
    17  H    0.080639
    18  H    0.102744
    19  H    0.101166
 Sum of Mulliken charges =   0.00000

 Dipole moment (field-independent basis, Debye):
    X=             -0.6839    Y=             -0.0554    Z=             -0.0536  Tot=              0.6883
 Quadrupole moment (field-independent basis, Debye-Ang):
   XX=            -49.6716   YY=            -57.5766   ZZ=            -51.2303
   XY=              1.0565   XZ=             -0.3148   YZ=             -1.1539

  Exact polarizability:  78.606  -0.112  76.907   0.918   0.491  68.671
 Approx polarizability: 110.038  -2.308 126.450   1.230   4.821 101.129

                      1                      2                      3
                      A                      A                      A
 Frequencies --    196.3558               226.8177               321.3230
 Red. masses --      3.8193                 3.0341                 2.6190
 Frc consts  --      0.0868                 0.0920                 0.1593
 IR Inten    --      4.6658                 5.2194                 1.4243

                      4                      5                      6
                      A                      A                      A
 Frequencies --    339.3817               392.6081               416.9049
 Red. masses --      3.5523                 3.1446                 2.8935
 Frc consts  --      0.2411                 0.2856                 0.2963
 IR Inten    --      1.7023                 1.0437                 9.2921

                      7                      8                      9
                      A                      A                      A
 Frequencies --    490.1202               530.3065               603.7087
 Red. masses --      2.3549                 2.3655                 2.6860
 Frc consts  --      0.3333                 0.3919                 0.5768
 IR Inten    --      2.2088                 2.1429                11.3479

                     10                     11                     12
                      A                      A                      A
 Frequencies --    743.2421               777.1459               796.1141
 Red. masses --      2.6489                 2.3061                 4.2737
 Frc consts  --      0.8621                 0.8206                 1.5959
 IR Inten    --      1.6545                12.7776                 3.2842

                     13                     14                     15
                      A                      A                      A
 Frequencies --    836.9180               840.6550               849.0980
 Red. masses --      2.2657                 3.2301                 2.9000
 Frc consts  --      0.9350                 1.3449                 1.2319
 IR Inten    --     18.2852                19.3676                 0.0885

                     16                     17                     18
                      A                      A                      A
 Frequencies --    920.8331               959.0147               982.9176
 Red. masses --      2.2012                 2.3560                 1.3939
 Frc consts  --      1.0997                 1.2767                 0.7934
 IR Inten    --     10.3171                 8.9949                 7.1997

                     19                     20                     21
                      A                      A                      A
 Frequencies --    988.0514               995.0740              1034.3247
 Red. masses --      2.7295                 2.4526                 1.7155
 Frc consts  --      1.5700                 1.4308                 1.0813
 IR Inten    --     21.3372                25.6813                 2.4914

                     22                     23                     24
                      A                      A                      A
 Frequencies --   1049.9745              1098.9570              1111.8078
 Red. masses --      2.3047                 2.2615                 3.3210
 Frc consts  --      1.4970                 1.6092                 2.4186
 IR Inten    --      3.7869                 2.8907                11.1311

                     25                     26                     27
                      A                      A                      A
 Frequencies --   1127.4616              1160.5490              1195.6585
 Red. masses --      1.1860                 5.2049                 1.4468
 Frc consts  --      0.8882                 4.1304                 1.2186
 IR Inten    --      0.0553               244.3109                 4.4547

                     28                     29                     30
                      A                      A                      A
 Frequencies --   1248.8185              1278.6880              1308.2638
 Red. masses --      1.6305                 1.2073                 1.3544
 Frc consts  --      1.4982                 1.1630                 1.3658
 IR Inten    --      2.8660                 1.4928                 1.0485

                     31                     32                     33
                      A                      A                      A
 Frequencies --   1321.5878              1334.9803              1358.2471
 Red. masses --      1.6683                 1.1421                 1.3283
 Frc consts  --      1.7168                 1.1992                 1.4438
 IR Inten    --      5.6922                16.7877                 2.0546

                     34                     35                     36
                      A                      A                      A
 Frequencies --   1372.5926              1375.9866              1402.9645
 Red. masses --      1.2069                 1.4248                 1.2729
 Frc consts  --      1.3397                 1.5894                 1.4761
 IR Inten    --      4.8729                16.2980                 8.7765

                     37                     38                     39
                      A                      A                      A
 Frequencies --   1411.9659              1470.3368              1481.8518
 Red. masses --      1.3160                 1.0969                 1.0878
 Frc consts  --      1.5459                 1.3972                 1.4074
 IR Inten    --     13.5673                 3.7257                 5.2641

                     40                     41                     42
                      A                      A                      A
 Frequencies --   1498.1813              1670.0549              2987.9548
 Red. masses --      1.0853                 6.2113                 1.0685
 Frc consts  --      1.4353                10.2069                 5.6204
 IR Inten    --      4.7010                 0.1873                40.6901

                     43                     44                     45
                      A                      A                      A
 Frequencies --   3018.8536              3058.5940              3066.8525
 Red. masses --      1.0613                 1.0748                 1.0963
 Frc consts  --      5.6988                 5.9239                 6.0751
 IR Inten    --     37.6325                 8.8719                38.0770

                     46                     47                     48
                      A                      A                      A
 Frequencies --   3069.9784              3076.1860              3084.8199
 Red. masses --      1.0792                 1.0977                 1.0856
 Frc consts  --      5.9927                 6.1200                 6.0866
 IR Inten    --     50.3517                38.3559                35.0838

                     49                     50                     51
                      A                      A                      A
 Frequencies --   3125.2281              3186.8963              3212.4032
 Red. masses --      1.0999                 1.0850                 1.1055
 Frc consts  --      6.3296                 6.4928                 6.7212
 IR Inten    --     19.3375                 6.9923                14.4376

 - Thermochemistry -
 -------------------
 Temperature   298.150 Kelvin.  Pressure   1.00000 Atm.
 Atom     1 has atomic number  6 and mass  12.00000

 Molecular mass:   126.06808 amu.
 Principal axes and moments of inertia in atomic units:
                           1         2         3
     Eigenvalues --   789.56748 836.998661160.46774
           X            0.99399   0.10895  -0.01017
           Y           -0.10916   0.99376  -0.02310
           Z            0.00759   0.02407   0.99968
 This molecule is an asymmetric top.
 Rotational symmetry number  1.
 Warning -- assumption of classical behavior for rotation
           may cause significant error
 Rotational temperatures (Kelvin)      0.10970     0.10348     0.07464
 Rotational constants (GHZ):           2.28573     2.15621     1.55518
 Zero-point vibrational energy     427112.4 (Joules/Mol)
                                  102.08230 (Kcal/Mol)
 Warning -- explicit consideration of   9 degrees of freedom as
           vibrations may cause significant error
 Vibrational temperatures:    282.51   326.34   462.31   488.29   564.87
          (Kelvin)            599.83   705.17   762.99   868.60  1069.36
                             1118.14  1145.43  1204.14  1209.51  1221.66
                             1324.87  1379.81  1414.20  1421.58  1431.69
                             1488.16  1510.68  1581.15  1599.64  1622.16
                             1669.77  1720.28  1796.77  1839.74  1882.30
                             1901.47  1920.74  1954.21  1974.85  1979.74
                             2018.55  2031.50  2115.48  2132.05  2155.55
                             2402.83  4299.00  4343.45  4400.63  4412.51
                             4417.01  4425.94  4438.36  4496.50  4585.23
                             4621.93

 Zero-point correction=                           0.162679 (Hartree/Particle)
 Thermal correction to Energy=                    0.169523
 Thermal correction to Enthalpy=                  0.170467
 Thermal correction to Gibbs Free Energy=         0.131889
 Sum of electronic and zero-point Energies=           -423.021673
 Sum of electronic and thermal Energies=              -423.014828
 Sum of electronic and thermal Enthalpies=            -423.013884
 Sum of electronic and thermal Free Energies=         -423.052462

                     E (Thermal)             CV                S
                      KCal/Mol        Cal/Mol-Kelvin    Cal/Mol-Kelvin
 Total                  106.377             28.649             81.194
 Electronic               0.000              0.000              0.000
 Translational            0.889              2.981             40.409
 Rotational               0.889              2.981             28.130
 Vibrational            104.600             22.687             12.656
 Vibration     1          0.636              1.845              2.167
 Vibration     2          0.650              1.800              1.904
 Vibration     3          0.707              1.633              1.303
 Vibration     4          0.719              1.597              1.215
 Vibration     5          0.760              1.486              0.990
 Vibration     6          0.780              1.434              0.903
 Vibration     7          0.846              1.272              0.683
 Vibration     8          0.885              1.183              0.587
 Vibration     9          0.962              1.024              0.443

 Optimization completed.
    -- Stationary point found.
 Normal termination of Gaussian 09 at Mon Jan 27 13:45:47 2020.
