 Gaussian 09, Revision D.01,
 Gaussian 09:  ES64L-G09RevD.01 24-Apr-2013

 -----------------------------
 # b3lyp 6-31G(2df,p) opt Freq
 -----------------------------

 -----
 titel
 -----
 Symbolic Z-matrix:
 Charge =  0 Multiplicity = 1

 SCF Done:  E(RB3LYP) =  -423.161753032     A.U. after   14 cycles
 Optimization completed.
    -- Stationary point found.
 Normal termination of Gaussian 09 at Mon Jan 27 17:49:30 2020.

 ----------------------------------------------------------------------
 #N Geom=AllCheck Guess=TCheck SCRF=Check GenChk RB3LYP/6-31G(2df,p) Fr
 eq
 ----------------------------------------------------------------------

 Structure from the checkpoint file:  "/scratch/puck/g09_9e646d7b-d3ec-4b06-8f76-cc84af034c70/Gau-16378.chk"
 -----
 titel
 -----
 Charge =  0 Multiplicity = 1

                         Standard orientation:
 ---------------------------------------------------------------------
 Center     Atomic      Atomic             Coordinates (Angstroms)
 Number     Number       Type             X           Y           Z
 ---------------------------------------------------------------------
      1          6           0       -1.949494    1.309548   -0.467180
      2          6           0       -1.137331    0.160710    0.028241
      3          8           0       -1.778969   -1.090290    0.314950
      4          6           0       -0.662537   -1.095242   -0.587487
      5          6           0        0.601430   -1.137204    0.281554
      6          6           0        1.905303   -0.715876   -0.405232
      7          6           0        1.779043    0.812854   -0.506154
      8          8           0        1.037642    1.213235    0.644455
      9          6           0        0.102517    0.201690    0.955569
     10          1           0       -2.580461    1.709639    0.334495
     11          1           0       -1.293200    2.115862   -0.808096
     12          1           0       -2.598629    1.002369   -1.291629
     13          1           0       -0.828863   -1.505631   -1.578553
     14          1           0        0.697036   -2.026057    0.906949
     15          1           0        2.755893   -0.983508    0.228537
     16          1           0        2.053114   -1.186650   -1.381603
     17          1           0        2.738207    1.336464   -0.480441
     18          1           0        1.255464    1.104779   -1.428780
     19          1           0       -0.101535    0.230293    2.028018
 ---------------------------------------------------------------------

 SCF Done:  E(RB3LYP) =  -423.161753032     A.U. after    1 cycles

 The electronic state is 1-A.
 Alpha  occ. eigenvalues --  -19.14774 -19.14285 -10.23553 -10.23307 -10.23136
 Alpha  occ. eigenvalues --  -10.23055 -10.19346 -10.19074 -10.18452  -1.07664
 Alpha  occ. eigenvalues --   -1.03751  -0.80294  -0.76216  -0.73382  -0.65038
 Alpha  occ. eigenvalues --   -0.62650  -0.58028  -0.54041  -0.50211  -0.48698
 Alpha  occ. eigenvalues --   -0.47982  -0.45044  -0.43456  -0.41281  -0.40744
 Alpha  occ. eigenvalues --   -0.39040  -0.37972  -0.35825  -0.34797  -0.33050
 Alpha  occ. eigenvalues --   -0.31349  -0.28921  -0.26743  -0.23634
 Alpha virt. eigenvalues --    0.08080   0.09426   0.10250   0.12069   0.12610
 Alpha virt. eigenvalues --    0.13461   0.14102   0.14732   0.15619   0.16070
 Alpha virt. eigenvalues --    0.16959   0.18900   0.19699   0.20130   0.21205

 Mulliken charges:
               1
     1  C   -0.511469
     2  C    0.394663
     3  O   -0.291701
     4  C   -0.059068
     5  C   -0.073645
     6  C   -0.242129
     7  C   -0.088798
     8  O   -0.256576
     9  C    0.035936
    10  H    0.132971
    11  H    0.136676
    12  H    0.130225
    13  H    0.097959
    14  H    0.083782
    15  H    0.113319
    16  H    0.104103
    17  H    0.111968
    18  H    0.095379
    19  H    0.086406
 Sum of Mulliken charges =   0.00000

 Dipole moment (field-independent basis, Debye):
    X=              1.2286    Y=             -0.0338    Z=             -1.5677  Tot=              1.9920
 Quadrupole moment (field-independent basis, Debye-Ang):
   XX=            -53.6479   YY=            -54.8980   ZZ=            -51.4299
   XY=             -4.4986   XZ=              0.0126   YZ=             -0.2035

  Exact polarizability:  81.521  -3.369  73.176  -1.071   0.807  66.609
 Approx polarizability: 110.591  -0.177 110.343  -4.342   3.994 103.419

                      1                      2                      3
                      A                      A                      A
 Frequencies --    121.1990               162.2968               187.2782
 Red. masses --      3.0555                 1.9278                 1.2124
 Frc consts  --      0.0264                 0.0299                 0.0251
 IR Inten    --      1.6870                 0.7784                 0.1667

                      4                      5                      6
                      A                      A                      A
 Frequencies --    244.8098               318.2136               330.3079
 Red. masses --      2.8083                 2.4566                 2.5762
 Frc consts  --      0.0992                 0.1466                 0.1656
 IR Inten    --      4.1536                 2.0997                 2.1686

                      7                      8                      9
                      A                      A                      A
 Frequencies --    465.5828               484.8090               570.0453
 Red. masses --      4.5681                 6.5157                 4.1260
 Frc consts  --      0.5834                 0.9023                 0.7900
 IR Inten    --     11.5623                 1.4588                 2.4248

                     10                     11                     12
                      A                      A                      A
 Frequencies --    660.1836               711.8964               814.7719
 Red. masses --      2.4870                 4.9264                 3.3189
 Frc consts  --      0.6386                 1.4710                 1.2981
 IR Inten    --      2.5544                 2.0258                15.6702

                     13                     14                     15
                      A                      A                      A
 Frequencies --    828.0226               860.9445               881.9502
 Red. masses --      2.1409                 2.6699                 2.4870
 Frc consts  --      0.8648                 1.1660                 1.1397
 IR Inten    --      4.5375                 3.0448                22.2241

                     16                     17                     18
                      A                      A                      A
 Frequencies --    899.0044               935.5348               958.6625
 Red. masses --      2.2363                 3.3905                 1.9816
 Frc consts  --      1.0649                 1.7484                 1.0730
 IR Inten    --      1.5892                12.8121                 7.8046

                     19                     20                     21
                      A                      A                      A
 Frequencies --    975.8981               998.7065              1026.7692
 Red. masses --      2.2809                 1.7327                 2.0875
 Frc consts  --      1.2799                 1.0183                 1.2967
 IR Inten    --     11.2002                 1.3435                 0.4313

                     22                     23                     24
                      A                      A                      A
 Frequencies --   1051.9254              1092.8001              1117.8387
 Red. masses --      1.8744                 1.7623                 1.7654
 Frc consts  --      1.2220                 1.2400                 1.2997
 IR Inten    --      4.8627                11.7138                 7.3343

                     25                     26                     27
                      A                      A                      A
 Frequencies --   1121.6064              1176.0888              1207.8930
 Red. masses --      7.5620                 1.6481                 1.5760
 Frc consts  --      5.6049                 1.3431                 1.3548
 IR Inten    --    112.8523                 5.8534                 0.1529

                     28                     29                     30
                      A                      A                      A
 Frequencies --   1227.4678              1230.6370              1255.0250
 Red. masses --      1.3021                 1.7005                 1.4800
 Frc consts  --      1.1559                 1.5173                 1.3734
 IR Inten    --      9.2295                 2.7946                 7.0037

                     31                     32                     33
                      A                      A                      A
 Frequencies --   1271.5029              1300.1977              1323.9291
 Red. masses --      1.6745                 1.5065                 1.3620
 Frc consts  --      1.5950                 1.5005                 1.4066
 IR Inten    --      4.9856                 2.5332                 3.8455

                     34                     35                     36
                      A                      A                      A
 Frequencies --   1352.2661              1393.0714              1401.1069
 Red. masses --      1.4582                 1.3391                 1.2972
 Frc consts  --      1.5710                 1.5311                 1.5004
 IR Inten    --      0.7853                 3.7041                 5.2568

                     37                     38                     39
                      A                      A                      A
 Frequencies --   1459.9693              1480.2382              1485.2578
 Red. masses --      2.9423                 1.1625                 1.0931
 Frc consts  --      3.6951                 1.5007                 1.4207
 IR Inten    --     16.9281                10.4390                 2.6096

                     40                     41                     42
                      A                      A                      A
 Frequencies --   1494.9539              1522.5395              2990.2095
 Red. masses --      1.1540                 1.0914                 1.0712
 Frc consts  --      1.5195                 1.4906                 5.6430
 IR Inten    --      2.6210                 0.5781                50.1664

                     43                     44                     45
                      A                      A                      A
 Frequencies --   3036.2773              3054.8085              3088.8377
 Red. masses --      1.0362                 1.0602                 1.0898
 Frc consts  --      5.6280                 5.8291                 6.1261
 IR Inten    --     20.2920                20.1011                41.6214

                     46                     47                     48
                      A                      A                      A
 Frequencies --   3091.9741              3100.2199              3100.3061
 Red. masses --      1.0908                 1.0975                 1.0985
 Frc consts  --      6.1444                 6.2151                 6.2211
 IR Inten    --     20.6858                 9.3664                18.3578

                     49                     50                     51
                      A                      A                      A
 Frequencies --   3106.9087              3122.3960              3167.1024
 Red. masses --      1.0963                 1.1020                 1.0937
 Frc consts  --      6.2347                 6.3299                 6.4634
 IR Inten    --     52.2331                11.8486                19.2344

 - Thermochemistry -
 -------------------
 Temperature   298.150 Kelvin.  Pressure   1.00000 Atm.
 Atom     1 has atomic number  6 and mass  12.00000

 Molecular mass:   126.06808 amu.
 Principal axes and moments of inertia in atomic units:
                           1         2         3
     Eigenvalues --   619.859531087.072821378.38458
           X            0.99711  -0.07601   0.00083
           Y            0.07600   0.99673  -0.02758
           Z            0.00127   0.02756   0.99962
 This molecule is an asymmetric top.
 Rotational symmetry number  1.
 Warning -- assumption of classical behavior for rotation
           may cause significant error
 Rotational temperatures (Kelvin)      0.13973     0.07968     0.06284
 Rotational constants (GHZ):           2.91153     1.66018     1.30932
 Zero-point vibrational energy     420261.5 (Joules/Mol)
                                  100.44492 (Kcal/Mol)
 Warning -- explicit consideration of   9 degrees of freedom as
           vibrations may cause significant error
 Vibrational temperatures:    174.38   233.51   269.45   352.23   457.84
          (Kelvin)            475.24   669.87   697.53   820.17   949.86
                             1024.26  1172.27  1191.34  1238.71  1268.93
                             1293.47  1346.02  1379.30  1404.10  1436.91
                             1477.29  1513.48  1572.29  1608.32  1613.74
                             1692.13  1737.89  1766.05  1770.61  1805.70
                             1829.41  1870.69  1904.84  1945.61  2004.32
                             2015.88  2100.57  2129.73  2136.95  2150.90
                             2190.59  4302.24  4368.52  4395.18  4444.14
                             4448.66  4460.52  4460.64  4470.14  4492.43
                             4556.75

 Zero-point correction=                           0.160069 (Hartree/Particle)
 Thermal correction to Energy=                    0.167761
 Thermal correction to Enthalpy=                  0.168705
 Thermal correction to Gibbs Free Energy=         0.128066
 Sum of electronic and zero-point Energies=           -423.001684
 Sum of electronic and thermal Energies=              -422.993992
 Sum of electronic and thermal Enthalpies=            -422.993048
 Sum of electronic and thermal Free Energies=         -423.033687

                     E (Thermal)             CV                S
                      KCal/Mol        Cal/Mol-Kelvin    Cal/Mol-Kelvin
 Total                  105.271             30.189             85.531
 Electronic               0.000              0.000              0.000
 Translational            0.889              2.981             40.409
 Rotational               0.889              2.981             28.320
 Vibrational            103.494             24.227             16.802
 Vibration     1          0.609              1.932              3.081
 Vibration     2          0.622              1.889              2.523
 Vibration     3          0.632              1.857              2.255
 Vibration     4          0.660              1.771              1.768
 Vibration     5          0.705              1.639              1.319
 Vibration     6          0.713              1.615              1.259
 Vibration     7          0.823              1.326              0.750
 Vibration     8          0.841              1.284              0.697
 Vibration     9          0.926              1.096              0.504

 Optimization completed.
    -- Stationary point found.
 Normal termination of Gaussian 09 at Mon Jan 27 19:48:02 2020.
