 Gaussian 09, Revision D.01,
 Gaussian 09:  ES64L-G09RevD.01 24-Apr-2013

 -----------------------------
 # b3lyp 6-31G(2df,p) opt Freq
 -----------------------------

 -----
 titel
 -----
 Symbolic Z-matrix:
 Charge =  0 Multiplicity = 1

 SCF Done:  E(RB3LYP) =  -423.156908601     A.U. after   12 cycles
 Optimization completed.
    -- Stationary point found.
 Normal termination of Gaussian 09 at Mon Jan 27 17:48:00 2020.

 ----------------------------------------------------------------------
 #N Geom=AllCheck Guess=TCheck SCRF=Check GenChk RB3LYP/6-31G(2df,p) Fr
 eq
 ----------------------------------------------------------------------

 Structure from the checkpoint file:  "/scratch/puck/g09_92bae5a0-5867-474a-a4a3-03fcce6065bc/Gau-113659.chk"
 -----
 titel
 -----
 Charge =  0 Multiplicity = 1

                         Standard orientation:
 ---------------------------------------------------------------------
 Center     Atomic      Atomic             Coordinates (Angstroms)
 Number     Number       Type             X           Y           Z
 ---------------------------------------------------------------------
      1          8           0       -1.281274    1.625349   -0.577665
      2          6           0       -0.896033    0.464175    0.093574
      3          6           0       -1.954381   -0.520067    0.548352
      4          6           0       -1.017877   -0.858846   -0.596054
      5          8           0        0.068270   -1.692416   -0.285612
      6          6           0        1.058207   -0.903372    0.368248
      7          6           0        2.027412   -0.097086   -0.545017
      8          6           0        1.578269    1.214978    0.158906
      9          6           0        0.429418    0.437517    0.856760
     10          1           0       -1.685392    2.219859    0.064412
     11          1           0       -1.818770   -1.047367    1.487369
     12          1           0       -2.979217   -0.279747    0.283930
     13          1           0       -1.400452   -0.956199   -1.605952
     14          1           0        1.549333   -1.530273    1.115373
     15          1           0        3.085720   -0.356913   -0.472089
     16          1           0        1.724738   -0.155554   -1.592920
     17          1           0        2.315590    1.591153    0.871580
     18          1           0        1.258226    2.034538   -0.486475
     19          1           0        0.304162    0.593243    1.932373
 ---------------------------------------------------------------------

 SCF Done:  E(RB3LYP) =  -423.156908601     A.U. after    1 cycles

 The electronic state is 1-A.
 Alpha  occ. eigenvalues --  -19.14968 -19.13773 -10.23875 -10.22911 -10.22842
 Alpha  occ. eigenvalues --  -10.18653 -10.18291 -10.17843 -10.17511  -1.04672
 Alpha  occ. eigenvalues --   -1.02708  -0.83958  -0.82775  -0.67499  -0.65927
 Alpha  occ. eigenvalues --   -0.60852  -0.57297  -0.55344  -0.51958  -0.49540
 Alpha  occ. eigenvalues --   -0.46751  -0.44715  -0.42929  -0.40851  -0.39284
 Alpha  occ. eigenvalues --   -0.38588  -0.37088  -0.35287  -0.33133  -0.31534
 Alpha  occ. eigenvalues --   -0.30159  -0.27719  -0.25994  -0.22924
 Alpha virt. eigenvalues --    0.07021   0.08339   0.10552   0.10911   0.11932
 Alpha virt. eigenvalues --    0.14686   0.15240   0.16149   0.17197   0.17715
 Alpha virt. eigenvalues --    0.18664   0.19236   0.19548   0.22082   0.23704

 Mulliken charges:
               1
     1  O   -0.463877
     2  C    0.360320
     3  C   -0.374145
     4  C    0.050015
     5  O   -0.268144
     6  C    0.132506
     7  C   -0.243247
     8  C   -0.236524
     9  C   -0.145458
    10  H    0.283366
    11  H    0.115076
    12  H    0.113173
    13  H    0.107535
    14  H    0.079484
    15  H    0.099267
    16  H    0.114484
    17  H    0.097335
    18  H    0.113840
    19  H    0.064992
 Sum of Mulliken charges =   0.00000

 Dipole moment (field-independent basis, Debye):
    X=             -0.2668    Y=              1.3999    Z=              1.4949  Tot=              2.0653
 Quadrupole moment (field-independent basis, Debye-Ang):
   XX=            -49.2163   YY=            -55.4201   ZZ=            -52.3273
   XY=             -1.6998   XZ=             -0.4224   YZ=              1.6303

  Exact polarizability:  84.878   0.860  71.064  -0.946   0.434  66.002
 Approx polarizability: 111.393  -1.075 107.474  -0.719   1.479 102.151

                      1                      2                      3
                      A                      A                      A
 Frequencies --     90.8647               183.9743               252.7674
 Red. masses --      2.5401                 3.3932                 2.3060
 Frc consts  --      0.0124                 0.0677                 0.0868
 IR Inten    --      0.8665                 2.5201                 4.2960

                      4                      5                      6
                      A                      A                      A
 Frequencies --    313.6240               360.5741               376.6782
 Red. masses --      1.2268                 3.3131                 3.0434
 Frc consts  --      0.0711                 0.2538                 0.2544
 IR Inten    --     84.1840                 3.0313                 2.2929

                      7                      8                      9
                      A                      A                      A
 Frequencies --    453.9552               472.9883               559.8589
 Red. masses --      2.7445                 3.5867                 3.7936
 Frc consts  --      0.3332                 0.4728                 0.7006
 IR Inten    --      2.9326                13.6021                 1.1916

                     10                     11                     12
                      A                      A                      A
 Frequencies --    669.1183               698.3351               739.2236
 Red. masses --      3.8144                 1.8565                 2.5448
 Frc consts  --      1.0062                 0.5334                 0.8193
 IR Inten    --      0.3425                 0.7236                 9.7487

                     13                     14                     15
                      A                      A                      A
 Frequencies --    786.2267               842.1555               878.2826
 Red. masses --      1.6823                 2.1918                 2.2986
 Frc consts  --      0.6127                 0.9159                 1.0447
 IR Inten    --      6.4900                 6.4725                 8.8792

                     16                     17                     18
                      A                      A                      A
 Frequencies --    886.8490               927.2674               938.2466
 Red. masses --      1.9890                 1.7729                 2.5510
 Frc consts  --      0.9217                 0.8981                 1.3231
 IR Inten    --      4.0782                 4.8415                15.2085

                     19                     20                     21
                      A                      A                      A
 Frequencies --    961.1005               986.4469              1009.8140
 Red. masses --      2.5317                 2.2511                 2.4025
 Frc consts  --      1.3778                 1.2906                 1.4434
 IR Inten    --      0.5250                 2.1119                15.7285

                     22                     23                     24
                      A                      A                      A
 Frequencies --   1015.4939              1052.5000              1070.8593
 Red. masses --      1.3951                 2.5459                 2.1265
 Frc consts  --      0.8476                 1.6617                 1.4367
 IR Inten    --     10.6878                24.8399                43.4266

                     25                     26                     27
                      A                      A                      A
 Frequencies --   1084.1842              1113.4554              1144.9255
 Red. masses --      1.8038                 1.6554                 3.7369
 Frc consts  --      1.2492                 1.2092                 2.8861
 IR Inten    --      7.5120                 2.0375                82.9084

                     28                     29                     30
                      A                      A                      A
 Frequencies --   1191.3408              1232.9415              1234.5377
 Red. masses --      1.4887                 1.5788                 1.2097
 Frc consts  --      1.2449                 1.4141                 1.0862
 IR Inten    --     11.4465                65.5541                 3.2876

                     31                     32                     33
                      A                      A                      A
 Frequencies --   1251.0125              1261.6662              1268.4110
 Red. masses --      1.4857                 1.7992                 1.7211
 Frc consts  --      1.3700                 1.6874                 1.6314
 IR Inten    --     14.1798                25.9695                 8.0513

                     34                     35                     36
                      A                      A                      A
 Frequencies --   1280.3342              1315.7409              1332.0479
 Red. masses --      1.6080                 1.3133                 1.9075
 Frc consts  --      1.5531                 1.3395                 1.9941
 IR Inten    --     13.2368                40.4217                 4.8971

                     37                     38                     39
                      A                      A                      A
 Frequencies --   1370.7997              1402.1422              1472.3823
 Red. masses --      1.3984                 1.5605                 1.3933
 Frc consts  --      1.5482                 1.8076                 1.7797
 IR Inten    --      6.3266                 1.5486                 6.2738

                     40                     41                     42
                      A                      A                      A
 Frequencies --   1475.2753              1492.2388              3053.8058
 Red. masses --      1.2085                 1.1158                 1.0847
 Frc consts  --      1.5497                 1.4639                 5.9600
 IR Inten    --      6.3756                 4.1151                28.4891

                     43                     44                     45
                      A                      A                      A
 Frequencies --   3067.8125              3073.5340              3089.2167
 Red. masses --      1.0583                 1.0631                 1.0891
 Frc consts  --      5.8682                 5.9170                 6.1235
 IR Inten    --     34.8007                34.0395                36.3029

                     46                     47                     48
                      A                      A                      A
 Frequencies --   3117.7479              3122.7407              3133.8422
 Red. masses --      1.1067                 1.0532                 1.1070
 Frc consts  --      6.3380                 6.0511                 6.4055
 IR Inten    --      7.9244                 7.4468                35.1959

                     49                     50                     51
                      A                      A                      A
 Frequencies --   3176.5984              3219.8019              3789.4839
 Red. masses --      1.0922                 1.1176                 1.0661
 Frc consts  --      6.4934                 6.8263                 9.0204
 IR Inten    --     12.4498                 7.2306                19.5917

 - Thermochemistry -
 -------------------
 Temperature   298.150 Kelvin.  Pressure   1.00000 Atm.
 Atom     1 has atomic number  8 and mass  15.99491

 Molecular mass:   126.06808 amu.
 Principal axes and moments of inertia in atomic units:
                           1         2         3
     Eigenvalues --   684.86584 967.823001348.42973
           X            0.99922   0.03826  -0.00989
           Y           -0.03823   0.99927   0.00268
           Z            0.00999  -0.00230   0.99995
 This molecule is an asymmetric top.
 Rotational symmetry number  1.
 Warning -- assumption of classical behavior for rotation
           may cause significant error
 Rotational temperatures (Kelvin)      0.12647     0.08949     0.06423
 Rotational constants (GHZ):           2.63517     1.86474     1.33840
 Zero-point vibrational energy     420458.8 (Joules/Mol)
                                  100.49207 (Kcal/Mol)
 Warning -- explicit consideration of   9 degrees of freedom as
           vibrations may cause significant error
 Vibrational temperatures:    130.73   264.70   363.68   451.23   518.79
          (Kelvin)            541.96   653.14   680.52   805.51   962.71
                             1004.75  1063.58  1131.20  1211.67  1263.65
                             1275.98  1334.13  1349.93  1382.81  1419.28
                             1452.90  1461.07  1514.31  1540.73  1559.90
                             1602.01  1647.29  1714.07  1773.93  1776.22
                             1799.93  1815.25  1824.96  1842.11  1893.06
                             1916.52  1972.27  2017.37  2118.43  2122.59
                             2147.00  4393.74  4413.89  4422.12  4444.69
                             4485.74  4492.92  4508.89  4570.41  4632.57
                             5452.22

 Zero-point correction=                           0.160144 (Hartree/Particle)
 Thermal correction to Energy=                    0.167701
 Thermal correction to Enthalpy=                  0.168645
 Thermal correction to Gibbs Free Energy=         0.128347
 Sum of electronic and zero-point Energies=           -422.996764
 Sum of electronic and thermal Energies=              -422.989208
 Sum of electronic and thermal Enthalpies=            -422.988263
 Sum of electronic and thermal Free Energies=         -423.028561

                     E (Thermal)             CV                S
                      KCal/Mol        Cal/Mol-Kelvin    Cal/Mol-Kelvin
 Total                  105.234             30.693             84.814
 Electronic               0.000              0.000              0.000
 Translational            0.889              2.981             40.409
 Rotational               0.889              2.981             28.282
 Vibrational            103.457             24.731             16.124
 Vibration     1          0.602              1.956              3.641
 Vibration     2          0.631              1.862              2.288
 Vibration     3          0.664              1.758              1.711
 Vibration     4          0.701              1.648              1.343
 Vibration     5          0.735              1.553              1.120
 Vibration     6          0.747              1.520              1.052
 Vibration     7          0.812              1.352              0.784
 Vibration     8          0.830              1.310              0.729
 Vibration     9          0.915              1.118              0.524

 Optimization completed.
    -- Stationary point found.
 Normal termination of Gaussian 09 at Mon Jan 27 18:31:14 2020.
