 Gaussian 09, Revision D.01,
 Gaussian 09:  ES64L-G09RevD.01 24-Apr-2013

 -----------------------------
 # b3lyp 6-31G(2df,p) opt Freq
 -----------------------------

 -----
 titel
 -----
 Symbolic Z-matrix:
 Charge =  0 Multiplicity = 1

 SCF Done:  E(RB3LYP) =  -423.175992148     A.U. after   14 cycles
 Optimization completed.
    -- Stationary point found.
 Normal termination of Gaussian 09 at Tue Jan 28 09:20:57 2020.

 ----------------------------------------------------------------------
 #N Geom=AllCheck Guess=TCheck SCRF=Check GenChk RB3LYP/6-31G(2df,p) Fr
 eq
 ----------------------------------------------------------------------

 Structure from the checkpoint file:  "/scratch/puck/g09_cc230798-5ed1-483a-89bd-bc66729bec98/Gau-82349.chk"
 -----
 titel
 -----
 Charge =  0 Multiplicity = 1

                         Standard orientation:
 ---------------------------------------------------------------------
 Center     Atomic      Atomic             Coordinates (Angstroms)
 Number     Number       Type             X           Y           Z
 ---------------------------------------------------------------------
      1          6           0        2.557948    0.366712   -0.367113
      2          6           0        1.274863   -0.421171   -0.522612
      3          6           0        0.744636   -1.193686    0.636790
      4          6           0       -0.446875   -2.055682    0.184454
      5          6           0       -1.145618   -0.727504   -0.194229
      6          8           0       -2.283157   -0.433111   -0.462648
      7          6           0        0.025567    0.116598    0.181295
      8          6           0       -0.178383    1.508190    0.725959
      9          8           0       -0.871458    2.303476   -0.221827
     10          1           0        2.699202    0.715757    0.660246
     11          1           0        3.417964   -0.259623   -0.624816
     12          1           0        2.568093    1.241777   -1.024460
     13          1           0        1.144637   -0.853155   -1.514118
     14          1           0        1.304964   -1.332950    1.552637
     15          1           0       -0.254997   -2.781738   -0.611270
     16          1           0       -0.990715   -2.547198    0.996316
     17          1           0       -0.729961    1.453385    1.678257
     18          1           0        0.770991    2.012062    0.928789
     19          1           0       -1.686076    1.828025   -0.433042
 ---------------------------------------------------------------------

 SCF Done:  E(RB3LYP) =  -423.175992148     A.U. after    1 cycles

 The electronic state is 1-A.
 Alpha  occ. eigenvalues --  -19.13866 -19.12775 -10.27316 -10.23456 -10.21700
 Alpha  occ. eigenvalues --  -10.21670 -10.20694 -10.20240 -10.19331  -1.04766
 Alpha  occ. eigenvalues --   -1.01033  -0.91499  -0.76619  -0.71886  -0.67876
 Alpha  occ. eigenvalues --   -0.62767  -0.58335  -0.52224  -0.50478  -0.48004
 Alpha  occ. eigenvalues --   -0.47357  -0.45674  -0.43383  -0.41547  -0.40889
 Alpha  occ. eigenvalues --   -0.40252  -0.38756  -0.37980  -0.36563  -0.34107
 Alpha  occ. eigenvalues --   -0.30662  -0.27811  -0.26364  -0.24562
 Alpha virt. eigenvalues --   -0.01613   0.07672   0.09078   0.09873   0.11326
 Alpha virt. eigenvalues --    0.12169   0.13952   0.14639   0.15721   0.16202
 Alpha virt. eigenvalues --    0.17224   0.17317   0.18861   0.20166   0.21420

 Mulliken charges:
               1
     1  C   -0.432033
     2  C   -0.048354
     3  C   -0.138846
     4  C   -0.363493
     5  C    0.367946
     6  O   -0.342737
     7  C    0.213615
     8  C   -0.187377
     9  O   -0.419602
    10  H    0.122771
    11  H    0.126739
    12  H    0.139036
    13  H    0.093269
    14  H    0.107199
    15  H    0.123435
    16  H    0.134913
    17  H    0.094863
    18  H    0.110648
    19  H    0.298008
 Sum of Mulliken charges =   0.00000

 Dipole moment (field-independent basis, Debye):
    X=              2.7998    Y=             -1.9483    Z=              1.1851  Tot=              3.6110
 Quadrupole moment (field-independent basis, Debye-Ang):
   XX=            -56.4747   YY=            -56.4420   ZZ=            -51.3037
   XY=              0.2030   XZ=             -1.5996   YZ=              0.7108

  Exact polarizability:  87.160   0.829  80.837   0.619  -0.888  62.857
 Approx polarizability: 130.084  -4.242 114.016   5.835  -4.179  99.033

                      1                      2                      3
                      A                      A                      A
 Frequencies --     77.0157               103.9389               170.9049
 Red. masses --      3.9511                 5.1590                 2.7615
 Frc consts  --      0.0138                 0.0328                 0.0475
 IR Inten    --      5.3408                 1.3540                 1.6860

                      4                      5                      6
                      A                      A                      A
 Frequencies --    206.3147               246.1541               264.5264
 Red. masses --      1.5483                 1.7616                 2.5875
 Frc consts  --      0.0388                 0.0629                 0.1067
 IR Inten    --      0.7075                 0.4165                 2.3683

                      7                      8                      9
                      A                      A                      A
 Frequencies --    277.0565               381.3108               464.1028
 Red. masses --      2.2646                 5.2853                 2.8796
 Frc consts  --      0.1024                 0.4528                 0.3654
 IR Inten    --      1.1064                 1.0778                 3.9443

                     10                     11                     12
                      A                      A                      A
 Frequencies --    500.6741               520.7372               556.3723
 Red. masses --      1.1888                 3.2735                 2.4027
 Frc consts  --      0.1756                 0.5230                 0.4382
 IR Inten    --    103.6637                23.5526                 7.9446

                     13                     14                     15
                      A                      A                      A
 Frequencies --    657.1949               734.9623               783.3845
 Red. masses --      3.5287                 3.5909                 3.5392
 Frc consts  --      0.8979                 1.1428                 1.2797
 IR Inten    --      7.2449                10.8918                 5.6929

                     16                     17                     18
                      A                      A                      A
 Frequencies --    834.6462               926.5051               941.5454
 Red. masses --      2.8000                 1.6838                 1.7874
 Frc consts  --      1.1492                 0.8516                 0.9336
 IR Inten    --     11.1998                 3.5809                 2.8347

                     19                     20                     21
                      A                      A                      A
 Frequencies --    980.6760               984.5046              1014.9171
 Red. masses --      1.7985                 1.7945                 2.1858
 Frc consts  --      1.0191                 1.0248                 1.3265
 IR Inten    --     23.7324                 0.6015                23.1792

                     22                     23                     24
                      A                      A                      A
 Frequencies --   1046.9751              1052.7998              1069.8225
 Red. masses --      1.7472                 2.2409                 3.5279
 Frc consts  --      1.1284                 1.4634                 2.3790
 IR Inten    --     44.6198                56.9298                18.0900

                     25                     26                     27
                      A                      A                      A
 Frequencies --   1094.3001              1140.4687              1168.5623
 Red. masses --      1.7579                 1.5615                 1.4935
 Frc consts  --      1.2402                 1.1966                 1.2016
 IR Inten    --      9.7963                13.2868                 2.5338

                     28                     29                     30
                      A                      A                      A
 Frequencies --   1205.9562              1221.2654              1248.4467
 Red. masses --      1.5447                 1.5977                 1.5969
 Frc consts  --      1.3236                 1.4040                 1.4665
 IR Inten    --      4.5928                 9.9377                 3.2017

                     31                     32                     33
                      A                      A                      A
 Frequencies --   1279.7751              1358.0497              1378.2738
 Red. masses --      1.6176                 2.4282                 1.2787
 Frc consts  --      1.5609                 2.6385                 1.4312
 IR Inten    --     16.6365                17.9688                 2.0787

                     34                     35                     36
                      A                      A                      A
 Frequencies --   1416.6388              1421.0694              1446.8717
 Red. masses --      1.2742                 2.3155                 1.2473
 Frc consts  --      1.5067                 2.7551                 1.5384
 IR Inten    --      4.7737                 4.4443                88.5583

                     37                     38                     39
                      A                      A                      A
 Frequencies --   1458.9098              1491.9701              1500.9225
 Red. masses --      1.1372                 1.0467                 1.0873
 Frc consts  --      1.4260                 1.3727                 1.4431
 IR Inten    --      1.7118                 4.2562                 7.9481

                     40                     41                     42
                      A                      A                      A
 Frequencies --   1509.8483              1845.9438              2973.3713
 Red. masses --      1.0860                12.3443                 1.0717
 Frc consts  --      1.4586                24.7831                 5.5825
 IR Inten    --      0.2272               322.6763                60.5700

                     43                     44                     45
                      A                      A                      A
 Frequencies --   3037.2353              3054.7141              3082.9609
 Red. masses --      1.0352                 1.0587                 1.0906
 Frc consts  --      5.6266                 5.8204                 6.1071
 IR Inten    --     20.0249                20.8885                28.7003

                     46                     47                     48
                      A                      A                      A
 Frequencies --   3098.8047              3105.2599              3110.3252
 Red. masses --      1.0928                 1.1011                 1.1058
 Frc consts  --      6.1828                 6.2556                 6.3027
 IR Inten    --      0.5341                15.7857                 8.4387

                     49                     50                     51
                      A                      A                      A
 Frequencies --   3116.3781              3200.6188              3761.5397
 Red. masses --      1.0965                 1.0928                 1.0663
 Frc consts  --      6.2741                 6.5954                 8.8890
 IR Inten    --     37.6150                 5.5821                44.8849

 - Thermochemistry -
 -------------------
 Temperature   298.150 Kelvin.  Pressure   1.00000 Atm.
 Atom     1 has atomic number  6 and mass  12.00000

 Molecular mass:   126.06808 amu.
 Principal axes and moments of inertia in atomic units:
                           1         2         3
     Eigenvalues --   910.789281020.031261692.40382
           X            0.99747   0.06960  -0.01441
           Y           -0.06951   0.99756   0.00645
           Z            0.01483  -0.00543   0.99988
 This molecule is an asymmetric top.
 Rotational symmetry number  1.
 Warning -- assumption of classical behavior for rotation
           may cause significant error
 Rotational temperatures (Kelvin)      0.09510     0.08491     0.05118
 Rotational constants (GHZ):           1.98151     1.76930     1.06638
 Zero-point vibrational energy     415855.0 (Joules/Mol)
                                   99.39172 (Kcal/Mol)
 Warning -- explicit consideration of  12 degrees of freedom as
           vibrations may cause significant error
 Vibrational temperatures:    110.81   149.54   245.89   296.84   354.16
          (Kelvin)            380.59   398.62   548.62   667.74   720.36
                              749.22   800.49   945.56  1057.45  1127.11
                             1200.87  1333.03  1354.67  1410.97  1416.48
                             1460.24  1506.36  1514.74  1539.23  1574.45
                             1640.88  1681.30  1735.10  1757.13  1796.23
                             1841.31  1953.93  1983.03  2038.22  2044.60
                             2081.72  2099.04  2146.61  2159.49  2172.33
                             2655.90  4278.01  4369.90  4395.05  4435.69
                             4458.48  4467.77  4475.06  4483.77  4604.97
                             5412.01

 Zero-point correction=                           0.158391 (Hartree/Particle)
 Thermal correction to Energy=                    0.167357
 Thermal correction to Enthalpy=                  0.168301
 Thermal correction to Gibbs Free Energy=         0.124657
 Sum of electronic and zero-point Energies=           -423.017601
 Sum of electronic and thermal Energies=              -423.008635
 Sum of electronic and thermal Enthalpies=            -423.007691
 Sum of electronic and thermal Free Energies=         -423.051335

                     E (Thermal)             CV                S
                      KCal/Mol        Cal/Mol-Kelvin    Cal/Mol-Kelvin
 Total                  105.018             33.539             91.857
 Electronic               0.000              0.000              0.000
 Translational            0.889              2.981             40.409
 Rotational               0.889              2.981             28.843
 Vibrational            103.241             27.577             22.605
 Vibration     1          0.599              1.964              3.966
 Vibration     2          0.605              1.946              3.379
 Vibration     3          0.626              1.878              2.426
 Vibration     4          0.641              1.831              2.076
 Vibration     5          0.661              1.769              1.758
 Vibration     6          0.671              1.738              1.632
 Vibration     7          0.678              1.716              1.552
 Vibration     8          0.751              1.510              1.034
 Vibration     9          0.822              1.330              0.754
 Vibration    10          0.856              1.249              0.656
 Vibration    11          0.876              1.204              0.608
 Vibration    12          0.912              1.126              0.531

 Optimization completed.
    -- Stationary point found.
 Normal termination of Gaussian 09 at Tue Jan 28 10:18:42 2020.
