 Gaussian 09, Revision D.01,
 Gaussian 09:  ES64L-G09RevD.01 24-Apr-2013

 -----------------------------
 # b3lyp 6-31G(2df,p) opt Freq
 -----------------------------

 -----
 titel
 -----
 Symbolic Z-matrix:
 Charge =  0 Multiplicity = 1

 SCF Done:  E(RB3LYP) =  -423.169392233     A.U. after   15 cycles
 Optimization completed.
    -- Stationary point found.
 Normal termination of Gaussian 09 at Tue Jan 28 08:18:45 2020.

 ----------------------------------------------------------------------
 #N Geom=AllCheck Guess=TCheck SCRF=Check GenChk RB3LYP/6-31G(2df,p) Fr
 eq
 ----------------------------------------------------------------------

 Structure from the checkpoint file:  "/scratch/puck/g09_3b37d991-4555-488f-975c-f882308a9fb1/Gau-79825.chk"
 -----
 titel
 -----
 Charge =  0 Multiplicity = 1

                         Standard orientation:
 ---------------------------------------------------------------------
 Center     Atomic      Atomic             Coordinates (Angstroms)
 Number     Number       Type             X           Y           Z
 ---------------------------------------------------------------------
      1          6           0       -3.592018    0.813721    0.131234
      2          6           0       -2.923975   -0.543801   -0.154096
      3          6           0       -1.468209   -0.495703   -0.071223
      4          6           0       -0.267562   -0.443691    0.024317
      5          6           0        1.199991   -0.352950    0.103329
      6          6           0        1.864474   -1.606949   -0.494413
      7          8           0        1.655259   -0.164178    1.422230
      8          6           0        1.578584    0.876868   -0.737336
      9          8           0        2.109101    1.840047   -0.246164
     10          1           0       -3.338857    1.167280    1.134092
     11          1           0       -3.261126    1.569066   -0.586580
     12          1           0       -4.679850    0.723462    0.060441
     13          1           0       -3.297748   -1.294650    0.553704
     14          1           0       -3.217194   -0.898015   -1.150658
     15          1           0        1.579913   -2.475954    0.102591
     16          1           0        1.542167   -1.771707   -1.526444
     17          1           0        2.952059   -1.497846   -0.461979
     18          1           0        1.941615    0.762570    1.467336
     19          1           0        1.316437    0.823876   -1.811909
 ---------------------------------------------------------------------

 SCF Done:  E(RB3LYP) =  -423.169392233     A.U. after    1 cycles

 The electronic state is 1-A.
 Alpha  occ. eigenvalues --  -19.16410 -19.13655 -10.28611 -10.26968 -10.21425
 Alpha  occ. eigenvalues --  -10.19014 -10.18737 -10.18574 -10.17718  -1.07604
 Alpha  occ. eigenvalues --   -1.02163  -0.80897  -0.78951  -0.72210  -0.67045
 Alpha  occ. eigenvalues --   -0.64089  -0.59292  -0.52813  -0.51940  -0.47673
 Alpha  occ. eigenvalues --   -0.46608  -0.46121  -0.43206  -0.40525  -0.40354
 Alpha  occ. eigenvalues --   -0.39230  -0.38975  -0.37572  -0.36789  -0.35497
 Alpha  occ. eigenvalues --   -0.29634  -0.28106  -0.26170  -0.25275
 Alpha virt. eigenvalues --   -0.04004   0.03847   0.05749   0.10178   0.10886
 Alpha virt. eigenvalues --    0.12656   0.14188   0.14525   0.15129   0.16383
 Alpha virt. eigenvalues --    0.16628   0.17118   0.18683   0.19699   0.22302

 Mulliken charges:
               1
     1  C   -0.365857
     2  C   -0.316891
     3  C    0.015663
     4  C    0.104238
     5  C    0.094324
     6  C   -0.410840
     7  O   -0.440888
     8  C    0.138179
     9  O   -0.264569
    10  H    0.134292
    11  H    0.128845
    12  H    0.117476
    13  H    0.136837
    14  H    0.131918
    15  H    0.145945
    16  H    0.122975
    17  H    0.129382
    18  H    0.292854
    19  H    0.106117
 Sum of Mulliken charges =   0.00000

 Dipole moment (field-independent basis, Debye):
    X=             -1.7880    Y=             -0.9641    Z=             -1.8080  Tot=              2.7194
 Quadrupole moment (field-independent basis, Debye-Ang):
   XX=            -48.6134   YY=            -55.9249   ZZ=            -53.4102
   XY=             -2.3263   XZ=             -2.0306   YZ=              1.8073

  Exact polarizability: 110.581   3.040  72.370   1.927   1.622  65.384
 Approx polarizability: 153.465  12.567 105.296   8.043   3.605  98.527

                      1                      2                      3
                      A                      A                      A
 Frequencies --     25.0825                57.8741               101.0623
 Red. masses --      2.3649                 5.1907                 3.2495
 Frc consts  --      0.0009                 0.0102                 0.0196
 IR Inten    --      0.2006                 0.0956                 1.9152

                      4                      5                      6
                      A                      A                      A
 Frequencies --    128.7548               187.8782               219.4012
 Red. masses --      3.2098                 3.1897                 1.2460
 Frc consts  --      0.0314                 0.0663                 0.0353
 IR Inten    --      2.1750                 0.0275                 0.2683

                      7                      8                      9
                      A                      A                      A
 Frequencies --    230.3236               298.7997               321.5045
 Red. masses --      1.0806                 2.8013                 2.5519
 Frc consts  --      0.0338                 0.1474                 0.1554
 IR Inten    --      0.1865                10.0076                11.2687

                     10                     11                     12
                      A                      A                      A
 Frequencies --    347.2054               364.0032               426.1212
 Red. masses --      3.2831                 3.1060                 4.6830
 Frc consts  --      0.2332                 0.2425                 0.5010
 IR Inten    --     30.6910                 0.5681                 2.0008

                     13                     14                     15
                      A                      A                      A
 Frequencies --    441.5586               525.0866               565.7778
 Red. masses --      1.3134                 5.6089                 5.0844
 Frc consts  --      0.1509                 0.9112                 0.9589
 IR Inten    --     45.6710                 8.8998                 3.3118

                     16                     17                     18
                      A                      A                      A
 Frequencies --    588.7164               775.1619               784.9174
 Red. masses --      3.7779                 3.5710                 1.1842
 Frc consts  --      0.7715                 1.2642                 0.4299
 IR Inten    --      3.4376                19.4204                 2.3461

                     19                     20                     21
                      A                      A                      A
 Frequencies --    851.3385               904.3582               949.3319
 Red. masses --      3.4169                 2.0359                 2.1416
 Frc consts  --      1.4591                 0.9811                 1.1372
 IR Inten    --     35.1752                 4.8732                 4.2583

                     22                     23                     24
                      A                      A                      A
 Frequencies --   1006.6594              1060.7754              1091.0226
 Red. masses --      1.7242                 2.6018                 1.8635
 Frc consts  --      1.0295                 1.7250                 1.3069
 IR Inten    --      7.1737                 4.3349                 9.7372

                     25                     26                     27
                      A                      A                      A
 Frequencies --   1102.8226              1103.8783              1189.7996
 Red. masses --      1.9356                 1.6247                 3.6189
 Frc consts  --      1.3870                 1.1664                 3.0184
 IR Inten    --     36.0060                 9.9013                10.3339

                     28                     29                     30
                      A                      A                      A
 Frequencies --   1229.9629              1286.2180              1349.5501
 Red. masses --      3.8209                 1.1486                 1.5083
 Frc consts  --      3.4057                 1.1196                 1.6185
 IR Inten    --     71.3170                 0.1147                30.5471

                     31                     32                     33
                      A                      A                      A
 Frequencies --   1376.0349              1397.9994              1410.8738
 Red. masses --      1.1756                 1.2284                 1.2107
 Frc consts  --      1.3115                 1.4145                 1.4199
 IR Inten    --     59.6882                 5.7764                 1.3426

                     34                     35                     36
                      A                      A                      A
 Frequencies --   1421.8931              1471.8742              1480.7657
 Red. masses --      1.3143                 1.0734                 1.0708
 Frc consts  --      1.5656                 1.3701                 1.3834
 IR Inten    --     52.3971                 3.3598                 2.3457

                     37                     38                     39
                      A                      A                      A
 Frequencies --   1490.3184              1495.2685              1505.2133
 Red. masses --      1.0521                 1.0393                 1.0559
 Frc consts  --      1.3768                 1.3691                 1.4095
 IR Inten    --      2.4316                 4.7118                 1.3651

                     40                     41                     42
                      A                      A                      A
 Frequencies --   1819.3142              2351.3977              2951.4091
 Red. masses --     10.4313                11.9206                 1.0874
 Frc consts  --     20.3426                38.8330                 5.5807
 IR Inten    --    168.0298                22.9478                59.4802

                     43                     44                     45
                      A                      A                      A
 Frequencies --   3022.7803              3045.9007              3046.6695
 Red. masses --      1.0589                 1.0336                 1.0346
 Frc consts  --      5.7005                 5.6496                 5.6581
 IR Inten    --     21.2159                21.0756                20.8448

                     46                     47                     48
                      A                      A                      A
 Frequencies --   3050.8499              3120.3909              3126.0812
 Red. masses --      1.1006                 1.1022                 1.1032
 Frc consts  --      6.0358                 6.3233                 6.3517
 IR Inten    --      7.6568                28.0827                17.4392

                     49                     50                     51
                      A                      A                      A
 Frequencies --   3126.9394              3137.0555              3683.3187
 Red. masses --      1.1029                 1.1024                 1.0647
 Frc consts  --      6.3539                 6.3919                 8.5108
 IR Inten    --     22.7421                 8.5825                74.2579

 - Thermochemistry -
 -------------------
 Temperature   298.150 Kelvin.  Pressure   1.00000 Atm.
 Atom     1 has atomic number  6 and mass  12.00000

 Molecular mass:   126.06808 amu.
 Principal axes and moments of inertia in atomic units:
                           1         2         3
     Eigenvalues --   668.277072239.554182517.99311
           X            0.99952  -0.03016  -0.00737
           Y            0.03047   0.99845   0.04662
           Z            0.00595  -0.04682   0.99889
 This molecule is an asymmetric top.
 Rotational symmetry number  1.
 Warning -- assumption of classical behavior for rotation
           may cause significant error
 Rotational temperatures (Kelvin)      0.12961     0.03867     0.03440
 Rotational constants (GHZ):           2.70059     0.80585     0.71674
 Zero-point vibrational energy     407013.2 (Joules/Mol)
                                   97.27849 (Kcal/Mol)
 Warning -- explicit consideration of  16 degrees of freedom as
           vibrations may cause significant error
 Vibrational temperatures:     36.09    83.27   145.41   185.25   270.31
          (Kelvin)            315.67   331.38   429.91   462.57   499.55
                              523.72   613.09   635.30   755.48   814.03
                              847.03  1115.28  1129.32  1224.88  1301.17
                             1365.88  1448.36  1526.22  1569.74  1586.71
                             1588.23  1711.85  1769.64  1850.58  1941.70
                             1979.80  2011.41  2029.93  2045.78  2117.70
                             2130.49  2144.23  2151.36  2165.66  2617.58
                             3383.13  4246.41  4349.10  4382.37  4383.47
                             4389.49  4489.54  4497.73  4498.96  4513.52
                             5299.47

 Zero-point correction=                           0.155023 (Hartree/Particle)
 Thermal correction to Energy=                    0.165817
 Thermal correction to Enthalpy=                  0.166762
 Thermal correction to Gibbs Free Energy=         0.117779
 Sum of electronic and zero-point Energies=           -423.014369
 Sum of electronic and thermal Energies=              -423.003575
 Sum of electronic and thermal Enthalpies=            -423.002631
 Sum of electronic and thermal Free Energies=         -423.051613

                     E (Thermal)             CV                S
                      KCal/Mol        Cal/Mol-Kelvin    Cal/Mol-Kelvin
 Total                  104.052             37.754            103.093
 Electronic               0.000              0.000              0.000
 Translational            0.889              2.981             40.409
 Rotational               0.889              2.981             29.712
 Vibrational            102.275             31.792             32.973
 Vibration     1          0.593              1.985              6.185
 Vibration     2          0.596              1.974              4.528
 Vibration     3          0.604              1.948              3.434
 Vibration     4          0.611              1.924              2.965
 Vibration     5          0.633              1.857              2.249
 Vibration     6          0.647              1.812              1.964
 Vibration     7          0.652              1.795              1.876
 Vibration     8          0.692              1.676              1.424
 Vibration     9          0.707              1.632              1.302
 Vibration    10          0.725              1.581              1.179
 Vibration    11          0.738              1.546              1.105
 Vibration    12          0.788              1.413              0.871
 Vibration    13          0.801              1.380              0.822
 Vibration    14          0.880              1.194              0.598
 Vibration    15          0.922              1.105              0.512
 Vibration    16          0.946              1.056              0.469

 Optimization completed.
    -- Stationary point found.
 Normal termination of Gaussian 09 at Tue Jan 28 09:05:23 2020.
