 Gaussian 09, Revision D.01,
 Gaussian 09:  ES64L-G09RevD.01 24-Apr-2013

 -----------------------------
 # b3lyp 6-31G(2df,p) opt Freq
 -----------------------------

 -----
 titel
 -----
 Symbolic Z-matrix:
 Charge =  0 Multiplicity = 1

 SCF Done:  E(RB3LYP) =  -423.201108822     A.U. after   14 cycles
 Optimization completed.
    -- Stationary point found.
 Normal termination of Gaussian 09 at Mon Jan 27 22:03:07 2020.

 ----------------------------------------------------------------------
 #N Geom=AllCheck Guess=TCheck SCRF=Check GenChk RB3LYP/6-31G(2df,p) Fr
 eq
 ----------------------------------------------------------------------

 Structure from the checkpoint file:  "/scratch/puck/g09_f56441ac-7fff-409a-95ba-4e7d36f56951/Gau-53249.chk"
 -----
 titel
 -----
 Charge =  0 Multiplicity = 1

                         Standard orientation:
 ---------------------------------------------------------------------
 Center     Atomic      Atomic             Coordinates (Angstroms)
 Number     Number       Type             X           Y           Z
 ---------------------------------------------------------------------
      1          6           0        0.025351    2.142413    0.232861
      2          6           0        0.664321    0.797026    0.111178
      3          6           0        0.142326   -0.412255    0.335938
      4          6           0       -1.262568   -0.752359    0.764978
      5          6           0       -2.210809   -0.596232   -0.412915
      6          8           0       -3.094141    0.219387   -0.470270
      7          6           0        1.184871   -1.467339    0.072812
      8          8           0        2.353608   -0.765680   -0.324555
      9          6           0        2.104138    0.635494   -0.303300
     10          1           0        0.101779    2.696815   -0.710664
     11          1           0       -1.033286    2.072670    0.491686
     12          1           0        0.530192    2.751025    0.993950
     13          1           0       -1.304835   -1.792629    1.112631
     14          1           0       -1.614777   -0.105985    1.573222
     15          1           0       -2.006911   -1.285562   -1.263283
     16          1           0        1.390908   -2.072856    0.972196
     17          1           0        0.882237   -2.171883   -0.720432
     18          1           0        2.793687    1.132646    0.399342
     19          1           0        2.299483    1.065618   -1.299357
 ---------------------------------------------------------------------

 SCF Done:  E(RB3LYP) =  -423.201108822     A.U. after    1 cycles

 The electronic state is 1-A.
 Alpha  occ. eigenvalues --  -19.14502 -19.13723 -10.27855 -10.23485 -10.23253
 Alpha  occ. eigenvalues --  -10.20661 -10.19827 -10.19738 -10.19151  -1.05200
 Alpha  occ. eigenvalues --   -1.03693  -0.82923  -0.77268  -0.72222  -0.69601
 Alpha  occ. eigenvalues --   -0.60891  -0.58772  -0.53390  -0.49050  -0.48461
 Alpha  occ. eigenvalues --   -0.47681  -0.44291  -0.43423  -0.42746  -0.42492
 Alpha  occ. eigenvalues --   -0.40504  -0.40291  -0.39100  -0.36823  -0.34878
 Alpha  occ. eigenvalues --   -0.31810  -0.27664  -0.25573  -0.22915
 Alpha virt. eigenvalues --   -0.02804   0.01628   0.08051   0.10534   0.10658
 Alpha virt. eigenvalues --    0.12801   0.13849   0.14876   0.15465   0.15920
 Alpha virt. eigenvalues --    0.17032   0.17624   0.19199   0.20602   0.21940

 Mulliken charges:
               1
     1  C   -0.506877
     2  C    0.205772
     3  C    0.158239
     4  C   -0.391310
     5  C    0.168360
     6  O   -0.240007
     7  C   -0.155003
     8  O   -0.262334
     9  C   -0.140377
    10  H    0.135723
    11  H    0.147214
    12  H    0.131483
    13  H    0.122706
    14  H    0.132263
    15  H    0.082703
    16  H    0.102169
    17  H    0.101851
    18  H    0.102874
    19  H    0.104551
 Sum of Mulliken charges =   0.00000

 Dipole moment (field-independent basis, Debye):
    X=              0.6135    Y=             -0.2962    Z=              0.8852  Tot=              1.1170
 Quadrupole moment (field-independent basis, Debye-Ang):
   XX=            -66.7000   YY=            -48.9219   ZZ=            -52.5565
   XY=              6.8337   XZ=             -1.0936   YZ=             -0.3314

  Exact polarizability:  87.415   5.138  90.974  -0.796  -1.320  61.562
 Approx polarizability: 121.984   6.272 139.167  -1.806  -4.363  92.926

                      1                      2                      3
                      A                      A                      A
 Frequencies --     32.3783                63.1225               110.8278
 Red. masses --      4.4645                 5.6945                 2.6100
 Frc consts  --      0.0028                 0.0134                 0.0189
 IR Inten    --      4.5567                 6.2916                 4.3770

                      4                      5                      6
                      A                      A                      A
 Frequencies --    142.0742               154.7658               214.3170
 Red. masses --      1.3478                 1.5216                 2.2419
 Frc consts  --      0.0160                 0.0215                 0.0607
 IR Inten    --      1.6075                 1.3817                 1.0586

                      7                      8                      9
                      A                      A                      A
 Frequencies --    243.1276               325.7925               358.6378
 Red. masses --      2.7334                 3.1800                 2.7554
 Frc consts  --      0.0952                 0.1989                 0.2088
 IR Inten    --      0.7031                 4.2588                 4.7018

                     10                     11                     12
                      A                      A                      A
 Frequencies --    468.2674               545.9637               614.5847
 Red. masses --      2.5601                 2.8231                 4.5533
 Frc consts  --      0.3307                 0.4958                 1.0133
 IR Inten    --     10.1374                 9.1735                 2.1440

                     13                     14                     15
                      A                      A                      A
 Frequencies --    649.3684               812.6336               849.2979
 Red. masses --      3.5994                 3.1027                 2.4285
 Frc consts  --      0.8942                 1.2072                 1.0321
 IR Inten    --      1.3981                 6.7554                 9.9719

                     16                     17                     18
                      A                      A                      A
 Frequencies --    926.4020               951.3286               962.5422
 Red. masses --      2.0761                 4.1365                 1.3827
 Frc consts  --      1.0498                 2.2057                 0.7548
 IR Inten    --      1.2497                13.2150                11.2544

                     19                     20                     21
                      A                      A                      A
 Frequencies --   1003.4297              1034.6333              1065.9838
 Red. masses --      1.5627                 1.7186                 2.1410
 Frc consts  --      0.9270                 1.0839                 1.4334
 IR Inten    --      9.7025                10.2903                11.9582

                     22                     23                     24
                      A                      A                      A
 Frequencies --   1093.8928              1095.8177              1126.6198
 Red. masses --      2.6502                 2.8888                 2.9760
 Frc consts  --      1.8684                 2.0438                 2.2256
 IR Inten    --     38.2821                33.8141                14.0975

                     25                     26                     27
                      A                      A                      A
 Frequencies --   1171.2342              1183.8596              1223.5630
 Red. masses --      1.1138                 2.5523                 1.1041
 Frc consts  --      0.9002                 2.1076                 0.9739
 IR Inten    --      1.0072                 4.4885                 1.3255

                     28                     29                     30
                      A                      A                      A
 Frequencies --   1230.0632              1271.3571              1299.6917
 Red. masses --      1.6070                 1.6679                 1.6971
 Frc consts  --      1.4326                 1.5884                 1.6890
 IR Inten    --      8.1771                 2.4526                 7.0170

                     31                     32                     33
                      A                      A                      A
 Frequencies --   1375.6543              1395.2343              1420.5329
 Red. masses --      1.8107                 1.5424                 1.3097
 Frc consts  --      2.0189                 1.7691                 1.5571
 IR Inten    --      2.0354                 8.6295                 2.9875

                     34                     35                     36
                      A                      A                      A
 Frequencies --   1423.5988              1464.3231              1482.7722
 Red. masses --      1.1847                 1.0912                 1.0483
 Frc consts  --      1.4146                 1.3785                 1.3580
 IR Inten    --      5.6922                 7.2736                 5.1387

                     37                     38                     39
                      A                      A                      A
 Frequencies --   1492.8417              1516.0959              1529.2019
 Red. masses --      1.0573                 1.0808                 1.0886
 Frc consts  --      1.3883                 1.4637                 1.4998
 IR Inten    --      6.5213                 2.4462                 0.4625

                     40                     41                     42
                      A                      A                      A
 Frequencies --   1743.8699              1827.3167              2877.4299
 Red. masses --      7.8278                 9.9399                 1.0831
 Frc consts  --     14.0255                19.5551                 5.2837
 IR Inten    --      3.5255               180.2215                95.9417

                     43                     44                     45
                      A                      A                      A
 Frequencies --   2951.2726              2963.6859              2965.2171
 Red. masses --      1.0553                 1.0595                 1.1032
 Frc consts  --      5.4155                 5.4831                 5.7151
 IR Inten    --    127.5910                44.9660                36.9695

                     46                     47                     48
                      A                      A                      A
 Frequencies --   2977.9773              3022.1862              3030.7923
 Red. masses --      1.1035                 1.0399                 1.0624
 Frc consts  --      5.7661                 5.5961                 5.7498
 IR Inten    --     57.7231                31.0202                13.7240

                     49                     50                     51
                      A                      A                      A
 Frequencies --   3067.9622              3101.4403              3127.7275
 Red. masses --      1.0980                 1.0994                 1.0979
 Frc consts  --      6.0893                 6.2309                 6.3279
 IR Inten    --     14.8962                 7.3660                 8.9280

 - Thermochemistry -
 -------------------
 Temperature   298.150 Kelvin.  Pressure   1.00000 Atm.
 Atom     1 has atomic number  6 and mass  12.00000

 Molecular mass:   126.06808 amu.
 Principal axes and moments of inertia in atomic units:
                           1         2         3
     Eigenvalues --   643.554501602.864482046.35572
           X            0.99977   0.02039  -0.00667
           Y           -0.02039   0.99979  -0.00073
           Z            0.00666   0.00087   0.99998
 This molecule is an asymmetric top.
 Rotational symmetry number  1.
 Warning -- assumption of classical behavior for rotation
           may cause significant error
 Rotational temperatures (Kelvin)      0.13459     0.05404     0.04233
 Rotational constants (GHZ):           2.80433     1.12595     0.88193
 Zero-point vibrational energy     412608.2 (Joules/Mol)
                                   98.61573 (Kcal/Mol)
 Warning -- explicit consideration of  12 degrees of freedom as
           vibrations may cause significant error
 Vibrational temperatures:     46.59    90.82   159.46   204.41   222.67
          (Kelvin)            308.35   349.81   468.74   516.00   673.73
                              785.52   884.25   934.30  1169.20  1221.95
                             1332.88  1368.75  1384.88  1443.71  1488.60
                             1533.71  1573.87  1576.64  1620.95  1685.14
                             1703.31  1760.43  1769.78  1829.20  1869.96
                             1979.26  2007.43  2043.83  2048.24  2106.83
                             2133.38  2147.86  2181.32  2200.18  2509.04
                             2629.10  4139.97  4246.22  4264.08  4266.28
                             4284.64  4348.25  4360.63  4414.11  4462.28
                             4500.10

 Zero-point correction=                           0.157154 (Hartree/Particle)
 Thermal correction to Energy=                    0.166771
 Thermal correction to Enthalpy=                  0.167715
 Thermal correction to Gibbs Free Energy=         0.121145
 Sum of electronic and zero-point Energies=           -423.043955
 Sum of electronic and thermal Energies=              -423.034338
 Sum of electronic and thermal Enthalpies=            -423.033394
 Sum of electronic and thermal Free Energies=         -423.079964

                     E (Thermal)             CV                S
                      KCal/Mol        Cal/Mol-Kelvin    Cal/Mol-Kelvin
 Total                  104.650             33.194             98.016
 Electronic               0.000              0.000              0.000
 Translational            0.889              2.981             40.409
 Rotational               0.889              2.981             29.136
 Vibrational            102.873             27.233             28.471
 Vibration     1          0.594              1.983              5.678
 Vibration     2          0.597              1.972              4.357
 Vibration     3          0.607              1.941              3.254
 Vibration     4          0.616              1.911              2.776
 Vibration     5          0.620              1.897              2.613
 Vibration     6          0.644              1.819              2.007
 Vibration     7          0.659              1.774              1.780
 Vibration     8          0.710              1.624              1.281
 Vibration     9          0.733              1.557              1.128
 Vibration    10          0.825              1.320              0.742
 Vibration    11          0.901              1.149              0.553
 Vibration    12          0.974              1.001              0.425

 Optimization completed.
    -- Stationary point found.
 Normal termination of Gaussian 09 at Mon Jan 27 22:48:28 2020.
