 Gaussian 09, Revision D.01,
 Gaussian 09:  ES64L-G09RevD.01 24-Apr-2013

 -----------------------------
 # b3lyp 6-31G(2df,p) opt Freq
 -----------------------------

 -----
 titel
 -----
 Symbolic Z-matrix:
 Charge =  0 Multiplicity = 1

 SCF Done:  E(RB3LYP) =  -423.164143395     A.U. after   13 cycles
 Optimization completed.
    -- Stationary point found.
 Normal termination of Gaussian 09 at Mon Jan 27 23:05:51 2020.

 ----------------------------------------------------------------------
 #N Geom=AllCheck Guess=TCheck SCRF=Check GenChk RB3LYP/6-31G(2df,p) Fr
 eq
 ----------------------------------------------------------------------

 Structure from the checkpoint file:  "/scratch/puck/g09_dbf0e39b-3f88-4fff-a85a-86aa99a5d28a/Gau-103137.chk"
 -----
 titel
 -----
 Charge =  0 Multiplicity = 1

                         Standard orientation:
 ---------------------------------------------------------------------
 Center     Atomic      Atomic             Coordinates (Angstroms)
 Number     Number       Type             X           Y           Z
 ---------------------------------------------------------------------
      1          8           0        0.428095    2.166185   -0.385087
      2          6           0       -0.279749    1.203080    0.360540
      3          6           0       -1.340442    0.469708   -0.463971
      4          6           0       -2.234709   -0.481060    0.290400
      5          6           0       -1.060401   -1.020315   -0.483024
      6          6           0        0.193690   -1.293123    0.318852
      7          6           0        1.514703   -1.281406   -0.475265
      8          8           0        1.869740    0.027183    0.038068
      9          6           0        0.678120    0.079046    0.866433
     10          1           0        1.216937    1.706381   -0.711798
     11          1           0       -0.741493    1.726476    1.207162
     12          1           0       -1.733203    0.994661   -1.326580
     13          1           0       -2.185146   -0.484544    1.377038
     14          1           0       -3.227847   -0.663948   -0.104470
     15          1           0       -1.249172   -1.620976   -1.367002
     16          1           0        0.093401   -2.109931    1.036714
     17          1           0        2.253180   -2.033165   -0.175064
     18          1           0        1.419505   -1.281407   -1.567265
     19          1           0        0.943894    0.163924    1.923626
 ---------------------------------------------------------------------

 SCF Done:  E(RB3LYP) =  -423.164143395     A.U. after    1 cycles

 The electronic state is 1-A.
 Alpha  occ. eigenvalues --  -19.14919 -19.11961 -10.23842 -10.23793 -10.22808
 Alpha  occ. eigenvalues --  -10.20010 -10.19555 -10.18876 -10.18633  -1.05386
 Alpha  occ. eigenvalues --   -1.00241  -0.87696  -0.74916  -0.72607  -0.66241
 Alpha  occ. eigenvalues --   -0.60585  -0.56424  -0.54817  -0.52832  -0.50244
 Alpha  occ. eigenvalues --   -0.48400  -0.44845  -0.43496  -0.43149  -0.42479
 Alpha  occ. eigenvalues --   -0.37511  -0.36909  -0.34762  -0.32696  -0.30811
 Alpha  occ. eigenvalues --   -0.29372  -0.28300  -0.26490  -0.24994
 Alpha virt. eigenvalues --    0.05562   0.09417   0.09682   0.10899   0.11239
 Alpha virt. eigenvalues --    0.14466   0.15124   0.15730   0.16141   0.17026
 Alpha virt. eigenvalues --    0.17508   0.17740   0.19259   0.20701   0.22867

 Mulliken charges:
               1
     1  O   -0.440855
     2  C    0.113692
     3  C   -0.063973
     4  C   -0.308015
     5  C   -0.046289
     6  C   -0.084050
     7  C   -0.090685
     8  O   -0.303110
     9  C    0.075657
    10  H    0.288456
    11  H    0.077873
    12  H    0.094118
    13  H    0.106726
    14  H    0.115148
    15  H    0.086905
    16  H    0.081885
    17  H    0.107767
    18  H    0.107562
    19  H    0.081188
 Sum of Mulliken charges =   0.00000

 Dipole moment (field-independent basis, Debye):
    X=             -0.8022    Y=             -2.7430    Z=              0.2326  Tot=              2.8674
 Quadrupole moment (field-independent basis, Debye-Ang):
   XX=            -53.7430   YY=            -57.3534   ZZ=            -50.1582
   XY=             -1.8616   XZ=             -0.3254   YZ=              1.3510

  Exact polarizability:  79.078  -2.497  74.313  -1.896   1.364  67.043
 Approx polarizability: 108.420  -1.509 109.808  -4.892   0.755 102.974

                      1                      2                      3
                      A                      A                      A
 Frequencies --     76.6880               186.2666               272.6044
 Red. masses --      4.0792                 2.5349                 2.6286
 Frc consts  --      0.0141                 0.0518                 0.1151
 IR Inten    --      0.1067                 0.6420                 1.8359

                      4                      5                      6
                      A                      A                      A
 Frequencies --    313.8322               379.8504               434.1968
 Red. masses --      6.6836                 3.2645                 4.7347
 Frc consts  --      0.3878                 0.2775                 0.5259
 IR Inten    --      6.5565                 3.2294                 1.5514

                      7                      8                      9
                      A                      A                      A
 Frequencies --    505.4261               540.5657               620.1708
 Red. masses --      1.1187                 3.3912                 3.9285
 Frc consts  --      0.1684                 0.5838                 0.8902
 IR Inten    --     58.7773                10.4651                 1.2291

                     10                     11                     12
                      A                      A                      A
 Frequencies --    754.7549               762.0181               799.8965
 Red. masses --      3.6592                 1.9597                 1.9289
 Frc consts  --      1.2282                 0.6704                 0.7271
 IR Inten    --      7.5498                 3.4613                 1.2642

                     13                     14                     15
                      A                      A                      A
 Frequencies --    841.8905               848.8008               884.3803
 Red. masses --      2.8171                 1.6182                 3.1808
 Frc consts  --      1.1764                 0.6869                 1.4657
 IR Inten    --     20.6622                 2.6311                17.3576

                     16                     17                     18
                      A                      A                      A
 Frequencies --    916.6952               934.0147               980.7654
 Red. masses --      2.0262                 1.8644                 2.8332
 Frc consts  --      1.0032                 0.9583                 1.6057
 IR Inten    --      6.4827                 1.1577                 1.5086

                     19                     20                     21
                      A                      A                      A
 Frequencies --   1004.4991              1022.6732              1058.0423
 Red. masses --      3.1143                 5.0501                 1.6469
 Frc consts  --      1.8515                 3.1119                 1.0862
 IR Inten    --     27.6600                70.7614                 1.9026

                     22                     23                     24
                      A                      A                      A
 Frequencies --   1065.9146              1076.4508              1091.3983
 Red. masses --      1.4349                 2.6449                 1.9281
 Frc consts  --      0.9606                 1.8057                 1.3532
 IR Inten    --      5.6286                11.7345                36.0423

                     25                     26                     27
                      A                      A                      A
 Frequencies --   1109.0810              1127.4997              1135.8891
 Red. masses --      1.3250                 2.2453                 1.6174
 Frc consts  --      0.9603                 1.6817                 1.2295
 IR Inten    --      6.1638                63.3765                 4.5319

                     28                     29                     30
                      A                      A                      A
 Frequencies --   1170.2447              1194.7139              1220.0083
 Red. masses --      1.1214                 1.6777                 2.0113
 Frc consts  --      0.9048                 1.4109                 1.7638
 IR Inten    --      0.5208                 0.5815                 6.2767

                     31                     32                     33
                      A                      A                      A
 Frequencies --   1258.9303              1267.6214              1297.0844
 Red. masses --      1.4737                 1.2995                 1.2903
 Frc consts  --      1.3762                 1.2303                 1.2790
 IR Inten    --      4.0429                16.5397                 3.1050

                     34                     35                     36
                      A                      A                      A
 Frequencies --   1320.3853              1345.8171              1357.8657
 Red. masses --      1.2873                 1.3979                 1.8504
 Frc consts  --      1.3223                 1.4917                 2.0102
 IR Inten    --      1.8543                 3.2403                 3.1016

                     37                     38                     39
                      A                      A                      A
 Frequencies --   1360.9498              1379.2473              1452.4334
 Red. masses --      1.5466                 2.0876                 1.2096
 Frc consts  --      1.6877                 2.3398                 1.5035
 IR Inten    --      4.4001                 0.4678                98.9211

                     40                     41                     42
                      A                      A                      A
 Frequencies --   1489.2328              1519.5501              3023.5273
 Red. masses --      1.2370                 1.1017                 1.0845
 Frc consts  --      1.6164                 1.4989                 5.8411
 IR Inten    --      2.8508                 0.0322                22.8638

                     43                     44                     45
                      A                      A                      A
 Frequencies --   3024.7356              3068.3523              3071.5312
 Red. masses --      1.0556                 1.0942                 1.1017
 Frc consts  --      5.6903                 6.0693                 6.1237
 IR Inten    --     83.6464                41.9629                10.7776

                     46                     47                     48
                      A                      A                      A
 Frequencies --   3089.9437              3112.1662              3158.8674
 Red. masses --      1.0912                 1.0571                 1.0898
 Frc consts  --      6.1386                 6.0324                 6.4069
 IR Inten    --     61.3263                17.6099                14.2674

                     49                     50                     51
                      A                      A                      A
 Frequencies --   3185.9898              3205.5750              3694.7618
 Red. masses --      1.0937                 1.1110                 1.0646
 Frc consts  --      6.5411                 6.7263                 8.5629
 IR Inten    --      5.1354                14.5112                76.6983

 - Thermochemistry -
 -------------------
 Temperature   298.150 Kelvin.  Pressure   1.00000 Atm.
 Atom     1 has atomic number  8 and mass  15.99491

 Molecular mass:   126.06808 amu.
 Principal axes and moments of inertia in atomic units:
                           1         2         3
     Eigenvalues --   745.52249 915.742891388.88027
           X            0.99908  -0.04236  -0.00643
           Y            0.04244   0.99902   0.01243
           Z            0.00589  -0.01269   0.99990
 This molecule is an asymmetric top.
 Rotational symmetry number  1.
 Warning -- assumption of classical behavior for rotation
           may cause significant error
 Rotational temperatures (Kelvin)      0.11618     0.09458     0.06236
 Rotational constants (GHZ):           2.42077     1.97079     1.29942
 Zero-point vibrational energy     424756.8 (Joules/Mol)
                                  101.51932 (Kcal/Mol)
 Warning -- explicit consideration of   9 degrees of freedom as
           vibrations may cause significant error
 Vibrational temperatures:    110.34   268.00   392.22   451.53   546.52
          (Kelvin)            624.71   727.19   777.75   892.29  1085.92
                             1096.37  1150.87  1211.29  1221.23  1272.42
                             1318.92  1343.84  1411.10  1445.25  1471.40
                             1522.29  1533.61  1548.77  1570.28  1595.72
                             1622.22  1634.29  1683.72  1718.92  1755.32
                             1811.32  1823.82  1866.21  1899.74  1936.33
                             1953.66  1958.10  1984.43  2089.73  2142.67
                             2186.29  4350.18  4351.91  4414.67  4419.24
                             4445.73  4477.71  4544.90  4583.92  4612.10
                             5315.93

 Zero-point correction=                           0.161781 (Hartree/Particle)
 Thermal correction to Energy=                    0.168995
 Thermal correction to Enthalpy=                  0.169939
 Thermal correction to Gibbs Free Energy=         0.130049
 Sum of electronic and zero-point Energies=           -423.002362
 Sum of electronic and thermal Energies=              -422.995148
 Sum of electronic and thermal Enthalpies=            -422.994204
 Sum of electronic and thermal Free Energies=         -423.034094

                     E (Thermal)             CV                S
                      KCal/Mol        Cal/Mol-Kelvin    Cal/Mol-Kelvin
 Total                  106.046             29.249             83.955
 Electronic               0.000              0.000              0.000
 Translational            0.889              2.981             40.409
 Rotational               0.889              2.981             28.341
 Vibrational            104.269             23.287             15.206
 Vibration     1          0.599              1.965              3.974
 Vibration     2          0.632              1.859              2.265
 Vibration     3          0.676              1.724              1.580
 Vibration     4          0.702              1.647              1.342
 Vibration     5          0.750              1.513              1.040
 Vibration     6          0.795              1.396              0.845
 Vibration     7          0.861              1.238              0.645
 Vibration     8          0.896              1.160              0.564
 Vibration     9          0.980              0.989              0.416

 Normal termination of Gaussian 09 at Mon Jan 27 23:53:16 2020.
