 Gaussian 09, Revision D.01,
 Gaussian 09:  ES64L-G09RevD.01 24-Apr-2013

 -----------------------------
 # b3lyp 6-31G(2df,p) opt Freq
 -----------------------------

 -----
 titel
 -----
 Symbolic Z-matrix:
 Charge =  0 Multiplicity = 1

 SCF Done:  E(RB3LYP) =  -423.183637083     A.U. after   14 cycles
 Optimization completed.
    -- Stationary point found.
 Normal termination of Gaussian 09 at Mon Jan 27 14:15:49 2020.

 ----------------------------------------------------------------------
 #N Geom=AllCheck Guess=TCheck SCRF=Check GenChk RB3LYP/6-31G(2df,p) Fr
 eq
 ----------------------------------------------------------------------

 Structure from the checkpoint file:  "/scratch/puck/g09_85a9d663-eb38-488b-b482-0afee7fd379b/Gau-5094.chk"
 -----
 titel
 -----
 Charge =  0 Multiplicity = 1

                         Standard orientation:
 ---------------------------------------------------------------------
 Center     Atomic      Atomic             Coordinates (Angstroms)
 Number     Number       Type             X           Y           Z
 ---------------------------------------------------------------------
      1          6           0       -2.654781   -0.710118    0.271275
      2          6           0       -1.506668    0.180094   -0.172002
      3          8           0       -1.624290    1.384341   -0.239384
      4          6           0       -0.223365   -0.542255   -0.522627
      5          6           0        1.067890    0.160603   -1.008847
      6          6           0        1.381710    1.231375    0.053635
      7          6           0        1.153980    0.334530    1.312196
      8          6           0        0.815014   -0.972029    0.564484
      9          8           0        1.815747   -0.993622   -0.492979
     10          1           0       -2.973531   -1.348667   -0.560962
     11          1           0       -2.338293   -1.380015    1.078787
     12          1           0       -3.494809   -0.097916    0.601243
     13          1           0       -0.433882   -1.415016   -1.146737
     14          1           0        1.255757    0.377692   -2.059502
     15          1           0        2.417067    1.565019   -0.038514
     16          1           0        0.709456    2.086394    0.000753
     17          1           0        2.052538    0.212833    1.919950
     18          1           0        0.341705    0.686119    1.953985
     19          1           0        0.729662   -1.905388    1.121217
 ---------------------------------------------------------------------

 SCF Done:  E(RB3LYP) =  -423.183637083     A.U. after    1 cycles

 The electronic state is 1-A.
 Alpha  occ. eigenvalues --  -19.13584 -19.13575 -10.27595 -10.24779 -10.24008
 Alpha  occ. eigenvalues --  -10.20111 -10.19434 -10.18516 -10.17793  -1.05386
 Alpha  occ. eigenvalues --   -1.04304  -0.79982  -0.76238  -0.71683  -0.70825
 Alpha  occ. eigenvalues --   -0.58929  -0.57344  -0.52884  -0.52136  -0.47757
 Alpha  occ. eigenvalues --   -0.46714  -0.45061  -0.43360  -0.41903  -0.40653
 Alpha  occ. eigenvalues --   -0.38165  -0.36470  -0.35539  -0.34978  -0.34572
 Alpha  occ. eigenvalues --   -0.33315  -0.31392  -0.26228  -0.23987
 Alpha virt. eigenvalues --   -0.02340   0.07865   0.09470   0.11426   0.12327
 Alpha virt. eigenvalues --    0.13299   0.14379   0.14804   0.15945   0.16740
 Alpha virt. eigenvalues --    0.17613   0.17817   0.18436   0.19577   0.20929

 Mulliken charges:
               1
     1  C   -0.480953
     2  C    0.356683
     3  O   -0.302827
     4  C   -0.087469
     5  C    0.050203
     6  C   -0.213757
     7  C   -0.224481
     8  C    0.057667
     9  O   -0.298790
    10  H    0.144418
    11  H    0.138999
    12  H    0.143809
    13  H    0.098587
    14  H    0.084754
    15  H    0.103601
    16  H    0.132394
    17  H    0.109566
    18  H    0.106183
    19  H    0.081412
 Sum of Mulliken charges =   0.00000

 Dipole moment (field-independent basis, Debye):
    X=             -1.0176    Y=             -1.5336    Z=              0.6346  Tot=              1.9469
 Quadrupole moment (field-independent basis, Debye-Ang):
   XX=            -55.3012   YY=            -56.1872   ZZ=            -50.5503
   XY=              7.3271   XZ=              0.7380   YZ=             -0.9813

  Exact polarizability:  81.271   3.380  74.233  -0.444  -1.679  67.475
 Approx polarizability: 108.656  -2.879 121.214  -1.467  -3.313 101.593

                      1                      2                      3
                      A                      A                      A
 Frequencies --     29.0920               122.5148               154.6316
 Red. masses --      3.5830                 1.0645                 3.5286
 Frc consts  --      0.0018                 0.0094                 0.0497
 IR Inten    --      2.9738                 0.0857                 2.3132

                      4                      5                      6
                      A                      A                      A
 Frequencies --    186.4844               310.7064               363.3542
 Red. masses --      4.5057                 1.9886                 3.0401
 Frc consts  --      0.0923                 0.1131                 0.2365
 IR Inten    --      6.3965                 0.4103                 2.1167

                      7                      8                      9
                      A                      A                      A
 Frequencies --    391.5247               525.2909               560.5742
 Red. masses --      3.7370                 3.7797                 2.9783
 Frc consts  --      0.3375                 0.6145                 0.5514
 IR Inten    --      0.4547                 6.2798                 5.4946

                     10                     11                     12
                      A                      A                      A
 Frequencies --    612.0756               733.1372               786.5203
 Red. masses --      3.3199                 4.5540                 3.2144
 Frc consts  --      0.7328                 1.4422                 1.1716
 IR Inten    --     14.5625                 2.6994                 2.6285

                     13                     14                     15
                      A                      A                      A
 Frequencies --    833.2903               842.0033               861.8942
 Red. masses --      2.9979                 1.6834                 2.5199
 Frc consts  --      1.2265                 0.7032                 1.1029
 IR Inten    --     11.6350                10.4076                 4.7676

                     16                     17                     18
                      A                      A                      A
 Frequencies --    870.1251               922.7769               939.3806
 Red. masses --      2.3433                 2.6108                 3.5974
 Frc consts  --      1.0453                 1.3098                 1.8703
 IR Inten    --     42.2969                 2.0897                 3.1011

                     19                     20                     21
                      A                      A                      A
 Frequencies --    948.5495               990.7639              1007.7960
 Red. masses --      2.3560                 2.9889                 1.3519
 Frc consts  --      1.2490                 1.7286                 0.8090
 IR Inten    --     14.0776                16.3845                 2.8231

                     22                     23                     24
                      A                      A                      A
 Frequencies --   1016.8762              1046.2908              1071.2910
 Red. masses --      1.8767                 1.7456                 2.6434
 Frc consts  --      1.1433                 1.1259                 1.7875
 IR Inten    --     10.6997                 5.4164                 9.7561

                     25                     26                     27
                      A                      A                      A
 Frequencies --   1132.5116              1145.9332              1190.5789
 Red. masses --      1.3079                 1.7009                 1.7232
 Frc consts  --      0.9883                 1.3160                 1.4392
 IR Inten    --      1.9792                17.4766                39.4402

                     28                     29                     30
                      A                      A                      A
 Frequencies --   1199.7304              1226.4367              1252.9599
 Red. masses --      1.2890                 1.7853                 1.1777
 Frc consts  --      1.0932                 1.5822                 1.0893
 IR Inten    --      0.6608                36.3184                 2.2823

                     31                     32                     33
                      A                      A                      A
 Frequencies --   1271.8332              1306.4878              1310.8211
 Red. masses --      1.3599                 1.5545                 1.5705
 Frc consts  --      1.2961                 1.5633                 1.5899
 IR Inten    --      0.1902                 1.1481                 6.2849

                     34                     35                     36
                      A                      A                      A
 Frequencies --   1340.5352              1372.9862              1388.1293
 Red. masses --      1.5694                 1.4114                 1.7174
 Frc consts  --      1.6616                 1.5676                 1.9498
 IR Inten    --      5.4288                 8.7606                53.3016

                     37                     38                     39
                      A                      A                      A
 Frequencies --   1461.8053              1474.8858              1477.0014
 Red. masses --      1.0545                 1.0548                 1.0844
 Frc consts  --      1.3276                 1.3519                 1.3938
 IR Inten    --     10.8638                 7.5549                 4.3289

                     40                     41                     42
                      A                      A                      A
 Frequencies --   1498.5148              1799.9699              3033.9959
 Red. masses --      1.1106                10.6928                 1.0372
 Frc consts  --      1.4694                20.4114                 5.6252
 IR Inten    --      7.9261               120.9889                 1.9547

                     43                     44                     45
                      A                      A                      A
 Frequencies --   3068.7717              3080.1012              3086.3402
 Red. masses --      1.0598                 1.0840                 1.0643
 Frc consts  --      5.8805                 6.0592                 5.9730
 IR Inten    --     22.4840                 8.8166                23.1701

                     46                     47                     48
                      A                      A                      A
 Frequencies --   3094.4341              3118.5615              3122.8570
 Red. masses --      1.0976                 1.1012                 1.0934
 Frc consts  --      6.1922                 6.3097                 6.2824
 IR Inten    --      9.4848                22.9408                46.4407

                     49                     50                     51
                      A                      A                      A
 Frequencies --   3134.9915              3152.1911              3156.9815
 Red. masses --      1.0924                 1.1019                 1.1034
 Frc consts  --      6.3259                 6.4506                 6.4791
 IR Inten    --     28.3855                 8.9228                 8.7959

 - Thermochemistry -
 -------------------
 Temperature   298.150 Kelvin.  Pressure   1.00000 Atm.
 Atom     1 has atomic number  6 and mass  12.00000

 Molecular mass:   126.06808 amu.
 Principal axes and moments of inertia in atomic units:
                           1         2         3
     Eigenvalues --   592.720811324.105621472.07962
           X            0.99794   0.06412   0.00049
           Y           -0.06411   0.99790  -0.00968
           Z           -0.00111   0.00962   0.99995
 This molecule is an asymmetric top.
 Rotational symmetry number  1.
 Warning -- assumption of classical behavior for rotation
           may cause significant error
 Rotational temperatures (Kelvin)      0.14613     0.06541     0.05884
 Rotational constants (GHZ):           3.04484     1.36299     1.22598
 Zero-point vibrational energy     418856.2 (Joules/Mol)
                                  100.10904 (Kcal/Mol)
 Warning -- explicit consideration of  10 degrees of freedom as
           vibrations may cause significant error
 Vibrational temperatures:     41.86   176.27   222.48   268.31   447.04
          (Kelvin)            522.78   563.32   755.78   806.54   880.64
                             1054.82  1131.63  1198.92  1211.45  1240.07
                             1251.91  1327.67  1351.56  1364.75  1425.49
                             1449.99  1463.06  1505.38  1541.35  1629.43
                             1648.74  1712.98  1726.14  1764.57  1802.73
                             1829.88  1879.74  1885.98  1928.73  1975.42
                             1997.21  2103.21  2122.03  2125.07  2156.03
                             2589.75  4365.24  4415.27  4431.57  4440.55
                             4452.19  4486.91  4493.09  4510.55  4535.29
                             4542.19

 Zero-point correction=                           0.159534 (Hartree/Particle)
 Thermal correction to Energy=                    0.167708
 Thermal correction to Enthalpy=                  0.168652
 Thermal correction to Gibbs Free Energy=         0.125797
 Sum of electronic and zero-point Energies=           -423.024103
 Sum of electronic and thermal Energies=              -423.015929
 Sum of electronic and thermal Enthalpies=            -423.014985
 Sum of electronic and thermal Free Energies=         -423.057840

                     E (Thermal)             CV                S
                      KCal/Mol        Cal/Mol-Kelvin    Cal/Mol-Kelvin
 Total                  105.238             30.891             90.195
 Electronic               0.000              0.000              0.000
 Translational            0.889              2.981             40.409
 Rotational               0.889              2.981             28.537
 Vibrational            103.461             24.929             21.249
 Vibration     1          0.593              1.984              5.890
 Vibration     2          0.610              1.930              3.060
 Vibration     3          0.620              1.898              2.614
 Vibration     4          0.632              1.858              2.262
 Vibration     5          0.700              1.653              1.359
 Vibration     6          0.737              1.548              1.108
 Vibration     7          0.759              1.488              0.994
 Vibration     8          0.880              1.194              0.598
 Vibration     9          0.916              1.117              0.523
 Vibration    10          0.971              1.006              0.429

 Optimization completed.
    -- Stationary point found.
 Normal termination of Gaussian 09 at Mon Jan 27 16:14:54 2020.
