 Gaussian 09, Revision D.01,
 Gaussian 09:  ES64L-G09RevD.01 24-Apr-2013

 -----------------------------
 # b3lyp 6-31G(2df,p) opt Freq
 -----------------------------

 -----
 titel
 -----
 Symbolic Z-matrix:
 Charge =  0 Multiplicity = 1

 SCF Done:  E(RB3LYP) =  -423.180513505     A.U. after   14 cycles
 Optimization completed.
    -- Stationary point found.
 Normal termination of Gaussian 09 at Tue Jan 28 03:11:12 2020.

 ----------------------------------------------------------------------
 #N Geom=AllCheck Guess=TCheck SCRF=Check GenChk RB3LYP/6-31G(2df,p) Fr
 eq
 ----------------------------------------------------------------------

 Structure from the checkpoint file:  "/scratch/puck/g09_92890963-c2f0-4fb7-9288-45680744c1b0/Gau-44869.chk"
 -----
 titel
 -----
 Charge =  0 Multiplicity = 1

                         Standard orientation:
 ---------------------------------------------------------------------
 Center     Atomic      Atomic             Coordinates (Angstroms)
 Number     Number       Type             X           Y           Z
 ---------------------------------------------------------------------
      1          6           0       -0.225079   -1.221075    1.803079
      2          6           0       -0.052852   -0.260321    0.646028
      3          6           0        1.374685    0.008310    0.077438
      4          8           0        1.848952   -0.771277   -0.983736
      5          6           0        1.011510    1.514162   -0.127068
      6          6           0       -0.330389    1.300803    0.630961
      7          6           0       -1.541806    1.096652   -0.316961
      8          6           0       -1.063280   -0.347055   -0.513129
      9          8           0       -1.278113   -1.199497   -1.332336
     10          1           0       -1.245391   -1.206012    2.201262
     11          1           0       -0.009009   -2.244224    1.477282
     12          1           0        0.460404   -0.974107    2.620656
     13          1           0        2.109850   -0.096580    0.882851
     14          1           0        1.112524   -0.972564   -1.573818
     15          1           0        1.709867    2.216184    0.332319
     16          1           0        0.885288    1.793816   -1.177513
     17          1           0       -0.490945    1.873844    1.542294
     18          1           0       -2.493640    1.102967    0.228379
     19          1           0       -1.642387    1.724009   -1.207222
 ---------------------------------------------------------------------

 SCF Done:  E(RB3LYP) =  -423.180513505     A.U. after    1 cycles

 The electronic state is 1-A.
 Alpha  occ. eigenvalues --  -19.14726 -19.13705 -10.27555 -10.24012 -10.20266
 Alpha  occ. eigenvalues --  -10.20006 -10.19895 -10.18878 -10.18664  -1.05512
 Alpha  occ. eigenvalues --   -1.02176  -0.88230  -0.75234  -0.74184  -0.64901
 Alpha  occ. eigenvalues --   -0.62558  -0.58707  -0.52563  -0.49224  -0.47973
 Alpha  occ. eigenvalues --   -0.46902  -0.44247  -0.42822  -0.41753  -0.40591
 Alpha  occ. eigenvalues --   -0.40071  -0.38744  -0.37694  -0.36462  -0.34012
 Alpha  occ. eigenvalues --   -0.31421  -0.28737  -0.26305  -0.24357
 Alpha virt. eigenvalues --   -0.03112   0.08395   0.09404   0.10711   0.10810
 Alpha virt. eigenvalues --    0.12311   0.12744   0.14130   0.15500   0.16344
 Alpha virt. eigenvalues --    0.17417   0.18441   0.19782   0.22274   0.23069

 Mulliken charges:
               1
     1  C   -0.502531
     2  C    0.184084
     3  C    0.117249
     4  O   -0.435268
     5  C   -0.282249
     6  C   -0.090924
     7  C   -0.341923
     8  C    0.354005
     9  O   -0.320708
    10  H    0.119789
    11  H    0.143694
    12  H    0.121952
    13  H    0.091695
    14  H    0.293596
    15  H    0.108704
    16  H    0.104744
    17  H    0.076637
    18  H    0.132418
    19  H    0.125035
 Sum of Mulliken charges =   0.00000

 Dipole moment (field-independent basis, Debye):
    X=             -0.8020    Y=              2.1111    Z=              2.0339  Tot=              3.0392
 Quadrupole moment (field-independent basis, Debye-Ang):
   XX=            -56.6305   YY=            -54.5698   ZZ=            -53.0014
   XY=             -0.7158   XZ=             -0.2995   YZ=             -2.7060

  Exact polarizability:  75.680  -0.517  76.604   2.712   0.453  72.989
 Approx polarizability: 109.021  -0.231 113.888   5.069   9.150 110.802

                      1                      2                      3
                      A                      A                      A
 Frequencies --     84.6679               111.8529               187.5309
 Red. masses --      4.0071                 4.7525                 1.2046
 Frc consts  --      0.0169                 0.0350                 0.0250
 IR Inten    --      4.4400                 6.4359                 0.3067

                      4                      5                      6
                      A                      A                      A
 Frequencies --    202.3619               234.7746               325.1822
 Red. masses --      2.6661                 2.2327                 1.2997
 Frc consts  --      0.0643                 0.0725                 0.0810
 IR Inten    --      0.6972                 1.6532                48.2093

                      7                      8                      9
                      A                      A                      A
 Frequencies --    346.4955               397.1985               426.3443
 Red. masses --      1.9015                 3.1502                 3.4896
 Frc consts  --      0.1345                 0.2928                 0.3737
 IR Inten    --     24.7579                10.6161                 2.3987

                     10                     11                     12
                      A                      A                      A
 Frequencies --    484.3190               545.9918               582.2347
 Red. masses --      2.6369                 2.2110                 3.9658
 Frc consts  --      0.3644                 0.3883                 0.7921
 IR Inten    --      0.5943                 1.6011                 0.1659

                     13                     14                     15
                      A                      A                      A
 Frequencies --    675.5712               719.5374               801.0186
 Red. masses --      3.5348                 3.6284                 1.9936
 Frc consts  --      0.9505                 1.1068                 0.7537
 IR Inten    --      3.5689                 0.8816                 2.6757

                     16                     17                     18
                      A                      A                      A
 Frequencies --    824.4340               851.2542               917.0508
 Red. masses --      2.3520                 2.4067                 1.8829
 Frc consts  --      0.9419                 1.0275                 0.9330
 IR Inten    --      3.1338                 3.0853                 7.6051

                     19                     20                     21
                      A                      A                      A
 Frequencies --    954.7430               994.6675              1027.2434
 Red. masses --      2.1097                 2.3487                 2.2037
 Frc consts  --      1.1331                 1.3691                 1.3701
 IR Inten    --     13.4846                 1.5850                24.5027

                     22                     23                     24
                      A                      A                      A
 Frequencies --   1056.1349              1061.9116              1099.9144
 Red. masses --      1.6721                 2.4952                 1.8112
 Frc consts  --      1.0989                 1.6578                 1.2910
 IR Inten    --     18.4030                26.0871                 1.1603

                     25                     26                     27
                      A                      A                      A
 Frequencies --   1126.5615              1154.5339              1164.3260
 Red. masses --      2.2459                 1.7195                 1.9564
 Frc consts  --      1.6794                 1.3504                 1.5626
 IR Inten    --    104.7064                27.7198                 9.5144

                     28                     29                     30
                      A                      A                      A
 Frequencies --   1183.9100              1204.4639              1228.6680
 Red. masses --      1.6817                 1.8937                 1.7750
 Frc consts  --      1.3888                 1.6186                 1.5788
 IR Inten    --     24.8834                11.1703                 7.5996

                     31                     32                     33
                      A                      A                      A
 Frequencies --   1261.0930              1295.0398              1323.0479
 Red. masses --      1.5627                 1.4273                 2.3884
 Frc consts  --      1.4643                 1.4104                 2.4632
 IR Inten    --      8.6419                 2.7330                 6.7381

                     34                     35                     36
                      A                      A                      A
 Frequencies --   1340.5530              1404.3093              1437.9025
 Red. masses --      1.5047                 1.2252                 1.1086
 Frc consts  --      1.5932                 1.4236                 1.3505
 IR Inten    --      5.9657                 2.7217                18.0793

                     37                     38                     39
                      A                      A                      A
 Frequencies --   1441.2324              1481.4743              1488.8523
 Red. masses --      1.1918                 1.1035                 1.0516
 Frc consts  --      1.4585                 1.4270                 1.3734
 IR Inten    --     57.1179                 3.7777                 7.3772

                     40                     41                     42
                      A                      A                      A
 Frequencies --   1492.5542              1859.5412              3027.5564
 Red. masses --      1.0500                12.4603                 1.0348
 Frc consts  --      1.3782                25.3857                 5.5883
 IR Inten    --      6.8367               235.8597                24.0700

                     43                     44                     45
                      A                      A                      A
 Frequencies --   3038.5279              3045.9661              3057.2407
 Red. masses --      1.0605                 1.0863                 1.0613
 Frc consts  --      5.7688                 5.9379                 5.8446
 IR Inten    --     11.1966                23.5709                24.9796

                     46                     47                     48
                      A                      A                      A
 Frequencies --   3095.0768              3100.3673              3101.2324
 Red. masses --      1.1016                 1.1030                 1.1012
 Frc consts  --      6.2174                 6.2467                 6.2399
 IR Inten    --     20.3793                12.1613                12.0990

                     49                     50                     51
                      A                      A                      A
 Frequencies --   3114.5964              3132.0465              3783.4695
 Red. masses --      1.1032                 1.0920                 1.0660
 Frc consts  --      6.3054                 6.3114                 8.9906
 IR Inten    --     13.2258                34.9885                29.9817

 - Thermochemistry -
 -------------------
 Temperature   298.150 Kelvin.  Pressure   1.00000 Atm.
 Atom     1 has atomic number  6 and mass  12.00000

 Molecular mass:   126.06808 amu.
 Principal axes and moments of inertia in atomic units:
                           1         2         3
     Eigenvalues --   924.830821063.386381149.60263
           X            0.99904  -0.04213  -0.01204
           Y            0.03628   0.94940  -0.31196
           Z            0.02458   0.31122   0.95002
 This molecule is an asymmetric top.
 Rotational symmetry number  1.
 Warning -- assumption of classical behavior for rotation
           may cause significant error
 Rotational temperatures (Kelvin)      0.09365     0.08145     0.07534
 Rotational constants (GHZ):           1.95143     1.69716     1.56988
 Zero-point vibrational energy     414485.6 (Joules/Mol)
                                   99.06443 (Kcal/Mol)
 Warning -- explicit consideration of  12 degrees of freedom as
           vibrations may cause significant error
 Vibrational temperatures:    121.82   160.93   269.81   291.15   337.79
          (Kelvin)            467.86   498.53   571.48   613.41   696.83
                              785.56   837.70   972.00  1035.25  1152.49
                             1186.18  1224.76  1319.43  1373.66  1431.10
                             1477.97  1519.54  1527.85  1582.53  1620.87
                             1661.11  1675.20  1703.38  1732.95  1767.78
                             1814.43  1863.27  1903.57  1928.75  2020.49
                             2068.82  2073.61  2131.51  2142.12  2147.45
                             2675.46  4355.97  4371.76  4382.46  4398.68
                             4453.12  4460.73  4461.98  4481.20  4506.31
                             5443.56

 Zero-point correction=                           0.157869 (Hartree/Particle)
 Thermal correction to Energy=                    0.166657
 Thermal correction to Enthalpy=                  0.167601
 Thermal correction to Gibbs Free Energy=         0.124614
 Sum of electronic and zero-point Energies=           -423.022644
 Sum of electronic and thermal Energies=              -423.013856
 Sum of electronic and thermal Enthalpies=            -423.012912
 Sum of electronic and thermal Free Energies=         -423.055900

                     E (Thermal)             CV                S
                      KCal/Mol        Cal/Mol-Kelvin    Cal/Mol-Kelvin
 Total                  104.579             33.452             90.475
 Electronic               0.000              0.000              0.000
 Translational            0.889              2.981             40.409
 Rotational               0.889              2.981             28.516
 Vibrational            102.801             27.491             21.551
 Vibration     1          0.601              1.960              3.780
 Vibration     2          0.607              1.940              3.237
 Vibration     3          0.632              1.857              2.252
 Vibration     4          0.639              1.837              2.112
 Vibration     5          0.655              1.788              1.842
 Vibration     6          0.709              1.625              1.284
 Vibration     7          0.724              1.582              1.182
 Vibration     8          0.764              1.476              0.973
 Vibration     9          0.788              1.413              0.871
 Vibration    10          0.840              1.285              0.699
 Vibration    11          0.901              1.148              0.553
 Vibration    12          0.939              1.070              0.481

 Optimization completed.
    -- Stationary point found.
 Normal termination of Gaussian 09 at Tue Jan 28 05:13:12 2020.
