 Gaussian 09, Revision D.01,
 Gaussian 09:  ES64L-G09RevD.01 24-Apr-2013

 -----------------------------
 # b3lyp 6-31G(2df,p) opt Freq
 -----------------------------

 -----
 titel
 -----
 Symbolic Z-matrix:
 Charge =  0 Multiplicity = 1

 SCF Done:  E(RB3LYP) =  -423.210209701     A.U. after   14 cycles
 Optimization completed.
    -- Stationary point found.
 Normal termination of Gaussian 09 at Tue Jan 28 00:41:50 2020.

 ----------------------------------------------------------------------
 #N Geom=AllCheck Guess=TCheck SCRF=Check GenChk RB3LYP/6-31G(2df,p) Fr
 eq
 ----------------------------------------------------------------------

 Structure from the checkpoint file:  "/scratch/puck/g09_e829dea2-c0be-4841-b233-7caf75c56b4c/Gau-189674.chk"
 -----
 titel
 -----
 Charge =  0 Multiplicity = 1

                         Standard orientation:
 ---------------------------------------------------------------------
 Center     Atomic      Atomic             Coordinates (Angstroms)
 Number     Number       Type             X           Y           Z
 ---------------------------------------------------------------------
      1          6           0        3.147503   -0.455431    0.213906
      2          6           0        1.685515   -0.221643    0.007486
      3          6           0        0.758250   -1.129307   -0.315251
      4          6           0       -0.600579   -0.491400   -0.487669
      5          6           0       -1.808726   -1.256805   -0.005269
      6          8           0       -2.768910   -0.721881    0.497007
      7          6           0       -0.429293    0.874246    0.227795
      8          8           0       -1.214682    1.916749   -0.302981
      9          6           0        1.074993    1.164067    0.109023
     10          1           0        3.458848   -0.140804    1.217974
     11          1           0        3.411788   -1.508866    0.087735
     12          1           0        3.744298    0.133799   -0.493912
     13          1           0        0.947813   -2.185189   -0.479838
     14          1           0       -0.797686   -0.303847   -1.559892
     15          1           0       -1.790159   -2.359426   -0.160007
     16          1           0       -0.672328    0.713943    1.288619
     17          1           0       -2.130402    1.692625   -0.099053
     18          1           0        1.268080    1.746582   -0.803207
     19          1           0        1.462512    1.749879    0.949241
 ---------------------------------------------------------------------

 SCF Done:  E(RB3LYP) =  -423.210209701     A.U. after    1 cycles

 The electronic state is 1-A.
 Alpha  occ. eigenvalues --  -19.14911 -19.13142 -10.27788 -10.23431 -10.19778
 Alpha  occ. eigenvalues --  -10.19668 -10.18827 -10.18500 -10.18474  -1.05494
 Alpha  occ. eigenvalues --   -1.01651  -0.85360  -0.76081  -0.72104  -0.67501
 Alpha  occ. eigenvalues --   -0.61453  -0.56088  -0.53714  -0.51316  -0.49320
 Alpha  occ. eigenvalues --   -0.45519  -0.43774  -0.42995  -0.42662  -0.40943
 Alpha  occ. eigenvalues --   -0.39320  -0.38322  -0.37164  -0.35820  -0.35058
 Alpha  occ. eigenvalues --   -0.31765  -0.27359  -0.25788  -0.23792
 Alpha virt. eigenvalues --   -0.02993   0.01717   0.09561   0.09621   0.11710
 Alpha virt. eigenvalues --    0.12668   0.13205   0.13930   0.16650   0.16897
 Alpha virt. eigenvalues --    0.17379   0.18354   0.19118   0.21299   0.23939

 Mulliken charges:
               1
     1  C   -0.491132
     2  C    0.321847
     3  C   -0.205681
     4  C   -0.141992
     5  C    0.136125
     6  O   -0.257994
     7  C    0.140732
     8  O   -0.444853
     9  C   -0.329975
    10  H    0.129471
    11  H    0.124099
    12  H    0.130475
    13  H    0.092171
    14  H    0.117572
    15  H    0.083324
    16  H    0.081260
    17  H    0.290090
    18  H    0.118554
    19  H    0.105906
 Sum of Mulliken charges =   0.00000

 Dipole moment (field-independent basis, Debye):
    X=              2.0679    Y=             -1.4791    Z=             -0.3865  Tot=              2.5716
 Quadrupole moment (field-independent basis, Debye-Ang):
   XX=            -55.5606   YY=            -54.0544   ZZ=            -53.1987
   XY=              0.1246   XZ=              2.4841   YZ=              2.3352

  Exact polarizability:  97.759   4.057  80.520   1.521   3.657  57.278
 Approx polarizability: 132.492   8.258 120.922   0.545   7.106  92.952

                      1                      2                      3
                      A                      A                      A
 Frequencies --     65.4725               107.3927               162.7689
 Red. masses --      4.9474                 2.7646                 1.7733
 Frc consts  --      0.0125                 0.0188                 0.0277
 IR Inten    --      5.3125                 1.4222                 3.1787

                      4                      5                      6
                      A                      A                      A
 Frequencies --    168.3116               202.3115               263.4008
 Red. masses --      3.2671                 1.4648                 3.0873
 Frc consts  --      0.0545                 0.0353                 0.1262
 IR Inten    --      4.3678                 1.5878                 1.3493

                      7                      8                      9
                      A                      A                      A
 Frequencies --    335.0641               414.5267               437.7709
 Red. masses --      3.5238                 2.8517                 1.9822
 Frc consts  --      0.2331                 0.2887                 0.2238
 IR Inten    --      1.5559                10.8736                25.1049

                     10                     11                     12
                      A                      A                      A
 Frequencies --    461.4001               468.7700               521.8444
 Red. masses --      1.4650                 2.1500                 4.8346
 Frc consts  --      0.1838                 0.2784                 0.7757
 IR Inten    --     42.0166                41.5372                 8.0885

                     13                     14                     15
                      A                      A                      A
 Frequencies --    595.0921               698.9145               792.4032
 Red. masses --      2.9782                 4.2885                 2.4026
 Frc consts  --      0.6214                 1.2343                 0.8889
 IR Inten    --      8.3599                21.3874                 6.7650

                     16                     17                     18
                      A                      A                      A
 Frequencies --    826.2325               878.6079               931.1894
 Red. masses --      1.3699                 3.2866                 1.4508
 Frc consts  --      0.5510                 1.4948                 0.7412
 IR Inten    --      9.1434                 1.9758                 1.1296

                     19                     20                     21
                      A                      A                      A
 Frequencies --    998.3075              1008.5590              1041.3724
 Red. masses --      1.7873                 1.6508                 1.9516
 Frc consts  --      1.0495                 0.9893                 1.2469
 IR Inten    --      4.6536                15.9119                18.8600

                     22                     23                     24
                      A                      A                      A
 Frequencies --   1061.4580              1078.2418              1088.7805
 Red. masses --      1.5565                 1.9629                 2.2494
 Frc consts  --      1.0332                 1.3446                 1.5711
 IR Inten    --      6.8326                15.9329                17.1615

                     25                     26                     27
                      A                      A                      A
 Frequencies --   1125.1653              1173.6973              1183.4461
 Red. masses --      3.5961                 1.8471                 1.6124
 Frc consts  --      2.6824                 1.4992                 1.3305
 IR Inten    --     63.7075                12.5669                 2.9472

                     28                     29                     30
                      A                      A                      A
 Frequencies --   1225.0993              1268.8924              1290.6019
 Red. masses --      1.7249                 1.3453                 1.2256
 Frc consts  --      1.5253                 1.2762                 1.2028
 IR Inten    --     17.9816                 1.3815                75.0516

                     31                     32                     33
                      A                      A                      A
 Frequencies --   1301.9385              1333.4582              1382.1519
 Red. masses --      1.5767                 2.1805                 1.5072
 Frc consts  --      1.5747                 2.2844                 1.6964
 IR Inten    --      3.6380                 3.7138                37.4627

                     34                     35                     36
                      A                      A                      A
 Frequencies --   1413.5160              1415.2470              1437.4208
 Red. masses --      1.2815                 1.2564                 1.4658
 Frc consts  --      1.5086                 1.4826                 1.7844
 IR Inten    --      0.3871                 3.1636                 8.9253

                     37                     38                     39
                      A                      A                      A
 Frequencies --   1477.8711              1486.2971              1487.7165
 Red. masses --      1.0457                 1.0900                 1.0785
 Frc consts  --      1.3457                 1.4187                 1.4065
 IR Inten    --      6.6979                 0.6171                 5.0908

                     40                     41                     42
                      A                      A                      A
 Frequencies --   1711.1833              1808.0042              2876.1524
 Red. masses --      7.0157                10.5744                 1.0835
 Frc consts  --     12.1036                20.3659                 5.2808
 IR Inten    --      3.0539               161.1263               125.5689

                     43                     44                     45
                      A                      A                      A
 Frequencies --   2939.0301              2992.7487              3014.3748
 Red. masses --      1.0783                 1.0837                 1.0608
 Frc consts  --      5.4880                 5.7185                 5.6793
 IR Inten    --     19.9603                29.1134                19.4930

                     46                     47                     48
                      A                      A                      A
 Frequencies --   3019.6174              3065.6318              3070.1716
 Red. masses --      1.0423                 1.0984                 1.0960
 Frc consts  --      5.5993                 6.0819                 6.0866
 IR Inten    --     37.6010                12.6424                32.9791

                     49                     50                     51
                      A                      A                      A
 Frequencies --   3111.1557              3180.7483              3795.1222
 Red. masses --      1.0996                 1.0931                 1.0656
 Frc consts  --      6.2708                 6.5159                 9.0426
 IR Inten    --     19.2256                15.5691                37.7111

 - Thermochemistry -
 -------------------
 Temperature   298.150 Kelvin.  Pressure   1.00000 Atm.
 Atom     1 has atomic number  6 and mass  12.00000

 Molecular mass:   126.06808 amu.
 Principal axes and moments of inertia in atomic units:
                           1         2         3
     Eigenvalues --   619.974611553.787932042.29946
           X            0.99993  -0.00815   0.00848
           Y            0.00799   0.99980   0.01826
           Z           -0.00863  -0.01820   0.99980
 This molecule is an asymmetric top.
 Rotational symmetry number  1.
 Warning -- assumption of classical behavior for rotation
           may cause significant error
 Rotational temperatures (Kelvin)      0.13971     0.05574     0.04241
 Rotational constants (GHZ):           2.91099     1.16151     0.88368
 Zero-point vibrational energy     413875.9 (Joules/Mol)
                                   98.91872 (Kcal/Mol)
 Warning -- explicit consideration of  13 degrees of freedom as
           vibrations may cause significant error
 Vibrational temperatures:     94.20   154.51   234.19   242.16   291.08
          (Kelvin)            378.97   482.08   596.41   629.85   663.85
                              674.45   750.82   856.20  1005.58  1140.09
                             1188.76  1264.12  1339.77  1436.34  1451.09
                             1498.30  1527.20  1551.35  1566.51  1618.86
                             1688.69  1702.71  1762.64  1825.65  1856.89
                             1873.20  1918.55  1988.61  2033.73  2036.22
                             2068.13  2126.32  2138.45  2140.49  2462.01
                             2601.31  4138.14  4228.60  4305.89  4337.01
                             4344.55  4410.75  4417.29  4476.25  4576.38
                             5460.33

 Zero-point correction=                           0.157637 (Hartree/Particle)
 Thermal correction to Energy=                    0.166798
 Thermal correction to Enthalpy=                  0.167742
 Thermal correction to Gibbs Free Energy=         0.123457
 Sum of electronic and zero-point Energies=           -423.052573
 Sum of electronic and thermal Energies=              -423.043412
 Sum of electronic and thermal Enthalpies=            -423.042468
 Sum of electronic and thermal Free Energies=         -423.086753

                     E (Thermal)             CV                S
                      KCal/Mol        Cal/Mol-Kelvin    Cal/Mol-Kelvin
 Total                  104.667             33.818             93.207
 Electronic               0.000              0.000              0.000
 Translational            0.889              2.981             40.409
 Rotational               0.889              2.981             29.066
 Vibrational            102.890             27.857             23.732
 Vibration     1          0.597              1.971              4.285
 Vibration     2          0.606              1.943              3.316
 Vibration     3          0.623              1.888              2.517
 Vibration     4          0.625              1.881              2.454
 Vibration     5          0.639              1.837              2.112
 Vibration     6          0.670              1.740              1.639
 Vibration     7          0.716              1.605              1.236
 Vibration     8          0.778              1.439              0.911
 Vibration     9          0.798              1.388              0.834
 Vibration    10          0.819              1.336              0.762
 Vibration    11          0.826              1.319              0.741
 Vibration    12          0.877              1.202              0.606
 Vibration    13          0.953              1.042              0.458

 Normal termination of Gaussian 09 at Tue Jan 28 01:22:10 2020.
