 Gaussian 09, Revision D.01,
 Gaussian 09:  ES64L-G09RevD.01 24-Apr-2013

 -----------------------------
 # b3lyp 6-31G(2df,p) opt Freq
 -----------------------------

 -----
 titel
 -----
 Symbolic Z-matrix:
 Charge =  0 Multiplicity = 1

 SCF Done:  E(RB3LYP) =  -423.155416599     A.U. after   13 cycles
 Optimization completed.
    -- Stationary point found.
 Normal termination of Gaussian 09 at Tue Jan 28 09:58:22 2020.

 ----------------------------------------------------------------------
 #N Geom=AllCheck Guess=TCheck SCRF=Check GenChk RB3LYP/6-31G(2df,p) Fr
 eq
 ----------------------------------------------------------------------

 Structure from the checkpoint file:  "/scratch/puck/g09_2b1d66d3-bac0-4fea-9ddb-8c173b133d2c/Gau-21550.chk"
 -----
 titel
 -----
 Charge =  0 Multiplicity = 1

                         Standard orientation:
 ---------------------------------------------------------------------
 Center     Atomic      Atomic             Coordinates (Angstroms)
 Number     Number       Type             X           Y           Z
 ---------------------------------------------------------------------
      1          8           0       -2.719880    0.132417   -0.296342
      2          6           0       -1.783567   -0.324000    0.662040
      3          6           0       -0.367524   -0.145496    0.170382
      4          6           0        0.132485   -0.979532   -1.058584
      5          6           0        1.462827   -1.151592   -0.323076
      6          6           0        1.898060    0.174454    0.280686
      7          6           0        1.245173    1.449264   -0.241868
      8          8           0       -0.161363    1.253284   -0.054575
      9          6           0        0.856208   -0.646581    0.979163
     10          1           0       -2.433354    1.019900   -0.542603
     11          1           0       -1.894315    0.205500    1.622364
     12          1           0       -1.991479   -1.384547    0.834542
     13          1           0       -0.409051   -1.925110   -1.144372
     14          1           0        0.125670   -0.470663   -2.027392
     15          1           0        2.171887   -1.959268   -0.460982
     16          1           0        2.899704    0.221581    0.691315
     17          1           0        1.553887    2.331924    0.329952
     18          1           0        1.465738    1.633522   -1.302239
     19          1           0        0.899292   -1.017539    1.994295
 ---------------------------------------------------------------------

 SCF Done:  E(RB3LYP) =  -423.155416599     A.U. after    1 cycles

 The electronic state is 1-A.
 Alpha  occ. eigenvalues --  -19.13945 -19.12729 -10.23733 -10.23050 -10.22318
 Alpha  occ. eigenvalues --  -10.19925 -10.19895 -10.19197 -10.18174  -1.04463
 Alpha  occ. eigenvalues --   -1.00687  -0.89040  -0.76640  -0.69233  -0.67380
 Alpha  occ. eigenvalues --   -0.60987  -0.58113  -0.53434  -0.52779  -0.47837
 Alpha  occ. eigenvalues --   -0.46741  -0.46496  -0.43953  -0.41582  -0.40031
 Alpha  occ. eigenvalues --   -0.39193  -0.37638  -0.36395  -0.32052  -0.30986
 Alpha  occ. eigenvalues --   -0.29201  -0.27303  -0.25931  -0.24539
 Alpha virt. eigenvalues --    0.08504   0.09729   0.10301   0.11754   0.12389
 Alpha virt. eigenvalues --    0.14008   0.14856   0.14994   0.15347   0.16600
 Alpha virt. eigenvalues --    0.18177   0.18590   0.18727   0.19595   0.22676

 Mulliken charges:
               1
     1  O   -0.422301
     2  C   -0.150117
     3  C    0.395551
     4  C   -0.277384
     5  C   -0.078392
     6  C   -0.069765
     7  C   -0.111726
     8  O   -0.317755
     9  C   -0.141817
    10  H    0.292711
    11  H    0.091216
    12  H    0.107408
    13  H    0.107419
    14  H    0.097156
    15  H    0.086810
    16  H    0.094411
    17  H    0.106688
    18  H    0.100427
    19  H    0.089460
 Sum of Mulliken charges =   0.00000

 Dipole moment (field-independent basis, Debye):
    X=              2.4333    Y=             -0.2705    Z=              0.6247  Tot=              2.5268
 Quadrupole moment (field-independent basis, Debye-Ang):
   XX=            -56.5611   YY=            -51.2319   ZZ=            -52.0015
   XY=             -0.2738   XZ=             -0.6697   YZ=             -1.3400

  Exact polarizability:  79.483   2.571  73.539   0.222  -0.338  68.156
 Approx polarizability: 108.781   2.909 109.500   0.116  -0.644 104.803

                      1                      2                      3
                      A                      A                      A
 Frequencies --     98.8150               162.9852               221.0841
 Red. masses --      3.9732                 4.3839                 2.2686
 Frc consts  --      0.0229                 0.0686                 0.0653
 IR Inten    --      3.7707                 1.1808                 1.8895

                      4                      5                      6
                      A                      A                      A
 Frequencies --    322.7407               360.7964               421.4719
 Red. masses --      2.1114                 2.7111                 2.5810
 Frc consts  --      0.1296                 0.2079                 0.2701
 IR Inten    --      5.3249                10.5944                 9.6368

                      7                      8                      9
                      A                      A                      A
 Frequencies --    441.6157               454.8539               652.6023
 Red. masses --      1.3639                 2.3328                 4.4207
 Frc consts  --      0.1567                 0.2844                 1.1093
 IR Inten    --    103.7647                 4.6759                 4.3864

                     10                     11                     12
                      A                      A                      A
 Frequencies --    671.8196               735.5667               753.3218
 Red. masses --      4.2635                 3.7681                 2.5360
 Frc consts  --      1.1338                 1.2012                 0.8479
 IR Inten    --     13.2564                 3.0277                 3.5055

                     13                     14                     15
                      A                      A                      A
 Frequencies --    790.3189               829.3454               885.0934
 Red. masses --      2.1289                 1.9889                 2.1407
 Frc consts  --      0.7835                 0.8060                 0.9881
 IR Inten    --      5.2009                 3.0721                28.2052

                     16                     17                     18
                      A                      A                      A
 Frequencies --    925.0423               952.8118               961.1782
 Red. masses --      1.7094                 1.3697                 1.9004
 Frc consts  --      0.8618                 0.7326                 1.0344
 IR Inten    --     11.0064                 2.5992                 4.0678

                     19                     20                     21
                      A                      A                      A
 Frequencies --    993.4979              1003.1130              1030.7562
 Red. masses --      2.9707                 2.6818                 1.9846
 Frc consts  --      1.7276                 1.5899                 1.2423
 IR Inten    --     18.7904                 0.2747                46.9085

                     22                     23                     24
                      A                      A                      A
 Frequencies --   1040.6026              1058.1900              1075.7412
 Red. masses --      1.8278                 2.1960                 1.8984
 Frc consts  --      1.1662                 1.4488                 1.2944
 IR Inten    --     32.4370                48.6740                27.1993

                     25                     26                     27
                      A                      A                      A
 Frequencies --   1080.3272              1107.9781              1132.6601
 Red. masses --      2.8033                 2.2665                 1.9080
 Frc consts  --      1.9277                 1.6393                 1.4422
 IR Inten    --     27.1410                 6.5558                15.2259

                     28                     29                     30
                      A                      A                      A
 Frequencies --   1152.3025              1215.0247              1221.5607
 Red. masses --      1.4048                 1.5948                 1.2497
 Frc consts  --      1.0990                 1.3872                 1.0987
 IR Inten    --      8.8089                 2.2673                 2.0213

                     31                     32                     33
                      A                      A                      A
 Frequencies --   1243.3175              1248.2447              1307.1295
 Red. masses --      1.6846                 1.3148                 1.8684
 Frc consts  --      1.5343                 1.2070                 1.8808
 IR Inten    --      3.2947                22.4306                 7.4258

                     34                     35                     36
                      A                      A                      A
 Frequencies --   1326.3510              1364.7870              1379.7219
 Red. masses --      2.0391                 1.7793                 1.3682
 Frc consts  --      2.1136                 1.9527                 1.5346
 IR Inten    --     16.2320                18.2051                13.4374

                     37                     38                     39
                      A                      A                      A
 Frequencies --   1400.1232              1444.9497              1487.1411
 Red. masses --      2.0828                 1.3953                 1.1165
 Frc consts  --      2.4056                 1.7164                 1.4548
 IR Inten    --      0.5644                54.8648                 1.0646

                     40                     41                     42
                      A                      A                      A
 Frequencies --   1497.9120              1526.0869              2975.7778
 Red. masses --      1.0920                 1.0889                 1.0702
 Frc consts  --      1.4436                 1.4942                 5.5838
 IR Inten    --      0.7735                 0.6115                54.9390

                     43                     44                     45
                      A                      A                      A
 Frequencies --   3007.5706              3049.2001              3054.9371
 Red. masses --      1.0629                 1.0597                 1.1005
 Frc consts  --      5.6646                 5.8050                 6.0511
 IR Inten    --     66.0615                27.7360                51.3699

                     46                     47                     48
                      A                      A                      A
 Frequencies --   3081.5373              3106.1027              3178.6560
 Red. masses --      1.0924                 1.1065                 1.0905
 Frc consts  --      6.1118                 6.2897                 6.4917
 IR Inten    --     19.5133                24.3679                16.6412

                     49                     50                     51
                      A                      A                      A
 Frequencies --   3189.0332              3207.0983              3796.3915
 Red. masses --      1.0894                 1.0981                 1.0655
 Frc consts  --      6.5279                 6.6543                 9.0481
 IR Inten    --     14.5907                12.2846                27.8933

 - Thermochemistry -
 -------------------
 Temperature   298.150 Kelvin.  Pressure   1.00000 Atm.
 Atom     1 has atomic number  8 and mass  15.99491

 Molecular mass:   126.06808 amu.
 Principal axes and moments of inertia in atomic units:
                           1         2         3
     Eigenvalues --   555.454261206.984351401.54761
           X            0.99991   0.01119  -0.00761
           Y           -0.01127   0.99988  -0.01029
           Z            0.00750   0.01037   0.99992
 This molecule is an asymmetric top.
 Rotational symmetry number  1.
 Warning -- assumption of classical behavior for rotation
           may cause significant error
 Rotational temperatures (Kelvin)      0.15593     0.07176     0.06180
 Rotational constants (GHZ):           3.24913     1.49525     1.28768
 Zero-point vibrational energy     422433.0 (Joules/Mol)
                                  100.96392 (Kcal/Mol)
 Warning -- explicit consideration of   8 degrees of freedom as
           vibrations may cause significant error
 Vibrational temperatures:    142.17   234.50   318.09   464.35   519.10
          (Kelvin)            606.40   635.39   654.43   938.95   966.60
                             1058.32  1083.86  1137.09  1193.24  1273.45
                             1330.93  1370.88  1382.92  1429.42  1443.25
                             1483.03  1497.19  1522.50  1547.75  1554.35
                             1594.13  1629.64  1657.90  1748.15  1757.55
                             1788.85  1795.94  1880.67  1908.32  1963.62
                             1985.11  2014.46  2078.96  2139.66  2155.16
                             2195.70  4281.48  4327.22  4387.11  4395.37
                             4433.64  4468.98  4573.37  4588.30  4614.29
                             5462.15

 Zero-point correction=                           0.160896 (Hartree/Particle)
 Thermal correction to Energy=                    0.168385
 Thermal correction to Enthalpy=                  0.169329
 Thermal correction to Gibbs Free Energy=         0.129067
 Sum of electronic and zero-point Energies=           -422.994520
 Sum of electronic and thermal Energies=              -422.987032
 Sum of electronic and thermal Enthalpies=            -422.986088
 Sum of electronic and thermal Free Energies=         -423.026350

                     E (Thermal)             CV                S
                      KCal/Mol        Cal/Mol-Kelvin    Cal/Mol-Kelvin
 Total                  105.663             30.148             84.739
 Electronic               0.000              0.000              0.000
 Translational            0.889              2.981             40.409
 Rotational               0.889              2.981             28.332
 Vibrational            103.886             24.186             15.999
 Vibration     1          0.604              1.950              3.478
 Vibration     2          0.623              1.888              2.515
 Vibration     3          0.648              1.809              1.950
 Vibration     4          0.708              1.630              1.296
 Vibration     5          0.735              1.553              1.119
 Vibration     6          0.784              1.424              0.887
 Vibration     7          0.801              1.379              0.822
 Vibration     8          0.813              1.350              0.781

 Optimization completed.
    -- Stationary point found.
 Normal termination of Gaussian 09 at Tue Jan 28 10:45:52 2020.
