 Gaussian 09, Revision D.01,
 Gaussian 09:  ES64L-G09RevD.01 24-Apr-2013

 -----------------------------
 # b3lyp 6-31G(2df,p) opt Freq
 -----------------------------

 -----
 titel
 -----
 Symbolic Z-matrix:
 Charge =  0 Multiplicity = 1

 SCF Done:  E(RB3LYP) =  -423.145087972     A.U. after   12 cycles
 Optimization completed.
    -- Stationary point found.
 Normal termination of Gaussian 09 at Mon Jan 27 17:46:30 2020.

 ----------------------------------------------------------------------
 #N Geom=AllCheck Guess=TCheck SCRF=Check GenChk RB3LYP/6-31G(2df,p) Fr
 eq
 ----------------------------------------------------------------------

 Structure from the checkpoint file:  "/scratch/puck/g09_3921433b-d4c1-4081-90f0-2769b3fe5d99/Gau-180585.chk"
 -----
 titel
 -----
 Charge =  0 Multiplicity = 1

                         Standard orientation:
 ---------------------------------------------------------------------
 Center     Atomic      Atomic             Coordinates (Angstroms)
 Number     Number       Type             X           Y           Z
 ---------------------------------------------------------------------
      1          6           0        1.800782    1.353314   -0.217573
      2          6           0        0.838770    0.240249    0.126071
      3          6           0        1.298191   -0.937400    0.970916
      4          6           0        0.909083   -1.142411   -0.471682
      5          8           0       -0.386952   -1.615791   -0.764152
      6          6           0       -1.330510   -0.609199   -0.503369
      7          6           0       -1.635189   -0.227057    0.935106
      8          6           0       -0.656694    0.581772    0.106627
      9          8           0       -1.009817    1.866538   -0.306198
     10          1           0        1.850566    2.099799    0.584170
     11          1           0        2.811118    0.957604   -0.357482
     12          1           0        1.501154    1.868515   -1.133759
     13          1           0        2.359768   -0.979570    1.196164
     14          1           0        0.667242   -1.342067    1.752720
     15          1           0        1.644616   -1.455864   -1.205456
     16          1           0       -2.111092   -0.536319   -1.252567
     17          1           0       -2.604459    0.238321    1.085628
     18          1           0       -1.299275   -0.854743    1.750858
     19          1           0       -0.992088    2.442744    0.465947
 ---------------------------------------------------------------------

 SCF Done:  E(RB3LYP) =  -423.145087972     A.U. after    1 cycles

 The electronic state is 1-A.
 Alpha  occ. eigenvalues --  -19.15073 -19.14602 -10.24224 -10.23075 -10.23060
 Alpha  occ. eigenvalues --  -10.19979 -10.18459 -10.18305 -10.17988  -1.05407
 Alpha  occ. eigenvalues --   -1.03099  -0.85599  -0.83237  -0.71521  -0.63483
 Alpha  occ. eigenvalues --   -0.62563  -0.57662  -0.56366  -0.52248  -0.47708
 Alpha  occ. eigenvalues --   -0.46370  -0.45558  -0.42938  -0.41675  -0.40627
 Alpha  occ. eigenvalues --   -0.39862  -0.37365  -0.36779  -0.35649  -0.30977
 Alpha  occ. eigenvalues --   -0.29420  -0.28538  -0.24849  -0.22574
 Alpha virt. eigenvalues --    0.06825   0.09023   0.10097   0.11254   0.12243
 Alpha virt. eigenvalues --    0.13702   0.15042   0.16401   0.16716   0.17389
 Alpha virt. eigenvalues --    0.18590   0.19747   0.20403   0.21541   0.22462

 Mulliken charges:
               1
     1  C   -0.479395
     2  C    0.227788
     3  C   -0.379785
     4  C    0.071819
     5  O   -0.260540
     6  C    0.063066
     7  C   -0.395847
     8  C    0.296965
     9  O   -0.457586
    10  H    0.109554
    11  H    0.113888
    12  H    0.135639
    13  H    0.109384
    14  H    0.116205
    15  H    0.098865
    16  H    0.110432
    17  H    0.115063
    18  H    0.119278
    19  H    0.285206
 Sum of Mulliken charges =   0.00000

 Dipole moment (field-independent basis, Debye):
    X=              0.5896    Y=              1.3051    Z=              1.5495  Tot=              2.1099
 Quadrupole moment (field-independent basis, Debye-Ang):
   XX=            -49.8965   YY=            -55.0818   ZZ=            -52.7675
   XY=             -1.3345   XZ=             -1.8938   YZ=              1.7239

  Exact polarizability:  81.601  -0.954  73.411  -0.814  -0.335  66.720
 Approx polarizability: 109.707  -2.120 110.136   0.461   2.346 105.092

                      1                      2                      3
                      A                      A                      A
 Frequencies --    139.1674               190.0110               247.5925
 Red. masses --      2.9255                 1.0891                 3.9760
 Frc consts  --      0.0334                 0.0232                 0.1436
 IR Inten    --      1.3006                 0.1031                 2.8419

                      4                      5                      6
                      A                      A                      A
 Frequencies --    282.8843               304.7891               325.7588
 Red. masses --      1.7028                 2.0319                 2.0573
 Frc consts  --      0.0803                 0.1112                 0.1286
 IR Inten    --     19.8268                34.5426                40.1380

                      7                      8                      9
                      A                      A                      A
 Frequencies --    373.0077               426.8052               462.4492
 Red. masses --      2.6921                 3.0812                 2.7982
 Frc consts  --      0.2207                 0.3307                 0.3526
 IR Inten    --      1.3582                19.1105                 0.6668

                     10                     11                     12
                      A                      A                      A
 Frequencies --    491.0524               590.6544               615.1330
 Red. masses --      2.3006                 3.2347                 3.6306
 Frc consts  --      0.3269                 0.6649                 0.8094
 IR Inten    --      3.2200                 5.8288                 1.8349

                     13                     14                     15
                      A                      A                      A
 Frequencies --    698.9866               799.7203               812.2076
 Red. masses --      5.4644                 2.4346                 2.3086
 Frc consts  --      1.5730                 0.9174                 0.8973
 IR Inten    --      7.5785                18.4746                 4.0803

                     16                     17                     18
                      A                      A                      A
 Frequencies --    849.5970               886.4585               909.3449
 Red. masses --      2.0773                 1.6436                 1.9015
 Frc consts  --      0.8834                 0.7610                 0.9264
 IR Inten    --      8.4400                11.9734                 3.5882

                     19                     20                     21
                      A                      A                      A
 Frequencies --    946.2692               967.7616               988.6539
 Red. masses --      2.2726                 1.6126                 2.0068
 Frc consts  --      1.1990                 0.8898                 1.1557
 IR Inten    --     11.8244                15.8739                 6.4076

                     22                     23                     24
                      A                      A                      A
 Frequencies --   1003.6594              1026.0358              1032.7619
 Red. masses --      1.5103                 1.6275                 1.4696
 Frc consts  --      0.8964                 1.0095                 0.9236
 IR Inten    --      8.7399                 2.1103                 0.9474

                     25                     26                     27
                      A                      A                      A
 Frequencies --   1069.1799              1088.5078              1104.5057
 Red. masses --      1.8754                 1.9768                 1.6068
 Frc consts  --      1.2631                 1.3800                 1.1549
 IR Inten    --     23.5408                18.0080                 3.0265

                     28                     29                     30
                      A                      A                      A
 Frequencies --   1126.6309              1168.4802              1194.6658
 Red. masses --      1.9116                 3.4936                 2.9785
 Frc consts  --      1.4296                 2.8104                 2.5046
 IR Inten    --      8.7963                57.9453                67.2226

                     31                     32                     33
                      A                      A                      A
 Frequencies --   1237.8567              1283.0970              1309.7320
 Red. masses --      2.0378                 1.4663                 2.9048
 Frc consts  --      1.8397                 1.4223                 2.9359
 IR Inten    --     94.0154                 0.6265                29.2290

                     34                     35                     36
                      A                      A                      A
 Frequencies --   1331.7480              1388.5732              1398.4068
 Red. masses --      1.6261                 1.5656                 1.8337
 Frc consts  --      1.6992                 1.7785                 2.1128
 IR Inten    --     15.4344                 6.8512                 3.1941

                     37                     38                     39
                      A                      A                      A
 Frequencies --   1417.4542              1469.7216              1486.7103
 Red. masses --      1.3026                 1.6430                 1.0739
 Frc consts  --      1.5420                 2.0910                 1.3985
 IR Inten    --      1.9290                12.4801                 9.0223

                     40                     41                     42
                      A                      A                      A
 Frequencies --   1489.8037              1501.3165              3029.5381
 Red. masses --      1.2019                 1.0799                 1.0393
 Frc consts  --      1.5718                 1.4342                 5.6200
 IR Inten    --      6.5828                 4.4806                35.2740

                     43                     44                     45
                      A                      A                      A
 Frequencies --   3091.1416              3119.3428              3129.0842
 Red. masses --      1.0964                 1.1008                 1.0554
 Frc consts  --      6.1724                 6.3106                 6.0885
 IR Inten    --     21.2142                12.0616                11.3901

                     46                     47                     48
                      A                      A                      A
 Frequencies --   3136.0350              3161.3304              3174.9977
 Red. masses --      1.0557                 1.0911                 1.0928
 Frc consts  --      6.1169                 6.4250                 6.4907
 IR Inten    --     10.8534                24.1117                13.8078

                     49                     50                     51
                      A                      A                      A
 Frequencies --   3218.1178              3230.6621              3793.5316
 Red. masses --      1.1149                 1.1137                 1.0662
 Frc consts  --      6.8027                 6.8483                 9.0402
 IR Inten    --     10.6613                 6.7405                19.7204

 - Thermochemistry -
 -------------------
 Temperature   298.150 Kelvin.  Pressure   1.00000 Atm.
 Atom     1 has atomic number  6 and mass  12.00000

 Molecular mass:   126.06808 amu.
 Principal axes and moments of inertia in atomic units:
                           1         2         3
     Eigenvalues --   816.91974 873.675331312.46259
           X            0.98149   0.19069  -0.01799
           Y           -0.19103   0.98139  -0.01951
           Z            0.01394   0.02258   0.99965
 This molecule is an asymmetric top.
 Rotational symmetry number  1.
 Warning -- assumption of classical behavior for rotation
           may cause significant error
 Rotational temperatures (Kelvin)      0.10602     0.09914     0.06599
 Rotational constants (GHZ):           2.20920     2.06569     1.37508
 Zero-point vibrational energy     415827.5 (Joules/Mol)
                                   99.38516 (Kcal/Mol)
 Warning -- explicit consideration of  12 degrees of freedom as
           vibrations may cause significant error
 Vibrational temperatures:    200.23   273.38   356.23   407.01   438.52
          (Kelvin)            468.69   536.67   614.08   665.36   706.51
                              849.82   885.04  1005.68  1150.62  1168.58
                             1222.38  1275.41  1308.34  1361.47  1392.39
                             1422.45  1444.04  1476.23  1485.91  1538.31
                             1566.12  1589.14  1620.97  1681.18  1718.86
                             1781.00  1846.09  1884.41  1916.09  1997.84
                             2011.99  2039.40  2114.60  2139.04  2143.49
                             2160.06  4358.82  4447.46  4488.03  4502.05
                             4512.05  4548.44  4568.11  4630.15  4648.20
                             5458.04

 Zero-point correction=                           0.158380 (Hartree/Particle)
 Thermal correction to Energy=                    0.166504
 Thermal correction to Enthalpy=                  0.167448
 Thermal correction to Gibbs Free Energy=         0.126451
 Sum of electronic and zero-point Energies=           -422.986708
 Sum of electronic and thermal Energies=              -422.978584
 Sum of electronic and thermal Enthalpies=            -422.977639
 Sum of electronic and thermal Free Energies=         -423.018637

                     E (Thermal)             CV                S
                      KCal/Mol        Cal/Mol-Kelvin    Cal/Mol-Kelvin
 Total                  104.483             32.897             86.287
 Electronic               0.000              0.000              0.000
 Translational            0.889              2.981             40.409
 Rotational               0.889              2.981             28.329
 Vibrational            102.706             26.936             17.550
 Vibration     1          0.615              1.914              2.815
 Vibration     2          0.633              1.854              2.228
 Vibration     3          0.661              1.767              1.748
 Vibration     4          0.682              1.705              1.516
 Vibration     5          0.696              1.665              1.390
 Vibration     6          0.710              1.624              1.281
 Vibration     7          0.744              1.528              1.067
 Vibration     8          0.788              1.412              0.869
 Vibration     9          0.820              1.333              0.759
 Vibration    10          0.847              1.270              0.681
 Vibration    11          0.948              1.052              0.466
 Vibration    12          0.975              1.000              0.424

 Normal termination of Gaussian 09 at Mon Jan 27 18:31:49 2020.
