 Gaussian 09, Revision D.01,
 Gaussian 09:  ES64L-G09RevD.01 24-Apr-2013

 -----------------------------
 # b3lyp 6-31G(2df,p) opt Freq
 -----------------------------

 -----
 titel
 -----
 Symbolic Z-matrix:
 Charge =  0 Multiplicity = 1

 SCF Done:  E(RB3LYP) =  -423.192524897     A.U. after   14 cycles
 Optimization completed.
    -- Stationary point found.
 Normal termination of Gaussian 09 at Mon Jan 27 16:23:28 2020.

 ----------------------------------------------------------------------
 #N Geom=AllCheck Guess=TCheck SCRF=Check GenChk RB3LYP/6-31G(2df,p) Fr
 eq
 ----------------------------------------------------------------------

 Structure from the checkpoint file:  "/scratch/puck/g09_79110bca-e796-4cc2-b906-4a5eae440c37/Gau-29988.chk"
 -----
 titel
 -----
 Charge =  0 Multiplicity = 1

                         Standard orientation:
 ---------------------------------------------------------------------
 Center     Atomic      Atomic             Coordinates (Angstroms)
 Number     Number       Type             X           Y           Z
 ---------------------------------------------------------------------
      1          6           0        1.712944    1.399296   -0.490394
      2          6           0        1.205674    0.094552    0.093412
      3          6           0       -0.019402    0.231077    1.005547
      4          6           0       -1.237498    0.644700    0.210898
      5          8           0       -1.525250    1.784222   -0.079358
      6          6           0       -2.172663   -0.464434   -0.298317
      7          8           0       -2.016308   -1.636555   -0.075847
      8          6           0        1.329869   -1.167117   -0.733760
      9          6           0        2.221925   -0.959089    0.465992
     10          1           0        2.028139    2.087273    0.302905
     11          1           0        2.573443    1.223155   -1.142671
     12          1           0        0.941858    1.908462   -1.077005
     13          1           0       -0.223689   -0.724051    1.496085
     14          1           0        0.166533    0.996345    1.766478
     15          1           0       -3.022666   -0.061809   -0.888806
     16          1           0        0.543504   -1.909479   -0.656897
     17          1           0        1.772340   -1.082725   -1.720651
     18          1           0        2.039843   -1.563874    1.347972
     19          1           0        3.268062   -0.728547    0.293952
 ---------------------------------------------------------------------

 SCF Done:  E(RB3LYP) =  -423.192524897     A.U. after    1 cycles

 The electronic state is 1-A.
 Alpha  occ. eigenvalues --  -19.17412 -19.16000 -10.29006 -10.28584 -10.21212
 Alpha  occ. eigenvalues --  -10.20020 -10.18893 -10.18723 -10.17994  -1.07974
 Alpha  occ. eigenvalues --   -1.06212  -0.87400  -0.76124  -0.71275  -0.67302
 Alpha  occ. eigenvalues --   -0.60675  -0.56804  -0.53424  -0.50190  -0.48590
 Alpha  occ. eigenvalues --   -0.47733  -0.46245  -0.44653  -0.42709  -0.41426
 Alpha  occ. eigenvalues --   -0.40052  -0.39280  -0.37720  -0.36551  -0.34745
 Alpha  occ. eigenvalues --   -0.32069  -0.29476  -0.28500  -0.24643
 Alpha virt. eigenvalues --   -0.09637   0.02733   0.08888   0.11041   0.12228
 Alpha virt. eigenvalues --    0.12529   0.13890   0.14662   0.15212   0.16431
 Alpha virt. eigenvalues --    0.17707   0.18703   0.20001   0.21227   0.22417

 Mulliken charges:
               1
     1  C   -0.458607
     2  C    0.359117
     3  C   -0.377527
     4  C    0.303542
     5  O   -0.280909
     6  C    0.089002
     7  O   -0.216475
     8  C   -0.304714
     9  C   -0.314650
    10  H    0.118171
    11  H    0.113829
    12  H    0.134093
    13  H    0.125134
    14  H    0.124202
    15  H    0.110524
    16  H    0.134461
    17  H    0.112674
    18  H    0.114314
    19  H    0.113818
 Sum of Mulliken charges =   0.00000

 Dipole moment (field-independent basis, Debye):
    X=              1.0488    Y=             -0.1230    Z=              0.2990  Tot=              1.0975
 Quadrupole moment (field-independent basis, Debye-Ang):
   XX=            -52.1417   YY=            -61.6417   ZZ=            -50.9699
   XY=              0.3940   XZ=             -0.3004   YZ=              0.2937

  Exact polarizability:  84.361  -2.784  81.383   4.117  -1.154  63.912
 Approx polarizability: 109.535  -7.594 136.236   6.254  -4.700  97.213

                      1                      2                      3
                      A                      A                      A
 Frequencies --     42.2761                86.7215               128.3868
 Red. masses --      4.8822                 4.2804                 3.4638
 Frc consts  --      0.0051                 0.0190                 0.0336
 IR Inten    --      0.1937                 0.0769                20.1702

                      4                      5                      6
                      A                      A                      A
 Frequencies --    149.7027               211.0924               236.0337
 Red. masses --      3.9997                 1.5625                 1.9144
 Frc consts  --      0.0528                 0.0410                 0.0628
 IR Inten    --      0.2237                 2.9599                 5.3864

                      7                      8                      9
                      A                      A                      A
 Frequencies --    316.4216               344.4066               362.6339
 Red. masses --      2.4149                 2.2559                 2.3352
 Frc consts  --      0.1425                 0.1577                 0.1809
 IR Inten    --      0.1725                 4.5770                 4.1830

                     10                     11                     12
                      A                      A                      A
 Frequencies --    417.1318               479.3617               564.3385
 Red. masses --      2.5143                 3.3973                 4.2277
 Frc consts  --      0.2578                 0.4600                 0.7933
 IR Inten    --      3.5844                25.6196                 2.0162

                     13                     14                     15
                      A                      A                      A
 Frequencies --    578.3936               719.1608               787.7923
 Red. masses --      4.1710                 3.2892                 1.1494
 Frc consts  --      0.8221                 1.0023                 0.4203
 IR Inten    --     18.5939                 7.6937                 1.1786

                     16                     17                     18
                      A                      A                      A
 Frequencies --    810.3584               870.1196               922.4673
 Red. masses --      2.5303                 2.6178                 1.5384
 Frc consts  --      0.9790                 1.1677                 0.7713
 IR Inten    --      6.3564                 2.6200                 2.8519

                     19                     20                     21
                      A                      A                      A
 Frequencies --    939.7566               955.5280               966.9782
 Red. masses --      1.8910                 1.7828                 1.6245
 Frc consts  --      0.9839                 0.9591                 0.8950
 IR Inten    --      2.4536                 5.0950                 2.7744

                     22                     23                     24
                      A                      A                      A
 Frequencies --   1029.5248              1051.1919              1072.0052
 Red. masses --      2.0045                 1.2941                 1.8746
 Frc consts  --      1.2518                 0.8425                 1.2693
 IR Inten    --      0.7899                 5.0986                 1.8309

                     25                     26                     27
                      A                      A                      A
 Frequencies --   1090.3957              1120.8007              1154.9727
 Red. masses --      1.3784                 1.5883                 1.9350
 Frc consts  --      0.9656                 1.1755                 1.5208
 IR Inten    --      1.7148                 1.8410                 2.9990

                     28                     29                     30
                      A                      A                      A
 Frequencies --   1192.8139              1247.4803              1303.9694
 Red. masses --      1.2993                 1.9476                 2.5293
 Frc consts  --      1.0892                 1.7858                 2.5339
 IR Inten    --      0.5578                23.5025                14.9780

                     31                     32                     33
                      A                      A                      A
 Frequencies --   1310.2171              1361.9858              1371.6110
 Red. masses --      1.7694                 1.2042                 1.8803
 Frc consts  --      1.7896                 1.3161                 2.0842
 IR Inten    --      7.6813                 4.7091                 6.9675

                     34                     35                     36
                      A                      A                      A
 Frequencies --   1426.5420              1462.6753              1471.7064
 Red. masses --      1.3152                 1.1067                 1.0896
 Frc consts  --      1.5769                 1.3951                 1.3905
 IR Inten    --      4.7633                 7.9914                 0.4606

                     37                     38                     39
                      A                      A                      A
 Frequencies --   1492.9346              1499.9522              1509.6218
 Red. masses --      1.0489                 1.0710                 1.3082
 Frc consts  --      1.3774                 1.4197                 1.7565
 IR Inten    --      4.7802                 3.6268                 2.0792

                     40                     41                     42
                      A                      A                      A
 Frequencies --   1795.9258              1819.9295              2924.9469
 Red. masses --     11.1231                11.0383                 1.0879
 Frc consts  --     21.1374                21.5409                 5.4840
 IR Inten    --     84.9815                94.1441                97.9997

                     43                     44                     45
                      A                      A                      A
 Frequencies --   3030.2417              3050.1575              3093.2326
 Red. masses --      1.0368                 1.0587                 1.0990
 Frc consts  --      5.6090                 5.8031                 6.1953
 IR Inten    --     24.1503                11.9795                20.2714

                     46                     47                     48
                      A                      A                      A
 Frequencies --   3109.9924              3113.5257              3129.6433
 Red. masses --      1.1015                 1.1032                 1.0523
 Frc consts  --      6.2769                 6.3008                 6.0724
 IR Inten    --     16.1056                 7.8444                16.9405

                     49                     50                     51
                      A                      A                      A
 Frequencies --   3136.2668              3210.2149              3226.6587
 Red. masses --      1.0574                 1.1177                 1.1157
 Frc consts  --      6.1280                 6.7865                 6.8437
 IR Inten    --      9.5241                 2.8111                10.3221

 - Thermochemistry -
 -------------------
 Temperature   298.150 Kelvin.  Pressure   1.00000 Atm.
 Atom     1 has atomic number  6 and mass  12.00000

 Molecular mass:   126.06808 amu.
 Principal axes and moments of inertia in atomic units:
                           1         2         3
     Eigenvalues --   757.094791389.518741860.33829
           X            0.99998   0.00659  -0.00136
           Y           -0.00660   0.99993  -0.00975
           Z            0.00129   0.00976   0.99995
 This molecule is an asymmetric top.
 Rotational symmetry number  1.
 Warning -- assumption of classical behavior for rotation
           may cause significant error
 Rotational temperatures (Kelvin)      0.11440     0.06233     0.04656
 Rotational constants (GHZ):           2.38377     1.29882     0.97011
 Zero-point vibrational energy     410918.4 (Joules/Mol)
                                   98.21186 (Kcal/Mol)
 Warning -- explicit consideration of  13 degrees of freedom as
           vibrations may cause significant error
 Vibrational temperatures:     60.83   124.77   184.72   215.39   303.71
          (Kelvin)            339.60   455.26   495.52   521.75   600.16
                              689.69   811.96   832.18  1034.71  1133.46
                             1165.92  1251.91  1327.22  1352.10  1374.79
                             1391.26  1481.25  1512.43  1542.37  1568.83
                             1612.58  1661.75  1716.19  1794.84  1876.12
                             1885.11  1959.59  1973.44  2052.47  2104.46
                             2117.45  2148.00  2158.09  2172.01  2583.93
                             2618.47  4208.34  4359.84  4388.49  4450.47
                             4474.58  4479.66  4502.85  4512.38  4618.78
                             4642.44

 Zero-point correction=                           0.156511 (Hartree/Particle)
 Thermal correction to Energy=                    0.166101
 Thermal correction to Enthalpy=                  0.167045
 Thermal correction to Gibbs Free Energy=         0.121388
 Sum of electronic and zero-point Energies=           -423.036014
 Sum of electronic and thermal Energies=              -423.026424
 Sum of electronic and thermal Enthalpies=            -423.025480
 Sum of electronic and thermal Free Energies=         -423.071137

                     E (Thermal)             CV                S
                      KCal/Mol        Cal/Mol-Kelvin    Cal/Mol-Kelvin
 Total                  104.230             34.646             96.092
 Electronic               0.000              0.000              0.000
 Translational            0.889              2.981             40.409
 Rotational               0.889              2.981             29.061
 Vibrational            102.452             28.684             26.623
 Vibration     1          0.595              1.980              5.149
 Vibration     2          0.601              1.958              3.733
 Vibration     3          0.611              1.925              2.970
 Vibration     4          0.618              1.903              2.676
 Vibration     5          0.643              1.824              2.034
 Vibration     6          0.655              1.786              1.833
 Vibration     7          0.703              1.642              1.329
 Vibration     8          0.723              1.587              1.192
 Vibration     9          0.736              1.549              1.111
 Vibration    10          0.780              1.433              0.902
 Vibration    11          0.836              1.296              0.712
 Vibration    12          0.920              1.108              0.515
 Vibration    13          0.935              1.078              0.488

 Optimization completed.
    -- Stationary point found.
 Normal termination of Gaussian 09 at Mon Jan 27 17:07:18 2020.
