 Gaussian 09, Revision D.01,
 Gaussian 09:  ES64L-G09RevD.01 24-Apr-2013

 -----------------------------
 # b3lyp 6-31G(2df,p) opt Freq
 -----------------------------

 -----
 titel
 -----
 Symbolic Z-matrix:
 Charge =  0 Multiplicity = 1

 SCF Done:  E(RB3LYP) =  -423.203555561     A.U. after   14 cycles
 Optimization completed.
    -- Stationary point found.
 Normal termination of Gaussian 09 at Mon Jan 27 13:02:35 2020.

 ----------------------------------------------------------------------
 #N Geom=AllCheck Guess=TCheck SCRF=Check GenChk RB3LYP/6-31G(2df,p) Fr
 eq
 ----------------------------------------------------------------------

 Structure from the checkpoint file:  "/scratch/puck/g09_7b8fe205-5f1c-47fc-a69c-dbd9b6ae2244/Gau-27697.chk"
 -----
 titel
 -----
 Charge =  0 Multiplicity = 1

                         Standard orientation:
 ---------------------------------------------------------------------
 Center     Atomic      Atomic             Coordinates (Angstroms)
 Number     Number       Type             X           Y           Z
 ---------------------------------------------------------------------
      1          8           0        1.820624    1.659201   -0.390393
      2          6           0        1.468284    0.549270   -0.127925
      3          6           0        2.141873   -0.791225    0.177786
      4          8           0        0.840714   -1.390523    0.324897
      5          6           0        0.115416   -0.152726    0.038759
      6          6           0       -0.793023   -0.225383   -1.204986
      7          6           0       -2.219041   -0.362545   -0.647562
      8          6           0       -2.190084    0.550492    0.588605
      9          6           0       -0.801836    0.288728    1.207523
     10          1           0        2.726592   -1.217905   -0.647475
     11          1           0        2.738700   -0.822623    1.098456
     12          1           0       -0.697514    0.718672   -1.755945
     13          1           0       -0.482476   -1.037118   -1.866435
     14          1           0       -2.988910   -0.085746   -1.372878
     15          1           0       -2.404984   -1.400396   -0.346534
     16          1           0       -2.272596    1.598063    0.276457
     17          1           0       -3.004096    0.355222    1.291796
     18          1           0       -0.402824    1.153626    1.744378
     19          1           0       -0.832120   -0.550889    1.908939
 ---------------------------------------------------------------------

 SCF Done:  E(RB3LYP) =  -423.203555561     A.U. after    1 cycles

 The electronic state is 1-A.
 Alpha  occ. eigenvalues --  -19.15078 -19.14353 -10.27667 -10.24315 -10.23942
 Alpha  occ. eigenvalues --  -10.18913 -10.18910 -10.18652 -10.18602  -1.06640
 Alpha  occ. eigenvalues --   -1.03924  -0.83824  -0.72042  -0.71685  -0.71072
 Alpha  occ. eigenvalues --   -0.61278  -0.58399  -0.51850  -0.50100  -0.47908
 Alpha  occ. eigenvalues --   -0.47040  -0.45591  -0.45264  -0.42649  -0.38709
 Alpha  occ. eigenvalues --   -0.37706  -0.36745  -0.36018  -0.34782  -0.34353
 Alpha  occ. eigenvalues --   -0.33274  -0.33021  -0.25944  -0.25149
 Alpha virt. eigenvalues --   -0.02771   0.06234   0.08419   0.10912   0.11804
 Alpha virt. eigenvalues --    0.13956   0.15302   0.16118   0.16515   0.17335
 Alpha virt. eigenvalues --    0.17653   0.18236   0.19541   0.20487   0.21818

 Mulliken charges:
               1
     1  O   -0.286905
     2  C    0.285115
     3  C   -0.197889
     4  O   -0.327764
     5  C    0.330718
     6  C   -0.263438
     7  C   -0.211073
     8  C   -0.201846
     9  C   -0.277563
    10  H    0.130093
    11  H    0.130436
    12  H    0.119505
    13  H    0.112412
    14  H    0.099766
    15  H    0.109601
    16  H    0.107275
    17  H    0.101724
    18  H    0.113835
    19  H    0.125999
 Sum of Mulliken charges =   0.00000

 Dipole moment (field-independent basis, Debye):
    X=             -0.9775    Y=             -0.7968    Z=              0.2016  Tot=              1.2771
 Quadrupole moment (field-independent basis, Debye-Ang):
   XX=            -50.9094   YY=            -59.5751   ZZ=            -51.3005
   XY=             -4.3441   XZ=              0.9638   YZ=              1.9130

  Exact polarizability:  89.667  -2.240  70.085   0.387  -0.146  67.593
 Approx polarizability: 113.786   1.792 114.763  -0.725  -4.455  98.335

                      1                      2                      3
                      A                      A                      A
 Frequencies --     30.8534               103.4285               148.7427
 Red. masses --      2.6123                 3.0311                 3.4445
 Frc consts  --      0.0015                 0.0191                 0.0449
 IR Inten    --      0.2084                 7.1756                 0.0215

                      4                      5                      6
                      A                      A                      A
 Frequencies --    245.2262               263.1854               383.7930
 Red. masses --      1.9583                 3.2841                 3.4115
 Frc consts  --      0.0694                 0.1340                 0.2961
 IR Inten    --      1.2650                 1.9669                 7.4311

                      7                      8                      9
                      A                      A                      A
 Frequencies --    406.9918               535.7413               544.0219
 Red. masses --      3.3785                 2.1426                 2.0927
 Frc consts  --      0.3297                 0.3623                 0.3649
 IR Inten    --      2.7478                 0.9462                 1.4663

                     10                     11                     12
                      A                      A                      A
 Frequencies --    575.3807               693.9646               713.1503
 Red. masses --      3.0529                 2.9145                 2.8492
 Frc consts  --      0.5955                 0.8270                 0.8538
 IR Inten    --      5.1331                 0.1792                 0.6116

                     13                     14                     15
                      A                      A                      A
 Frequencies --    831.5435               835.6415               868.8608
 Red. masses --      2.2050                 2.9080                 2.0552
 Frc consts  --      0.8983                 1.1964                 0.9141
 IR Inten    --      8.8987                12.9205                 5.4235

                     16                     17                     18
                      A                      A                      A
 Frequencies --    912.0193               913.2760               960.4476
 Red. masses --      2.2105                 2.6324                 1.6016
 Frc consts  --      1.0833                 1.2936                 0.8705
 IR Inten    --      1.6949                 0.5545                 4.4088

                     19                     20                     21
                      A                      A                      A
 Frequencies --    981.5808              1007.1906              1021.1875
 Red. masses --      1.9160                 6.7428                 2.6243
 Frc consts  --      1.0877                 4.0301                 1.6124
 IR Inten    --      2.8768               129.1819                12.9379

                     22                     23                     24
                      A                      A                      A
 Frequencies --   1046.7844              1055.4848              1123.9159
 Red. masses --      1.9673                 1.9635                 1.9377
 Frc consts  --      1.2701                 1.2888                 1.4421
 IR Inten    --     20.2147                22.9949                14.8362

                     25                     26                     27
                      A                      A                      A
 Frequencies --   1127.5247              1141.8252              1195.8178
 Red. masses --      2.7645                 1.3508                 1.7568
 Frc consts  --      2.0707                 1.0376                 1.4802
 IR Inten    --      5.8641                 0.6544                12.8093

                     28                     29                     30
                      A                      A                      A
 Frequencies --   1231.1498              1252.4202              1264.8796
 Red. masses --      1.8827                 1.5249                 1.3937
 Frc consts  --      1.6813                 1.4093                 1.3137
 IR Inten    --     12.4816                 1.0223                 7.1149

                     31                     32                     33
                      A                      A                      A
 Frequencies --   1294.2573              1312.6589              1334.9441
 Red. masses --      1.4329                 1.3413                 1.3741
 Frc consts  --      1.4142                 1.3617                 1.4428
 IR Inten    --      3.7750                 0.8348                 0.6800

                     34                     35                     36
                      A                      A                      A
 Frequencies --   1340.7802              1354.6756              1470.2865
 Red. masses --      1.2978                 1.5133                 1.0873
 Frc consts  --      1.3746                 1.6362                 1.3848
 IR Inten    --      0.3423                 3.1531                 2.5849

                     37                     38                     39
                      A                      A                      A
 Frequencies --   1474.1581              1484.5727              1492.9471
 Red. masses --      1.0830                 1.0970                 1.0849
 Frc consts  --      1.3866                 1.4245                 1.4247
 IR Inten    --      4.7736                 3.0516                 3.4930

                     40                     41                     42
                      A                      A                      A
 Frequencies --   1507.9660              1916.2101              3013.8854
 Red. masses --      1.1069                12.8937                 1.0548
 Frc consts  --      1.4830                27.8943                 5.6452
 IR Inten    --      0.7426               235.7011                36.4469

                     43                     44                     45
                      A                      A                      A
 Frequencies --   3034.5620              3039.0035              3043.5167
 Red. masses --      1.0686                 1.0662                 1.0604
 Frc consts  --      5.7978                 5.8019                 5.7871
 IR Inten    --     10.3847                21.1853                29.8409

                     46                     47                     48
                      A                      A                      A
 Frequencies --   3056.8571              3059.3768              3091.5396
 Red. masses --      1.0609                 1.1075                 1.0959
 Frc consts  --      5.8410                 6.1077                 6.1711
 IR Inten    --     11.7242                21.2073                24.3582

                     49                     50                     51
                      A                      A                      A
 Frequencies --   3096.7934              3108.1830              3112.5296
 Red. masses --      1.1013                 1.1042                 1.1000
 Frc consts  --      6.2225                 6.2849                 6.2790
 IR Inten    --     28.2430                17.5549                24.5272

 - Thermochemistry -
 -------------------
 Temperature   298.150 Kelvin.  Pressure   1.00000 Atm.
 Atom     1 has atomic number  8 and mass  15.99491

 Molecular mass:   126.06808 amu.
 Principal axes and moments of inertia in atomic units:
                           1         2         3
     Eigenvalues --   609.578021393.390671521.92504
           X            0.99954  -0.03016   0.00364
           Y            0.02976   0.99617   0.08226
           Z           -0.00611  -0.08211   0.99660
 This molecule is an asymmetric top.
 Rotational symmetry number  1.
 Warning -- assumption of classical behavior for rotation
           may cause significant error
 Rotational temperatures (Kelvin)      0.14209     0.06216     0.05691
 Rotational constants (GHZ):           2.96064     1.29522     1.18583
 Zero-point vibrational energy     419026.3 (Joules/Mol)
                                  100.14970 (Kcal/Mol)
 Warning -- explicit consideration of  10 degrees of freedom as
           vibrations may cause significant error
 Vibrational temperatures:     44.39   148.81   214.01   352.83   378.66
          (Kelvin)            552.19   585.57   770.81   782.73   827.84
                              998.46  1026.06  1196.40  1202.30  1250.10
                             1312.19  1314.00  1381.87  1412.27  1449.12
                             1469.26  1506.09  1518.61  1617.06  1622.25
                             1642.83  1720.51  1771.35  1801.95  1819.88
                             1862.15  1888.62  1920.68  1929.08  1949.07
                             2115.41  2120.98  2135.97  2148.02  2169.62
                             2757.00  4336.30  4366.05  4372.44  4378.94
                             4398.13  4401.76  4448.03  4455.59  4471.98
                             4478.23

 Zero-point correction=                           0.159599 (Hartree/Particle)
 Thermal correction to Energy=                    0.167776
 Thermal correction to Enthalpy=                  0.168720
 Thermal correction to Gibbs Free Energy=         0.125803
 Sum of electronic and zero-point Energies=           -423.043957
 Sum of electronic and thermal Energies=              -423.035780
 Sum of electronic and thermal Enthalpies=            -423.034836
 Sum of electronic and thermal Free Energies=         -423.077752

                     E (Thermal)             CV                S
                      KCal/Mol        Cal/Mol-Kelvin    Cal/Mol-Kelvin
 Total                  105.281             30.802             90.325
 Electronic               0.000              0.000              0.000
 Translational            0.889              2.981             40.409
 Rotational               0.889              2.981             28.649
 Vibrational            103.503             24.840             21.268
 Vibration     1          0.594              1.984              5.774
 Vibration     2          0.605              1.946              3.389
 Vibration     3          0.618              1.904              2.688
 Vibration     4          0.660              1.771              1.765
 Vibration     5          0.670              1.740              1.641
 Vibration     6          0.753              1.505              1.024
 Vibration     7          0.772              1.455              0.937
 Vibration     8          0.891              1.171              0.575
 Vibration     9          0.899              1.153              0.557
 Vibration    10          0.932              1.085              0.494

 Optimization completed.
    -- Stationary point found.
 Normal termination of Gaussian 09 at Mon Jan 27 13:49:12 2020.
