 Gaussian 09, Revision D.01,
 Gaussian 09:  ES64L-G09RevD.01 24-Apr-2013

 -----------------------------
 # b3lyp 6-31G(2df,p) opt Freq
 -----------------------------

 -----
 titel
 -----
 Symbolic Z-matrix:
 Charge =  0 Multiplicity = 1

 SCF Done:  E(RB3LYP) =  -423.205319832     A.U. after   14 cycles
 Optimization completed.
    -- Stationary point found.
 Normal termination of Gaussian 09 at Mon Jan 27 13:08:09 2020.

 ----------------------------------------------------------------------
 #N Geom=AllCheck Guess=TCheck SCRF=Check GenChk RB3LYP/6-31G(2df,p) Fr
 eq
 ----------------------------------------------------------------------

 Structure from the checkpoint file:  "/scratch/puck/g09_ba33001a-9474-4695-b66a-c9731c356ac3/Gau-55032.chk"
 -----
 titel
 -----
 Charge =  0 Multiplicity = 1

                         Standard orientation:
 ---------------------------------------------------------------------
 Center     Atomic      Atomic             Coordinates (Angstroms)
 Number     Number       Type             X           Y           Z
 ---------------------------------------------------------------------
      1          8           0       -2.700079   -0.304487   -0.421313
      2          6           0       -1.558994   -0.086769   -0.091587
      3          6           0       -0.862177    1.229773   -0.417134
      4          6           0        0.274745    1.578833    0.555852
      5          6           0        1.339508    0.481005    0.627952
      6          6           0        2.005445    0.098236   -0.710166
      7          8           0        1.213481   -1.104887   -0.807250
      8          6           0        0.756532   -0.956906    0.560358
      9          6           0       -0.746495   -1.117435    0.691353
     10          1           0       -0.468029    1.123253   -1.436653
     11          1           0       -1.622296    2.014326   -0.460111
     12          1           0        0.739087    2.527636    0.262481
     13          1           0       -0.141633    1.740232    1.558470
     14          1           0        2.031090    0.667078    1.452227
     15          1           0        1.842380    0.769312   -1.562183
     16          1           0        3.077875   -0.124907   -0.635704
     17          1           0        1.273581   -1.669650    1.217451
     18          1           0       -1.066093   -2.117102    0.382033
     19          1           0       -1.024562   -1.015615    1.750724
 ---------------------------------------------------------------------

 SCF Done:  E(RB3LYP) =  -423.205319832     A.U. after    1 cycles

 The electronic state is 1-A.
 Alpha  occ. eigenvalues --  -19.13867 -19.12317 -10.26691 -10.24272 -10.23569
 Alpha  occ. eigenvalues --  -10.20226 -10.19979 -10.19236 -10.19232  -1.04490
 Alpha  occ. eigenvalues --   -1.03470  -0.82190  -0.76592  -0.73428  -0.66978
 Alpha  occ. eigenvalues --   -0.63487  -0.56829  -0.51482  -0.50443  -0.48698
 Alpha  occ. eigenvalues --   -0.48074  -0.44228  -0.43794  -0.42051  -0.41083
 Alpha  occ. eigenvalues --   -0.40229  -0.39169  -0.37818  -0.34903  -0.33896
 Alpha  occ. eigenvalues --   -0.31501  -0.30419  -0.25919  -0.23527
 Alpha virt. eigenvalues --   -0.01101   0.07399   0.08167   0.10532   0.11255
 Alpha virt. eigenvalues --    0.13091   0.13841   0.15348   0.15633   0.16424
 Alpha virt. eigenvalues --    0.17470   0.17854   0.18999   0.20118   0.21561

 Mulliken charges:
               1
     1  O   -0.317312
     2  C    0.412196
     3  C   -0.305000
     4  C   -0.244094
     5  C   -0.057299
     6  C   -0.084515
     7  O   -0.294103
     8  C    0.125508
     9  C   -0.340932
    10  H    0.141685
    11  H    0.123585
    12  H    0.107654
    13  H    0.106678
    14  H    0.077604
    15  H    0.103820
    16  H    0.101567
    17  H    0.074878
    18  H    0.139789
    19  H    0.128290
 Sum of Mulliken charges =   0.00000

 Dipole moment (field-independent basis, Debye):
    X=              2.7744    Y=              1.7079    Z=              1.9664  Tot=              3.8054
 Quadrupole moment (field-independent basis, Debye-Ang):
   XX=            -61.0773   YY=            -52.2574   ZZ=            -52.0947
   XY=              0.3617   XZ=             -1.4022   YZ=             -3.0259

  Exact polarizability:  83.295   2.283  73.031   0.510  -3.980  65.845
 Approx polarizability: 117.174   5.157 103.831   2.330  -3.113 103.065

                      1                      2                      3
                      A                      A                      A
 Frequencies --     55.3514               135.4851               225.0002
 Red. masses --      4.3820                 3.7980                 2.2243
 Frc consts  --      0.0079                 0.0411                 0.0663
 IR Inten    --      4.0794                 4.0960                 0.6087

                      4                      5                      6
                      A                      A                      A
 Frequencies --    290.0970               349.5975               404.4391
 Red. masses --      2.2437                 1.9334                 4.4634
 Frc consts  --      0.1113                 0.1392                 0.4301
 IR Inten    --      3.2241                 1.9908                 3.2973

                      7                      8                      9
                      A                      A                      A
 Frequencies --    454.3899               480.4733               549.4218
 Red. masses --      3.7247                 2.7909                 2.7914
 Frc consts  --      0.4531                 0.3796                 0.4965
 IR Inten    --      3.2549                 6.2572                 1.4387

                     10                     11                     12
                      A                      A                      A
 Frequencies --    650.0066               713.4436               786.4228
 Red. masses --      2.9871                 4.2185                 2.5669
 Frc consts  --      0.7436                 1.2651                 0.9354
 IR Inten    --      8.1378                 1.9783                 2.3898

                     13                     14                     15
                      A                      A                      A
 Frequencies --    800.0058               838.1208               859.9855
 Red. masses --      2.3455                 2.1777                 2.2973
 Frc consts  --      0.8845                 0.9013                 1.0010
 IR Inten    --      1.2704                 2.3067                 4.6608

                     16                     17                     18
                      A                      A                      A
 Frequencies --    914.2895               962.1889               990.6232
 Red. masses --      1.9286                 2.0791                 2.5395
 Frc consts  --      0.9499                 1.1341                 1.4683
 IR Inten    --      8.2525                 6.0999                 7.2775

                     19                     20                     21
                      A                      A                      A
 Frequencies --   1003.2905              1023.2379              1061.9244
 Red. masses --      2.3841                 4.7094                 1.8298
 Frc consts  --      1.4139                 2.9052                 1.2157
 IR Inten    --     24.2729                60.4253                21.2817

                     22                     23                     24
                      A                      A                      A
 Frequencies --   1085.0788              1108.0642              1150.6874
 Red. masses --      1.8132                 1.3277                 2.4284
 Frc consts  --      1.2578                 0.9604                 1.8944
 IR Inten    --      2.9447                11.6999                12.4164

                     25                     26                     27
                      A                      A                      A
 Frequencies --   1163.0674              1188.6063              1210.1073
 Red. masses --      1.2107                 1.3753                 1.3083
 Frc consts  --      0.9650                 1.1448                 1.1288
 IR Inten    --      0.9737                14.3929                 2.9591

                     28                     29                     30
                      A                      A                      A
 Frequencies --   1237.3325              1281.8368              1293.5121
 Red. masses --      1.8348                 1.5570                 1.3344
 Frc consts  --      1.6550                 1.5073                 1.3155
 IR Inten    --     30.6548                 0.7356                 1.0233

                     31                     32                     33
                      A                      A                      A
 Frequencies --   1316.0739              1343.7503              1350.8690
 Red. masses --      1.8566                 1.4741                 1.6140
 Frc consts  --      1.8947                 1.5683                 1.7354
 IR Inten    --      2.8382                 0.8528                 9.8003

                     34                     35                     36
                      A                      A                      A
 Frequencies --   1361.3763              1386.4563              1397.7804
 Red. masses --      1.5163                 1.4438                 1.4886
 Frc consts  --      1.6558                 1.6352                 1.7136
 IR Inten    --      2.7061                 5.2004                15.3065

                     37                     38                     39
                      A                      A                      A
 Frequencies --   1431.8955              1452.3796              1492.9370
 Red. masses --      1.0842                 1.0834                 1.0860
 Frc consts  --      1.3098                 1.3465                 1.4262
 IR Inten    --      8.1968                 8.6759                 3.4879

                     40                     41                     42
                      A                      A                      A
 Frequencies --   1527.6571              1820.0135              2999.9492
 Red. masses --      1.1041                12.0777                 1.0792
 Frc consts  --      1.5182                23.5712                 5.7226
 IR Inten    --      0.5011               189.2099                58.0633

                     43                     44                     45
                      A                      A                      A
 Frequencies --   3010.1699              3020.8009              3023.9579
 Red. masses --      1.0599                 1.0685                 1.0656
 Frc consts  --      5.6587                 5.7450                 5.7412
 IR Inten    --     68.5776                15.0821                17.9933

                     46                     47                     48
                      A                      A                      A
 Frequencies --   3032.4032              3052.7122              3062.5383
 Red. masses --      1.0656                 1.1081                 1.1002
 Frc consts  --      5.7733                 6.0842                 6.0798
 IR Inten    --     11.5886                28.8967                29.8290

                     49                     50                     51
                      A                      A                      A
 Frequencies --   3086.3832              3093.5043              3099.2474
 Red. masses --      1.0878                 1.0928                 1.0952
 Frc consts  --      6.1052                 6.1617                 6.1982
 IR Inten    --     51.3019                 5.4841                11.9462

 - Thermochemistry -
 -------------------
 Temperature   298.150 Kelvin.  Pressure   1.00000 Atm.
 Atom     1 has atomic number  8 and mass  15.99491

 Molecular mass:   126.06808 amu.
 Principal axes and moments of inertia in atomic units:
                           1         2         3
     Eigenvalues --   628.846611215.846041461.08704
           X            0.99995   0.00885  -0.00483
           Y           -0.00910   0.99840  -0.05588
           Z            0.00433   0.05592   0.99843
 This molecule is an asymmetric top.
 Rotational symmetry number  1.
 Warning -- assumption of classical behavior for rotation
           may cause significant error
 Rotational temperatures (Kelvin)      0.13773     0.07124     0.05928
 Rotational constants (GHZ):           2.86992     1.48435     1.23520
 Zero-point vibrational energy     422454.9 (Joules/Mol)
                                  100.96914 (Kcal/Mol)
 Warning -- explicit consideration of   9 degrees of freedom as
           vibrations may cause significant error
 Vibrational temperatures:     79.64   194.93   323.72   417.38   502.99
          (Kelvin)            581.90   653.76   691.29   790.49   935.21
                             1026.48  1131.49  1151.03  1205.87  1237.33
                             1315.46  1384.37  1425.28  1443.51  1472.21
                             1527.87  1561.18  1594.26  1655.58  1673.39
                             1710.14  1741.07  1780.24  1844.27  1861.07
                             1893.53  1933.35  1943.60  1958.71  1994.80
                             2011.09  2060.18  2089.65  2148.00  2197.96
                             2618.59  4316.25  4330.96  4346.25  4350.80
                             4362.95  4392.17  4406.30  4440.61  4450.86
                             4459.12

 Zero-point correction=                           0.160905 (Hartree/Particle)
 Thermal correction to Energy=                    0.168544
 Thermal correction to Enthalpy=                  0.169488
 Thermal correction to Gibbs Free Energy=         0.128369
 Sum of electronic and zero-point Energies=           -423.044415
 Sum of electronic and thermal Energies=              -423.036776
 Sum of electronic and thermal Enthalpies=            -423.035832
 Sum of electronic and thermal Free Energies=         -423.076951

                     E (Thermal)             CV                S
                      KCal/Mol        Cal/Mol-Kelvin    Cal/Mol-Kelvin
 Total                  105.763             29.725             86.542
 Electronic               0.000              0.000              0.000
 Translational            0.889              2.981             40.409
 Rotational               0.889              2.981             28.504
 Vibrational            103.985             23.764             17.630
 Vibration     1          0.596              1.975              4.616
 Vibration     2          0.613              1.918              2.867
 Vibration     3          0.650              1.803              1.918
 Vibration     4          0.686              1.692              1.473
 Vibration     5          0.727              1.576              1.168
 Vibration     6          0.770              1.461              0.946
 Vibration     7          0.813              1.351              0.783
 Vibration     8          0.837              1.293              0.709
 Vibration     9          0.905              1.141              0.545

 Optimization completed.
    -- Stationary point found.
 Normal termination of Gaussian 09 at Mon Jan 27 13:56:40 2020.
