 Gaussian 09, Revision D.01,
 Gaussian 09:  ES64L-G09RevD.01 24-Apr-2013

 -----------------------------
 # b3lyp 6-31G(2df,p) opt Freq
 -----------------------------

 -----
 titel
 -----
 Symbolic Z-matrix:
 Charge =  0 Multiplicity = 1

 SCF Done:  E(RB3LYP) =  -423.136133532     A.U. after   13 cycles
 Optimization completed.
    -- Stationary point found.
 Normal termination of Gaussian 09 at Mon Jan 27 12:18:11 2020.

 ----------------------------------------------------------------------
 #N Geom=AllCheck Guess=TCheck SCRF=Check GenChk RB3LYP/6-31G(2df,p) Fr
 eq
 ----------------------------------------------------------------------

 Structure from the checkpoint file:  "/scratch/puck/g09_6a5cadef-50bf-4bd2-8741-20758701b101/Gau-153444.chk"
 -----
 titel
 -----
 Charge =  0 Multiplicity = 1

                         Standard orientation:
 ---------------------------------------------------------------------
 Center     Atomic      Atomic             Coordinates (Angstroms)
 Number     Number       Type             X           Y           Z
 ---------------------------------------------------------------------
      1          6           0        1.885102   -0.339270   -0.663271
      2          8           0        1.837426    0.647009    0.426446
      3          6           0        0.395560    0.501892    0.425476
      4          6           0       -0.749298    1.506462    0.414523
      5          6           0       -1.773498    0.609226   -0.423646
      6          6           0       -0.965169   -0.691207   -0.825620
      7          8           0       -0.845304   -1.514841    0.330014
      8          6           0       -0.071123   -0.731493    1.256209
      9          6           0        0.400194   -0.032172   -0.995872
     10          1           0        2.622775   -0.057555   -1.417740
     11          1           0        2.095236   -1.345884   -0.287562
     12          1           0       -1.146061    1.773871    1.397496
     13          1           0       -0.489016    2.421853   -0.122287
     14          1           0       -2.643895    0.317969    0.168142
     15          1           0       -2.129098    1.145559   -1.307146
     16          1           0       -1.420928   -1.276765   -1.624085
     17          1           0       -0.690392   -0.437679    2.112904
     18          1           0        0.772614   -1.323042    1.623244
     19          1           0        0.361175    0.783696   -1.721445
 ---------------------------------------------------------------------

 SCF Done:  E(RB3LYP) =  -423.136133532     A.U. after    1 cycles

 The electronic state is 1-A.
 Alpha  occ. eigenvalues --  -19.13918 -19.13729 -10.24187 -10.23932 -10.23564
 Alpha  occ. eigenvalues --  -10.22290 -10.19383 -10.19303 -10.18626  -1.05226
 Alpha  occ. eigenvalues --   -1.02389  -0.82786  -0.74392  -0.72429  -0.66159
 Alpha  occ. eigenvalues --   -0.64078  -0.57404  -0.54592  -0.51258  -0.49696
 Alpha  occ. eigenvalues --   -0.46644  -0.44232  -0.42349  -0.41260  -0.40434
 Alpha  occ. eigenvalues --   -0.39787  -0.37521  -0.36151  -0.34702  -0.32915
 Alpha  occ. eigenvalues --   -0.31514  -0.28363  -0.25115  -0.24025
 Alpha virt. eigenvalues --    0.05618   0.08549   0.10085   0.11182   0.11791
 Alpha virt. eigenvalues --    0.14331   0.14620   0.14996   0.15754   0.16655
 Alpha virt. eigenvalues --    0.17972   0.19153   0.19443   0.21052   0.21379

 Mulliken charges:
               1
     1  C   -0.174872
     2  O   -0.364739
     3  C    0.417694
     4  C   -0.318428
     5  C   -0.222710
     6  C    0.038314
     7  O   -0.265700
     8  C   -0.127581
     9  C   -0.028444
    10  H    0.114397
    11  H    0.118381
    12  H    0.103085
    13  H    0.109753
    14  H    0.117116
    15  H    0.108238
    16  H    0.078743
    17  H    0.094976
    18  H    0.111538
    19  H    0.090239
 Sum of Mulliken charges =   0.00000

 Dipole moment (field-independent basis, Debye):
    X=             -0.7984    Y=              0.6011    Z=             -1.1978  Tot=              1.5600
 Quadrupole moment (field-independent basis, Debye-Ang):
   XX=            -54.6990   YY=            -56.0938   ZZ=            -50.3791
   XY=             -4.6465   XZ=             -1.6213   YZ=             -0.2782

  Exact polarizability:  80.399  -4.446  68.242  -1.711  -0.616  71.055
 Approx polarizability: 113.573  -1.716 103.458  -0.743   0.206 108.571

                      1                      2                      3
                      A                      A                      A
 Frequencies --    196.7762               289.2406               325.5783
 Red. masses --      2.8107                 2.2557                 2.4507
 Frc consts  --      0.0641                 0.1112                 0.1531
 IR Inten    --      3.8642                 1.5521                 4.5883

                      4                      5                      6
                      A                      A                      A
 Frequencies --    377.0365               411.6408               463.7066
 Red. masses --      3.2631                 2.7429                 3.0124
 Frc consts  --      0.2733                 0.2738                 0.3816
 IR Inten    --      2.9123                 0.9838                 2.1696

                      7                      8                      9
                      A                      A                      A
 Frequencies --    588.1368               608.4628               677.4970
 Red. masses --      4.1401                 5.0320                 2.8748
 Frc consts  --      0.8437                 1.0976                 0.7775
 IR Inten    --      4.8566                 1.4833                 2.7710

                     10                     11                     12
                      A                      A                      A
 Frequencies --    751.7254               797.6026               820.9019
 Red. masses --      3.8192                 2.0776                 2.4758
 Frc consts  --      1.2716                 0.7787                 0.9830
 IR Inten    --      4.8120                 1.0637                 2.6015

                     13                     14                     15
                      A                      A                      A
 Frequencies --    864.1725               866.2778               896.3042
 Red. masses --      2.2818                 3.2028                 3.3954
 Frc consts  --      1.0040                 1.4161                 1.6071
 IR Inten    --     17.0181                15.4866                19.2199

                     16                     17                     18
                      A                      A                      A
 Frequencies --    933.3268               949.6409               974.8984
 Red. masses --      4.1375                 3.1633                 1.6339
 Frc consts  --      2.1235                 1.6808                 0.9149
 IR Inten    --      8.6894                32.1259                 6.4843

                     19                     20                     21
                      A                      A                      A
 Frequencies --   1003.2709              1018.6531              1044.6054
 Red. masses --      2.8749                 3.0050                 1.8502
 Frc consts  --      1.7049                 1.8372                 1.1895
 IR Inten    --     33.1915                36.1774                 4.3888

                     22                     23                     24
                      A                      A                      A
 Frequencies --   1064.4789              1111.1773              1116.3103
 Red. masses --      1.7249                 2.5483                 2.3087
 Frc consts  --      1.1515                 1.8538                 1.6950
 IR Inten    --     17.3647                 6.5660                29.5533

                     25                     26                     27
                      A                      A                      A
 Frequencies --   1146.0275              1163.5599              1178.9789
 Red. masses --      1.8453                 1.3196                 1.3427
 Frc consts  --      1.4279                 1.0526                 1.0996
 IR Inten    --     11.6058                 9.3340                 1.6970

                     28                     29                     30
                      A                      A                      A
 Frequencies --   1197.9997              1223.4602              1252.3754
 Red. masses --      1.2844                 1.3042                 1.5025
 Frc consts  --      1.0861                 1.1502                 1.3884
 IR Inten    --      3.5614                 8.9851                 3.0896

                     31                     32                     33
                      A                      A                      A
 Frequencies --   1271.1017              1275.9532              1310.7899
 Red. masses --      1.4108                 1.6272                 1.4179
 Frc consts  --      1.3430                 1.5609                 1.4354
 IR Inten    --      1.0370                 7.5067                 4.4715

                     34                     35                     36
                      A                      A                      A
 Frequencies --   1317.4918              1322.8706              1379.9171
 Red. masses --      1.8926                 1.4121                 1.5374
 Frc consts  --      1.9356                 1.4559                 1.7249
 IR Inten    --      8.2383                13.7492                 1.3701

                     37                     38                     39
                      A                      A                      A
 Frequencies --   1393.3958              1476.9702              1505.0401
 Red. masses --      1.4143                 1.0881                 1.1002
 Frc consts  --      1.6178                 1.3985                 1.4683
 IR Inten    --      0.3189                 1.2170                 2.6181

                     40                     41                     42
                      A                      A                      A
 Frequencies --   1512.5430              1537.6403              3020.6119
 Red. masses --      1.1123                 1.0873                 1.0636
 Frc consts  --      1.4993                 1.5146                 5.7177
 IR Inten    --      1.1110                 2.1231                54.6607

                     43                     44                     45
                      A                      A                      A
 Frequencies --   3047.9326              3058.5856              3069.3735
 Red. masses --      1.0586                 1.0583                 1.0618
 Frc consts  --      5.7944                 5.8333                 5.8936
 IR Inten    --     40.7056                29.0975                23.1165

                     46                     47                     48
                      A                      A                      A
 Frequencies --   3080.0022              3080.7036              3106.2011
 Red. masses --      1.0923                 1.0943                 1.1076
 Frc consts  --      6.1053                 6.1192                 6.2961
 IR Inten    --     46.1428                 9.4388                 4.5817

                     49                     50                     51
                      A                      A                      A
 Frequencies --   3114.4586              3122.3955              3127.0920
 Red. masses --      1.1088                 1.0912                 1.1052
 Frc consts  --      6.3369                 6.2678                 6.3675
 IR Inten    --     32.1206                34.4067                42.5617

 - Thermochemistry -
 -------------------
 Temperature   298.150 Kelvin.  Pressure   1.00000 Atm.
 Atom     1 has atomic number  6 and mass  12.00000

 Molecular mass:   126.06808 amu.
 Principal axes and moments of inertia in atomic units:
                           1         2         3
     Eigenvalues --   647.69939 964.185791084.05519
           X            0.99566  -0.09193  -0.01446
           Y            0.09147   0.99535  -0.03016
           Z            0.01717   0.02871   0.99944
 This molecule is an asymmetric top.
 Rotational symmetry number  1.
 Warning -- assumption of classical behavior for rotation
           may cause significant error
 Rotational temperatures (Kelvin)      0.13373     0.08983     0.07990
 Rotational constants (GHZ):           2.78639     1.87178     1.66481
 Zero-point vibrational energy     427335.4 (Joules/Mol)
                                  102.13560 (Kcal/Mol)
 Warning -- explicit consideration of   8 degrees of freedom as
           vibrations may cause significant error
 Vibrational temperatures:    283.12   416.15   468.43   542.47   592.26
          (Kelvin)            667.17   846.20   875.44   974.77  1081.56
                             1147.57  1181.09  1243.35  1246.38  1289.58
                             1342.85  1366.32  1402.66  1443.48  1465.61
                             1502.95  1531.55  1598.73  1606.12  1648.88
                             1674.10  1696.29  1723.65  1760.28  1801.89
                             1828.83  1835.81  1885.93  1895.57  1903.31
                             1985.39  2004.78  2125.03  2165.41  2176.21
                             2212.32  4345.98  4385.29  4400.62  4416.14
                             4431.43  4432.44  4469.12  4481.01  4492.43
                             4499.18

 Zero-point correction=                           0.162763 (Hartree/Particle)
 Thermal correction to Energy=                    0.169240
 Thermal correction to Enthalpy=                  0.170185
 Thermal correction to Gibbs Free Energy=         0.132324
 Sum of electronic and zero-point Energies=           -422.973370
 Sum of electronic and thermal Energies=              -422.966893
 Sum of electronic and thermal Enthalpies=            -422.965949
 Sum of electronic and thermal Free Energies=         -423.003809

                     E (Thermal)             CV                S
                      KCal/Mol        Cal/Mol-Kelvin    Cal/Mol-Kelvin
 Total                  106.200             27.698             79.684
 Electronic               0.000              0.000              0.000
 Translational            0.889              2.981             40.409
 Rotational               0.889              2.981             28.006
 Vibrational            104.422             21.736             11.269
 Vibration     1          0.636              1.844              2.163
 Vibration     2          0.686              1.694              1.478
 Vibration     3          0.710              1.624              1.282
 Vibration     4          0.748              1.519              1.051
 Vibration     5          0.776              1.445              0.921
 Vibration     6          0.821              1.331              0.755
 Vibration     7          0.945              1.057              0.471
 Vibration     8          0.967              1.014              0.435

 Optimization completed.
    -- Stationary point found.
 Normal termination of Gaussian 09 at Mon Jan 27 13:06:43 2020.
