 Gaussian 09, Revision D.01,
 Gaussian 09:  ES64L-G09RevD.01 24-Apr-2013

 -----------------------------
 # b3lyp 6-31G(2df,p) opt Freq
 -----------------------------

 -----
 titel
 -----
 Symbolic Z-matrix:
 Charge =  0 Multiplicity = 1

 SCF Done:  E(RB3LYP) =  -423.130537370     A.U. after   14 cycles
 Optimization completed.
    -- Stationary point found.
 Normal termination of Gaussian 09 at Mon Jan 27 22:04:38 2020.

 ----------------------------------------------------------------------
 #N Geom=AllCheck Guess=TCheck SCRF=Check GenChk RB3LYP/6-31G(2df,p) Fr
 eq
 ----------------------------------------------------------------------

 Structure from the checkpoint file:  "/scratch/puck/g09_25809643-dfb9-487c-b8d5-e6d790b1d6ac/Gau-62969.chk"
 -----
 titel
 -----
 Charge =  0 Multiplicity = 1

                         Standard orientation:
 ---------------------------------------------------------------------
 Center     Atomic      Atomic             Coordinates (Angstroms)
 Number     Number       Type             X           Y           Z
 ---------------------------------------------------------------------
      1          6           0       -2.542610   -0.133105   -0.744037
      2          6           0       -1.210812   -0.136664   -0.050785
      3          6           0       -0.974776   -0.782994    1.285847
      4          6           0       -0.165042   -1.260446    0.104938
      5          6           0        0.943339   -0.259933   -0.116898
      6          6           0        2.317731   -0.213995    0.375349
      7          8           0        2.021606   -0.453320   -1.014434
      8          6           0       -0.090495    0.870547   -0.333710
      9          8           0       -0.089422    2.003979    0.504747
     10          1           0       -2.429706   -0.041236   -1.830182
     11          1           0       -3.094979   -1.056358   -0.541074
     12          1           0       -3.160683    0.704342   -0.400121
     13          1           0       -0.494549   -0.234136    2.090676
     14          1           0       -1.762262   -1.456144    1.610831
     15          1           0       -0.187539   -2.276278   -0.269034
     16          1           0        2.787331    0.745218    0.591625
     17          1           0        2.728835   -1.064352    0.917659
     18          1           0       -0.080637    1.151056   -1.397015
     19          1           0        0.572706    2.622150    0.179904
 ---------------------------------------------------------------------

 SCF Done:  E(RB3LYP) =  -423.130537370     A.U. after    1 cycles

 The electronic state is 1-A.
 Alpha  occ. eigenvalues --  -19.14812 -19.14083 -10.23689 -10.23461 -10.22892
 Alpha  occ. eigenvalues --  -10.20024 -10.19345 -10.18811 -10.18059  -1.06865
 Alpha  occ. eigenvalues --   -1.02292  -0.89530  -0.72603  -0.71069  -0.66174
 Alpha  occ. eigenvalues --   -0.62398  -0.56669  -0.53157  -0.52060  -0.49741
 Alpha  occ. eigenvalues --   -0.48641  -0.44471  -0.43357  -0.41022  -0.39309
 Alpha  occ. eigenvalues --   -0.38877  -0.38352  -0.35947  -0.33710  -0.31451
 Alpha  occ. eigenvalues --   -0.29153  -0.28648  -0.25728  -0.24239
 Alpha virt. eigenvalues --    0.06483   0.09093   0.10155   0.11309   0.12606
 Alpha virt. eigenvalues --    0.13192   0.14008   0.14971   0.15377   0.16515
 Alpha virt. eigenvalues --    0.17024   0.17847   0.19428   0.20453   0.22920

 Mulliken charges:
               1
     1  C   -0.505020
     2  C    0.354349
     3  C   -0.329968
     4  C   -0.212264
     5  C    0.449725
     6  C   -0.271511
     7  O   -0.293565
     8  C   -0.050498
     9  O   -0.433649
    10  H    0.118466
    11  H    0.118523
    12  H    0.130307
    13  H    0.122406
    14  H    0.111488
    15  H    0.099112
    16  H    0.106680
    17  H    0.116987
    18  H    0.081531
    19  H    0.286901
 Sum of Mulliken charges =   0.00000

 Dipole moment (field-independent basis, Debye):
    X=             -0.3297    Y=              0.2293    Z=              0.4397  Tot=              0.5955
 Quadrupole moment (field-independent basis, Debye-Ang):
   XX=            -52.4876   YY=            -49.8553   ZZ=            -55.1906
   XY=              4.6629   XZ=              4.2807   YZ=             -3.1008

  Exact polarizability:  88.820   2.004  72.413   3.213  -2.553  67.090
 Approx polarizability: 116.375   0.215 106.570   0.234  -0.907 106.037

                      1                      2                      3
                      A                      A                      A
 Frequencies --     87.8711               189.6058               200.0855
 Red. masses --      3.5251                 1.1122                 3.1079
 Frc consts  --      0.0160                 0.0236                 0.0733
 IR Inten    --      2.5078                 1.4222                 0.5514

                      4                      5                      6
                      A                      A                      A
 Frequencies --    223.0102               225.5955               251.1386
 Red. masses --      2.6908                 2.3474                 1.3713
 Frc consts  --      0.0788                 0.0704                 0.0510
 IR Inten    --     17.1110                 2.7640                94.4678

                      7                      8                      9
                      A                      A                      A
 Frequencies --    300.8772               337.3808               451.8751
 Red. masses --      3.5130                 2.6049                 2.4270
 Frc consts  --      0.1874                 0.1747                 0.2920
 IR Inten    --      2.1917                 0.0280                 2.3656

                     10                     11                     12
                      A                      A                      A
 Frequencies --    476.9886               524.6079               601.2448
 Red. masses --      5.4270                 3.0304                 4.7368
 Frc consts  --      0.7275                 0.4914                 1.0089
 IR Inten    --      2.6151                 3.7944                 8.2264

                     13                     14                     15
                      A                      A                      A
 Frequencies --    705.5840               762.7195               816.3327
 Red. masses --      2.6539                 3.4069                 3.1113
 Frc consts  --      0.7784                 1.1677                 1.2216
 IR Inten    --      7.5639                 5.8456                12.7274

                     16                     17                     18
                      A                      A                      A
 Frequencies --    858.7181               888.5508               933.2651
 Red. masses --      2.0368                 3.0609                 1.4187
 Frc consts  --      0.8849                 1.4239                 0.7281
 IR Inten    --     15.8826                14.5877                 3.4147

                     19                     20                     21
                      A                      A                      A
 Frequencies --    939.5547               982.8731               997.6226
 Red. masses --      1.8254                 1.5120                 1.5509
 Frc consts  --      0.9494                 0.8606                 0.9094
 IR Inten    --     11.3491                 2.3356                16.9903

                     22                     23                     24
                      A                      A                      A
 Frequencies --   1021.2904              1078.5368              1094.0408
 Red. masses --      2.5967                 1.3193                 2.1943
 Frc consts  --      1.5958                 0.9042                 1.5474
 IR Inten    --     12.4187                 1.2934                22.7735

                     25                     26                     27
                      A                      A                      A
 Frequencies --   1110.0909              1114.8104              1125.9050
 Red. masses --      1.7273                 1.6774                 1.7435
 Frc consts  --      1.2541                 1.2282                 1.3022
 IR Inten    --      7.9652                27.3537                51.1997

                     28                     29                     30
                      A                      A                      A
 Frequencies --   1142.7610              1176.8685              1193.0366
 Red. masses --      1.6761                 1.7616                 1.4799
 Frc consts  --      1.2896                 1.4375                 1.2410
 IR Inten    --     21.6382                 0.8502                 8.2208

                     31                     32                     33
                      A                      A                      A
 Frequencies --   1239.0051              1259.2686              1305.7572
 Red. masses --      2.2498                 1.7543                 1.8649
 Frc consts  --      2.0349                 1.6390                 1.8734
 IR Inten    --      6.3730                56.3391                11.5515

                     34                     35                     36
                      A                      A                      A
 Frequencies --   1377.3385              1420.1483              1436.0424
 Red. masses --      1.8563                 1.3199                 1.7917
 Frc consts  --      2.0748                 1.5684                 2.1769
 IR Inten    --      1.0018                 2.4967                 8.6708

                     37                     38                     39
                      A                      A                      A
 Frequencies --   1446.5250              1485.9369              1498.5030
 Red. masses --      1.9825                 1.0477                 1.1710
 Frc consts  --      2.4441                 1.3629                 1.5493
 IR Inten    --     19.9124                 4.2640                 9.1075

                     40                     41                     42
                      A                      A                      A
 Frequencies --   1499.9502              1538.7736              3003.4701
 Red. masses --      1.2011                 1.7679                 1.0841
 Frc consts  --      1.5922                 2.4663                 5.7621
 IR Inten    --      1.6170                14.3081                33.1920

                     43                     44                     45
                      A                      A                      A
 Frequencies --   3024.4685              3078.7404              3084.9962
 Red. masses --      1.0358                 1.0503                 1.1009
 Frc consts  --      5.5827                 5.8658                 6.1733
 IR Inten    --     38.6773                25.8876                21.8755

                     46                     47                     48
                      A                      A                      A
 Frequencies --   3098.0018              3118.6926              3165.2679
 Red. masses --      1.1003                 1.0542                 1.1190
 Frc consts  --      6.2221                 6.0409                 6.6053
 IR Inten    --     19.4968                16.3981                21.0817

                     49                     50                     51
                      A                      A                      A
 Frequencies --   3195.4209              3205.0017              3819.9860
 Red. masses --      1.0987                 1.1112                 1.0662
 Frc consts  --      6.6095                 6.7251                 9.1668
 IR Inten    --      4.5089                11.6265                22.1637

 - Thermochemistry -
 -------------------
 Temperature   298.150 Kelvin.  Pressure   1.00000 Atm.
 Atom     1 has atomic number  6 and mass  12.00000

 Molecular mass:   126.06808 amu.
 Principal axes and moments of inertia in atomic units:
                           1         2         3
     Eigenvalues --   671.052131273.582371487.26899
           X            0.99897   0.03116   0.03303
           Y           -0.02929   0.99801  -0.05576
           Z           -0.03471   0.05474   0.99790
 This molecule is an asymmetric top.
 Rotational symmetry number  1.
 Warning -- assumption of classical behavior for rotation
           may cause significant error
 Rotational temperatures (Kelvin)      0.12907     0.06801     0.05824
 Rotational constants (GHZ):           2.68942     1.41706     1.21346
 Zero-point vibrational energy     413394.3 (Joules/Mol)
                                   98.80362 (Kcal/Mol)
 Warning -- explicit consideration of  12 degrees of freedom as
           vibrations may cause significant error
 Vibrational temperatures:    126.43   272.80   287.88   320.86   324.58
          (Kelvin)            361.33   432.89   485.42   650.15   686.28
                              754.79   865.06  1015.18  1097.38  1174.52
                             1235.50  1278.42  1342.76  1351.81  1414.13
                             1435.35  1469.41  1551.77  1574.08  1597.17
                             1603.96  1619.92  1644.18  1693.25  1716.51
                             1782.65  1811.80  1878.69  1981.68  2043.27
                             2066.14  2081.22  2137.93  2156.01  2158.09
                             2213.95  4321.32  4351.53  4429.62  4438.62
                             4457.33  4487.10  4554.11  4597.49  4611.28
                             5496.10

 Zero-point correction=                           0.157454 (Hartree/Particle)
 Thermal correction to Energy=                    0.166241
 Thermal correction to Enthalpy=                  0.167185
 Thermal correction to Gibbs Free Energy=         0.124379
 Sum of electronic and zero-point Energies=           -422.973084
 Sum of electronic and thermal Energies=              -422.964296
 Sum of electronic and thermal Enthalpies=            -422.963352
 Sum of electronic and thermal Free Energies=         -423.006159

                     E (Thermal)             CV                S
                      KCal/Mol        Cal/Mol-Kelvin    Cal/Mol-Kelvin
 Total                  104.318             33.649             90.094
 Electronic               0.000              0.000              0.000
 Translational            0.889              2.981             40.409
 Rotational               0.889              2.981             28.632
 Vibrational            102.540             27.687             21.054
 Vibration     1          0.601              1.958              3.707
 Vibration     2          0.633              1.854              2.232
 Vibration     3          0.638              1.840              2.132
 Vibration     4          0.649              1.806              1.935
 Vibration     5          0.650              1.802              1.914
 Vibration     6          0.663              1.761              1.723
 Vibration     7          0.693              1.672              1.412
 Vibration     8          0.718              1.601              1.225
 Vibration     9          0.811              1.357              0.790
 Vibration    10          0.834              1.301              0.718
 Vibration    11          0.880              1.196              0.599
 Vibration    12          0.959              1.029              0.448

 Normal termination of Gaussian 09 at Mon Jan 27 22:49:37 2020.
