 Gaussian 09, Revision D.01,
 Gaussian 09:  ES64L-G09RevD.01 24-Apr-2013

 -----------------------------
 # b3lyp 6-31G(2df,p) opt Freq
 -----------------------------

 -----
 titel
 -----
 Symbolic Z-matrix:
 Charge =  0 Multiplicity = 1

 SCF Done:  E(RB3LYP) =  -423.192384803     A.U. after   13 cycles
 Optimization completed.
    -- Stationary point found.
 Normal termination of Gaussian 09 at Mon Jan 27 18:14:54 2020.

 ----------------------------------------------------------------------
 #N Geom=AllCheck Guess=TCheck SCRF=Check GenChk RB3LYP/6-31G(2df,p) Fr
 eq
 ----------------------------------------------------------------------

 Structure from the checkpoint file:  "/scratch/puck/g09_d53ae7a7-c4f3-4a2f-8fc8-30395715774e/Gau-62974.chk"
 -----
 titel
 -----
 Charge =  0 Multiplicity = 1

                         Standard orientation:
 ---------------------------------------------------------------------
 Center     Atomic      Atomic             Coordinates (Angstroms)
 Number     Number       Type             X           Y           Z
 ---------------------------------------------------------------------
      1          6           0       -2.497549    0.123915   -0.460915
      2          6           0       -1.040621    0.042429   -0.124646
      3          8           0       -0.317373   -0.855154   -0.952164
      4          6           0        0.918502   -1.047465   -0.276736
      5          6           0        1.858447    0.112642   -0.594719
      6          6           0        1.177317    1.445327   -0.172953
      7          6           0       -0.200423    1.187873    0.421942
      8          6           0       -0.410290   -0.082169    1.231555
      9          8           0        0.616209   -1.043579    1.115594
     10          1           0       -2.951013   -0.872201   -0.445284
     11          1           0       -3.020104    0.755543    0.262939
     12          1           0       -2.647967    0.553674   -1.456944
     13          1           0        1.322130   -2.025881   -0.547623
     14          1           0        2.799501   -0.041806   -0.058833
     15          1           0        2.080683    0.099252   -1.665807
     16          1           0        1.794861    1.973318    0.560879
     17          1           0        1.081236    2.114200   -1.034253
     18          1           0       -0.752400    2.062057    0.756037
     19          1           0       -0.929909   -0.123609    2.180274
 ---------------------------------------------------------------------

 SCF Done:  E(RB3LYP) =  -423.192384803     A.U. after    1 cycles

 The electronic state is 1-A.
 Alpha  occ. eigenvalues --  -19.14590 -19.14520 -10.27399 -10.23579 -10.22916
 Alpha  occ. eigenvalues --  -10.18934 -10.18854 -10.18288 -10.18090  -1.09394
 Alpha  occ. eigenvalues --   -0.99311  -0.84747  -0.78658  -0.71932  -0.66729
 Alpha  occ. eigenvalues --   -0.62915  -0.58723  -0.52943  -0.52284  -0.47418
 Alpha  occ. eigenvalues --   -0.46200  -0.43241  -0.43078  -0.41895  -0.40778
 Alpha  occ. eigenvalues --   -0.39078  -0.38245  -0.36680  -0.36023  -0.33554
 Alpha  occ. eigenvalues --   -0.31851  -0.30994  -0.24502  -0.21959
 Alpha virt. eigenvalues --    0.08617   0.10952   0.11415   0.11805   0.13429
 Alpha virt. eigenvalues --    0.14508   0.15108   0.15731   0.16210   0.16755
 Alpha virt. eigenvalues --    0.18236   0.19767   0.19987   0.21135   0.22031

 Mulliken charges:
               1
     1  C   -0.483718
     2  C    0.400771
     3  O   -0.299371
     4  C    0.164931
     5  C   -0.219899
     6  C   -0.227713
     7  C   -0.163106
     8  C    0.005781
     9  O   -0.268369
    10  H    0.131333
    11  H    0.120183
    12  H    0.128196
    13  H    0.090800
    14  H    0.107196
    15  H    0.106413
    16  H    0.108799
    17  H    0.108097
    18  H    0.084558
    19  H    0.105117
 Sum of Mulliken charges =   0.00000

 Dipole moment (field-independent basis, Debye):
    X=             -0.2031    Y=              1.4521    Z=              0.0110  Tot=              1.4662
 Quadrupole moment (field-independent basis, Debye-Ang):
   XX=            -49.5357   YY=            -53.1281   ZZ=            -54.5480
   XY=             -1.0878   XZ=             -2.8961   YZ=              1.1120

  Exact polarizability:  81.801  -1.326  71.280  -1.988   1.325  66.567
 Approx polarizability: 106.513  -3.093 106.038   0.558   1.587 105.627

                      1                      2                      3
                      A                      A                      A
 Frequencies --    124.7567               195.7064               209.9226
 Red. masses --      1.8597                 1.1749                 2.0536
 Frc consts  --      0.0171                 0.0265                 0.0533
 IR Inten    --      0.1780                 0.1949                 1.4410

                      4                      5                      6
                      A                      A                      A
 Frequencies --    292.3818               381.3242               401.3951
 Red. masses --      2.5637                 2.7898                 6.4237
 Frc consts  --      0.1291                 0.2390                 0.6098
 IR Inten    --      0.3638                 0.2110                 8.7514

                      7                      8                      9
                      A                      A                      A
 Frequencies --    511.8639               559.5713               643.9255
 Red. masses --      3.3994                 4.4078                 4.3970
 Frc consts  --      0.5248                 0.8132                 1.0742
 IR Inten    --      1.6712                 1.1445                 1.9546

                     10                     11                     12
                      A                      A                      A
 Frequencies --    709.2849               725.3439               779.5759
 Red. masses --      6.8951                 4.1499                 3.1605
 Frc consts  --      2.0438                 1.2864                 1.1317
 IR Inten    --      2.5915                16.3785                10.5253

                     13                     14                     15
                      A                      A                      A
 Frequencies --    818.7710               849.2584               878.4141
 Red. masses --      1.3936                 3.9995                 2.2895
 Frc consts  --      0.5504                 1.6996                 1.0409
 IR Inten    --      0.2021                 4.9352                27.6091

                     16                     17                     18
                      A                      A                      A
 Frequencies --    893.1732               906.4529               958.2636
 Red. masses --      2.3834                 2.2854                 3.2400
 Frc consts  --      1.1203                 1.1064                 1.7529
 IR Inten    --      5.9590                33.1706                25.3807

                     19                     20                     21
                      A                      A                      A
 Frequencies --    981.5343              1012.0634              1028.8366
 Red. masses --      2.3657                 1.7228                 1.7832
 Frc consts  --      1.3428                 1.0397                 1.1121
 IR Inten    --      5.4575                 1.2381                 3.0765

                     22                     23                     24
                      A                      A                      A
 Frequencies --   1082.1259              1094.5014              1107.2782
 Red. masses --      1.8139                 1.8310                 2.1404
 Frc consts  --      1.2514                 1.2923                 1.5462
 IR Inten    --      7.9780                50.6232                 1.9933

                     25                     26                     27
                      A                      A                      A
 Frequencies --   1130.9803              1142.2759              1212.3179
 Red. masses --      2.1728                 3.3439                 1.1917
 Frc consts  --      1.6375                 2.5707                 1.0319
 IR Inten    --     19.9088                87.1944                 1.5520

                     28                     29                     30
                      A                      A                      A
 Frequencies --   1228.3385              1236.1525              1277.8522
 Red. masses --      2.3741                 1.8106                 1.1176
 Frc consts  --      2.1105                 1.6301                 1.0752
 IR Inten    --     31.4270                 4.9191                 0.0663

                     31                     32                     33
                      A                      A                      A
 Frequencies --   1299.9450              1313.4479              1364.0013
 Red. masses --      1.5914                 1.6636                 1.4735
 Frc consts  --      1.5844                 1.6910                 1.6152
 IR Inten    --     11.6727                 9.4793                 7.3426

                     34                     35                     36
                      A                      A                      A
 Frequencies --   1367.4529              1384.2527              1413.7591
 Red. masses --      1.5711                 1.3704                 1.2749
 Frc consts  --      1.7309                 1.5472                 1.5013
 IR Inten    --     17.0542                10.1547                 7.1741

                     37                     38                     39
                      A                      A                      A
 Frequencies --   1460.3188              1475.7611              1477.3426
 Red. masses --      2.9827                 1.1052                 1.0586
 Frc consts  --      3.7477                 1.4181                 1.3612
 IR Inten    --      6.5871                 0.7469                 3.7230

                     40                     41                     42
                      A                      A                      A
 Frequencies --   1500.3584              1506.7499              3035.7027
 Red. masses --      1.0829                 1.1309                 1.0355
 Frc consts  --      1.4363                 1.5127                 5.6221
 IR Inten    --      1.2615                 3.3678                30.0012

                     43                     44                     45
                      A                      A                      A
 Frequencies --   3039.5107              3055.2519              3070.4055
 Red. masses --      1.0592                 1.0603                 1.1052
 Frc consts  --      5.7655                 5.8311                 6.1389
 IR Inten    --     31.4248                30.5703                 6.6415

                     46                     47                     48
                      A                      A                      A
 Frequencies --   3093.4653              3100.8874              3101.8940
 Red. masses --      1.0902                 1.1014                 1.1049
 Frc consts  --      6.1465                 6.2398                 6.2637
 IR Inten    --     56.0196                12.8943                35.4895

                     49                     50                     51
                      A                      A                      A
 Frequencies --   3116.8638              3146.0675              3196.9769
 Red. masses --      1.1009                 1.0886                 1.0935
 Frc consts  --      6.3013                 6.3484                 6.5851
 IR Inten    --     14.4914                15.4394                14.5234

 - Thermochemistry -
 -------------------
 Temperature   298.150 Kelvin.  Pressure   1.00000 Atm.
 Atom     1 has atomic number  6 and mass  12.00000

 Molecular mass:   126.06808 amu.
 Principal axes and moments of inertia in atomic units:
                           1         2         3
     Eigenvalues --   636.715541022.707581122.46852
           X            0.99979   0.00611  -0.01931
           Y           -0.00551   0.99950   0.03099
           Z            0.01949  -0.03088   0.99933
 This molecule is an asymmetric top.
 Rotational symmetry number  1.
 Warning -- assumption of classical behavior for rotation
           may cause significant error
 Rotational temperatures (Kelvin)      0.13603     0.08469     0.07716
 Rotational constants (GHZ):           2.83445     1.76467     1.60783
 Zero-point vibrational energy     424040.6 (Joules/Mol)
                                  101.34814 (Kcal/Mol)
 Warning -- explicit consideration of   8 degrees of freedom as
           vibrations may cause significant error
 Vibrational temperatures:    179.50   281.58   302.03   420.67   548.64
          (Kelvin)            577.52   736.46   805.10   926.46  1020.50
                             1043.61  1121.63  1178.03  1221.89  1263.84
                             1285.08  1304.18  1378.73  1412.21  1456.13
                             1480.26  1556.94  1574.74  1593.12  1627.23
                             1643.48  1744.25  1767.30  1778.55  1838.54
                             1870.33  1889.76  1962.49  1967.46  1991.63
                             2034.08  2101.07  2123.29  2125.56  2158.68
                             2167.87  4367.69  4373.17  4395.82  4417.62
                             4450.80  4461.48  4462.93  4484.47  4526.48
                             4599.73

 Zero-point correction=                           0.161509 (Hartree/Particle)
 Thermal correction to Energy=                    0.168754
 Thermal correction to Enthalpy=                  0.169699
 Thermal correction to Gibbs Free Energy=         0.130106
 Sum of electronic and zero-point Energies=           -423.030876
 Sum of electronic and thermal Energies=              -423.023630
 Sum of electronic and thermal Enthalpies=            -423.022686
 Sum of electronic and thermal Free Energies=         -423.062279

                     E (Thermal)             CV                S
                      KCal/Mol        Cal/Mol-Kelvin    Cal/Mol-Kelvin
 Total                  105.895             29.263             83.329
 Electronic               0.000              0.000              0.000
 Translational            0.889              2.981             40.409
 Rotational               0.889              2.981             28.082
 Vibrational            104.118             23.302             14.839
 Vibration     1          0.610              1.928              3.025
 Vibration     2          0.636              1.846              2.173
 Vibration     3          0.642              1.826              2.044
 Vibration     4          0.688              1.688              1.460
 Vibration     5          0.751              1.510              1.034
 Vibration     6          0.767              1.467              0.958
 Vibration     7          0.867              1.224              0.629
 Vibration     8          0.915              1.119              0.525

 Normal termination of Gaussian 09 at Mon Jan 27 19:01:36 2020.
