 Gaussian 09, Revision D.01,
 Gaussian 09:  ES64L-G09RevD.01 24-Apr-2013

 -----------------------------
 # b3lyp 6-31G(2df,p) opt Freq
 -----------------------------

 -----
 titel
 -----
 Symbolic Z-matrix:
 Charge =  0 Multiplicity = 1

 SCF Done:  E(RB3LYP) =  -423.164124702     A.U. after   14 cycles
 Optimization completed.
    -- Stationary point found.
 Normal termination of Gaussian 09 at Tue Jan 28 12:38:06 2020.

 ----------------------------------------------------------------------
 #N Geom=AllCheck Guess=TCheck SCRF=Check GenChk RB3LYP/6-31G(2df,p) Fr
 eq
 ----------------------------------------------------------------------

 Structure from the checkpoint file:  "/scratch/puck/g09_7b7e2d28-126e-4410-b44b-42ce4b07002d/Gau-1454.chk"
 -----
 titel
 -----
 Charge =  0 Multiplicity = 1

                         Standard orientation:
 ---------------------------------------------------------------------
 Center     Atomic      Atomic             Coordinates (Angstroms)
 Number     Number       Type             X           Y           Z
 ---------------------------------------------------------------------
      1          6           0        2.895932   -0.609675    0.415435
      2          8           0        1.772137   -0.805248   -0.425748
      3          6           0        0.564430   -0.580069    0.226088
      4          6           0       -0.599920   -0.491657   -0.751405
      5          6           0       -1.883045   -0.412592    0.005188
      6          8           0       -2.959266   -0.923624   -0.129715
      7          6           0       -1.379741    0.758947    0.890640
      8          6           0       -0.082837    0.753702    0.059814
      9          6           0        0.613594    1.973395   -0.464997
     10          1           0        2.863173   -1.279038    1.287398
     11          1           0        3.781431   -0.844320   -0.178715
     12          1           0        2.965033    0.426857    0.772714
     13          1           0        0.457334   -1.137825    1.161268
     14          1           0       -0.439185   -0.789471   -1.780410
     15          1           0       -1.999218    1.646567    0.728775
     16          1           0       -1.287114    0.578474    1.966823
     17          1           0        1.438627    1.691134   -1.123623
     18          1           0       -0.074544    2.610471   -1.030926
     19          1           0        1.021014    2.575822    0.355819
 ---------------------------------------------------------------------

 SCF Done:  E(RB3LYP) =  -423.164124702     A.U. after    1 cycles

 The electronic state is 1-A.
 Alpha  occ. eigenvalues --  -19.16162 -19.12537 -10.26698 -10.25535 -10.23786
 Alpha  occ. eigenvalues --  -10.21780 -10.19967 -10.19510 -10.19146  -1.05768
 Alpha  occ. eigenvalues --   -1.03616  -0.90488  -0.74012  -0.73537  -0.68403
 Alpha  occ. eigenvalues --   -0.63004  -0.56719  -0.53927  -0.49889  -0.49146
 Alpha  occ. eigenvalues --   -0.46821  -0.44690  -0.44104  -0.43130  -0.41242
 Alpha  occ. eigenvalues --   -0.40859  -0.40344  -0.37592  -0.36266  -0.34507
 Alpha  occ. eigenvalues --   -0.31862  -0.27610  -0.25680  -0.23966
 Alpha virt. eigenvalues --   -0.00732   0.07307   0.09409   0.11031   0.11901
 Alpha virt. eigenvalues --    0.12368   0.13740   0.14531   0.15000   0.15335
 Alpha virt. eigenvalues --    0.17127   0.17699   0.17947   0.19282   0.21055

 Mulliken charges:
               1
     1  C   -0.243688
     2  O   -0.245712
     3  C    0.069303
     4  C   -0.261109
     5  C    0.427337
     6  O   -0.321872
     7  C   -0.424698
     8  C    0.292720
     9  C   -0.499083
    10  H    0.115608
    11  H    0.135262
    12  H    0.114230
    13  H    0.089191
    14  H    0.115418
    15  H    0.133411
    16  H    0.115678
    17  H    0.138772
    18  H    0.125865
    19  H    0.123368
 Sum of Mulliken charges =   0.00000

 Dipole moment (field-independent basis, Debye):
    X=              3.3802    Y=              1.8892    Z=              1.1571  Tot=              4.0415
 Quadrupole moment (field-independent basis, Debye-Ang):
   XX=            -60.3655   YY=            -53.5194   ZZ=            -51.6000
   XY=             -4.7071   XZ=              1.1167   YZ=             -1.2868

  Exact polarizability:  95.068   2.113  73.356  -0.087   1.933  65.668
 Approx polarizability: 130.905   7.917 108.580   1.333   6.419 102.233

                      1                      2                      3
                      A                      A                      A
 Frequencies --     82.5258               117.0757               165.6914
 Red. masses --      3.5494                 3.2275                 1.4492
 Frc consts  --      0.0142                 0.0261                 0.0234
 IR Inten    --      0.6478                 5.2539                 0.2927

                      4                      5                      6
                      A                      A                      A
 Frequencies --    175.8719               217.7521               243.7353
 Red. masses --      1.9932                 1.0521                 2.9430
 Frc consts  --      0.0363                 0.0294                 0.1030
 IR Inten    --      0.3327                 0.0585                 5.8043

                      7                      8                      9
                      A                      A                      A
 Frequencies --    281.7775               356.5676               375.9338
 Red. masses --      2.9214                 2.2120                 3.9688
 Frc consts  --      0.1367                 0.1657                 0.3305
 IR Inten    --      0.1235                 2.8656                 0.9081

                     10                     11                     12
                      A                      A                      A
 Frequencies --    484.6108               529.7910               543.3567
 Red. masses --      4.5592                 3.3454                 2.7436
 Frc consts  --      0.6309                 0.5532                 0.4772
 IR Inten    --      9.8120                 0.4816                 4.1223

                     13                     14                     15
                      A                      A                      A
 Frequencies --    628.2972               678.6588               776.4011
 Red. masses --      3.6953                 3.0928                 3.3745
 Frc consts  --      0.8595                 0.8393                 1.1985
 IR Inten    --      5.2362                 0.6710                38.5348

                     16                     17                     18
                      A                      A                      A
 Frequencies --    839.8793               918.3813               947.6109
 Red. masses --      2.9924                 1.5956                 2.5760
 Frc consts  --      1.2437                 0.7929                 1.3629
 IR Inten    --     11.1796                14.5414                 0.0645

                     19                     20                     21
                      A                      A                      A
 Frequencies --    963.5165              1018.4330              1048.1460
 Red. masses --      2.0578                 2.1781                 2.0716
 Frc consts  --      1.1256                 1.3310                 1.3409
 IR Inten    --      2.0520                13.1245                 9.5623

                     22                     23                     24
                      A                      A                      A
 Frequencies --   1067.4345              1088.5460              1104.8448
 Red. masses --      1.7333                 1.6329                 1.5033
 Frc consts  --      1.1636                 1.1400                 1.0812
 IR Inten    --     39.4729                 6.4615                 6.7476

                     25                     26                     27
                      A                      A                      A
 Frequencies --   1137.9381              1170.1785              1181.7077
 Red. masses --      2.1892                 2.8349                 1.2895
 Frc consts  --      1.6703                 2.2872                 1.0609
 IR Inten    --     21.2093               108.7506                 4.1534

                     28                     29                     30
                      A                      A                      A
 Frequencies --   1195.4614              1211.8190              1244.5101
 Red. masses --      1.6169                 1.6732                 2.4373
 Frc consts  --      1.3614                 1.4477                 2.2241
 IR Inten    --      1.7780                12.6573                32.0288

                     31                     32                     33
                      A                      A                      A
 Frequencies --   1256.4760              1362.1332              1414.7902
 Red. masses --      2.4648                 1.4843                 1.3055
 Frc consts  --      2.2927                 1.6226                 1.5396
 IR Inten    --     50.8522                 7.9801                21.4110

                     34                     35                     36
                      A                      A                      A
 Frequencies --   1421.8426              1460.0885              1483.5105
 Red. masses --      2.3197                 1.2075                 1.1295
 Frc consts  --      2.7631                 1.5166                 1.4645
 IR Inten    --     33.0132                 8.6276                 4.6170

                     37                     38                     39
                      A                      A                      A
 Frequencies --   1488.5338              1493.3166              1495.5983
 Red. masses --      1.1123                 1.0516                 1.0903
 Frc consts  --      1.4521                 1.3816                 1.4369
 IR Inten    --      4.0547                 5.4543                11.0976

                     40                     41                     42
                      A                      A                      A
 Frequencies --   1508.1027              1879.4815              2991.2990
 Red. masses --      1.0611                12.3828                 1.0359
 Frc consts  --      1.4220                25.7717                 5.4613
 IR Inten    --      5.9461               396.1245                48.6072

                     43                     44                     45
                      A                      A                      A
 Frequencies --   3027.2711              3045.4338              3045.8648
 Red. masses --      1.0383                 1.0595                 1.1021
 Frc consts  --      5.6063                 5.7894                 6.0240
 IR Inten    --     26.9401                18.3494                60.8124

                     46                     47                     48
                      A                      A                      A
 Frequencies --   3050.8328              3084.2061              3102.0626
 Red. masses --      1.0877                 1.0993                 1.1050
 Frc consts  --      5.9646                 6.1610                 6.2647
 IR Inten    --     23.5250                19.3621                10.6214

                     49                     50                     51
                      A                      A                      A
 Frequencies --   3121.0770              3127.1461              3199.7320
 Red. masses --      1.0991                 1.0982                 1.0935
 Frc consts  --      6.3081                 6.3276                 6.5960
 IR Inten    --     12.1186                21.8161                 1.8263

 - Thermochemistry -
 -------------------
 Temperature   298.150 Kelvin.  Pressure   1.00000 Atm.
 Atom     1 has atomic number  6 and mass  12.00000

 Molecular mass:   126.06808 amu.
 Principal axes and moments of inertia in atomic units:
                           1         2         3
     Eigenvalues --   571.762021599.046161896.26442
           X            0.99987  -0.01553   0.00461
           Y            0.01565   0.99949  -0.02794
           Z           -0.00417   0.02800   0.99960
 This molecule is an asymmetric top.
 Rotational symmetry number  1.
 Warning -- assumption of classical behavior for rotation
           may cause significant error
 Rotational temperatures (Kelvin)      0.15149     0.05417     0.04568
 Rotational constants (GHZ):           3.15646     1.12864     0.95173
 Zero-point vibrational energy     411845.9 (Joules/Mol)
                                   98.43353 (Kcal/Mol)
 Warning -- explicit consideration of  12 degrees of freedom as
           vibrations may cause significant error
 Vibrational temperatures:    118.74   168.45   238.39   253.04   313.30
          (Kelvin)            350.68   405.41   513.02   540.88   697.25
                              762.25   781.77   903.98   976.44  1117.07
                             1208.40  1321.34  1363.40  1386.28  1465.30
                             1508.05  1535.80  1566.17  1589.62  1637.24
                             1683.62  1700.21  1720.00  1743.54  1790.57
                             1807.79  1959.80  2035.57  2045.71  2100.74
                             2134.44  2141.67  2148.55  2151.83  2169.82
                             2704.15  4303.81  4355.56  4381.69  4382.31
                             4389.46  4437.48  4463.17  4490.53  4499.26
                             4603.69

 Zero-point correction=                           0.156864 (Hartree/Particle)
 Thermal correction to Energy=                    0.166051
 Thermal correction to Enthalpy=                  0.166995
 Thermal correction to Gibbs Free Energy=         0.122915
 Sum of electronic and zero-point Energies=           -423.007261
 Sum of electronic and thermal Energies=              -422.998074
 Sum of electronic and thermal Enthalpies=            -422.997130
 Sum of electronic and thermal Free Energies=         -423.041210

                     E (Thermal)             CV                S
                      KCal/Mol        Cal/Mol-Kelvin    Cal/Mol-Kelvin
 Total                  104.198             33.881             92.775
 Electronic               0.000              0.000              0.000
 Translational            0.889              2.981             40.409
 Rotational               0.889              2.981             28.940
 Vibrational            102.421             27.919             23.426
 Vibration     1          0.600              1.961              3.830
 Vibration     2          0.608              1.935              3.148
 Vibration     3          0.624              1.885              2.484
 Vibration     4          0.628              1.872              2.372
 Vibration     5          0.646              1.814              1.978
 Vibration     6          0.659              1.773              1.775
 Vibration     7          0.681              1.707              1.523
 Vibration     8          0.732              1.562              1.137
 Vibration     9          0.747              1.521              1.055
 Vibration    10          0.841              1.284              0.698
 Vibration    11          0.885              1.184              0.588
 Vibration    12          0.898              1.154              0.558

 Optimization completed.
    -- Stationary point found.
 Normal termination of Gaussian 09 at Tue Jan 28 13:26:25 2020.
