 Gaussian 09, Revision D.01,
 Gaussian 09:  ES64L-G09RevD.01 24-Apr-2013

 -----------------------------
 # b3lyp 6-31G(2df,p) opt Freq
 -----------------------------

 -----
 titel
 -----
 Symbolic Z-matrix:
 Charge =  0 Multiplicity = 1

 SCF Done:  E(RB3LYP) =  -423.167461222     A.U. after   14 cycles
 Optimization completed.
    -- Stationary point found.
 Normal termination of Gaussian 09 at Mon Jan 27 16:07:22 2020.

 ----------------------------------------------------------------------
 #N Geom=AllCheck Guess=TCheck SCRF=Check GenChk RB3LYP/6-31G(2df,p) Fr
 eq
 ----------------------------------------------------------------------

 Structure from the checkpoint file:  "/scratch/puck/g09_aa30e43a-466e-4915-b595-9b2ceeb19c66/Gau-83205.chk"
 -----
 titel
 -----
 Charge =  0 Multiplicity = 1

                         Standard orientation:
 ---------------------------------------------------------------------
 Center     Atomic      Atomic             Coordinates (Angstroms)
 Number     Number       Type             X           Y           Z
 ---------------------------------------------------------------------
      1          6           0       -1.998519   -0.214492    1.034297
      2          6           0       -0.951788   -0.490654   -0.021683
      3          8           0       -1.039616   -1.785057   -0.562882
      4          6           0       -0.515514    0.464301   -1.067430
      5          6           0       -0.444601    1.913806   -0.582382
      6          6           0        0.528439    1.494469    0.566377
      7          6           0        0.485340    0.044582    0.079171
      8          6           0        1.662981   -0.816088   -0.045760
      9          8           0        2.765181   -0.509673    0.357844
     10          1           0       -1.860536   -0.882638    1.892966
     11          1           0       -1.961293    0.810318    1.406451
     12          1           0       -2.994280   -0.395871    0.617884
     13          1           0       -0.953821   -2.418142    0.158851
     14          1           0       -0.477500    0.132860   -2.098437
     15          1           0        0.036657    2.567783   -1.311367
     16          1           0       -1.397442    2.366210   -0.291313
     17          1           0        1.528959    1.913970    0.452550
     18          1           0        0.193481    1.673384    1.591916
     19          1           0        1.483229   -1.785568   -0.554739
 ---------------------------------------------------------------------

 SCF Done:  E(RB3LYP) =  -423.167461222     A.U. after    1 cycles

 The electronic state is 1-A.
 Alpha  occ. eigenvalues --  -19.15989 -19.12088 -10.26259 -10.25636 -10.20965
 Alpha  occ. eigenvalues --  -10.20227 -10.19794 -10.19296 -10.19148  -1.04875
 Alpha  occ. eigenvalues --   -1.02652  -0.90026  -0.75242  -0.72192  -0.68706
 Alpha  occ. eigenvalues --   -0.62105  -0.57093  -0.54779  -0.50907  -0.47414
 Alpha  occ. eigenvalues --   -0.47039  -0.46358  -0.42985  -0.41691  -0.40736
 Alpha  occ. eigenvalues --   -0.38711  -0.38264  -0.36953  -0.35244  -0.34658
 Alpha  occ. eigenvalues --   -0.32311  -0.28356  -0.25502  -0.23633
 Alpha virt. eigenvalues --   -0.01818   0.06188   0.08831   0.10336   0.11136
 Alpha virt. eigenvalues --    0.13334   0.13893   0.14121   0.15694   0.17184
 Alpha virt. eigenvalues --    0.17927   0.19051   0.19317   0.20850   0.22811

 Mulliken charges:
               1
     1  C   -0.468645
     2  C    0.346750
     3  O   -0.460518
     4  C   -0.133225
     5  C   -0.244529
     6  C   -0.311837
     7  C    0.192429
     8  C    0.045717
     9  O   -0.282592
    10  H    0.116720
    11  H    0.132941
    12  H    0.134576
    13  H    0.287892
    14  H    0.110846
    15  H    0.117888
    16  H    0.105020
    17  H    0.133385
    18  H    0.101832
    19  H    0.075350
 Sum of Mulliken charges =   0.00000

 Dipole moment (field-independent basis, Debye):
    X=             -3.1375    Y=              0.2997    Z=              0.4157  Tot=              3.1791
 Quadrupole moment (field-independent basis, Debye-Ang):
   XX=            -63.4719   YY=            -48.9414   ZZ=            -52.3450
   XY=              1.0737   XZ=             -4.0982   YZ=             -3.0013

  Exact polarizability:  88.268  -1.794  79.940   1.838  -0.463  66.026
 Approx polarizability: 136.149  -2.134 112.745  12.286  -0.717 103.713

                      1                      2                      3
                      A                      A                      A
 Frequencies --    100.1195               186.4368               197.3981
 Red. masses --      4.6874                 3.2309                 1.3713
 Frc consts  --      0.0277                 0.0662                 0.0315
 IR Inten    --      3.4276                 6.1018                 1.6038

                      4                      5                      6
                      A                      A                      A
 Frequencies --    221.3711               251.4514               270.9321
 Red. masses --      2.3198                 1.7663                 2.9463
 Frc consts  --      0.0670                 0.0658                 0.1274
 IR Inten    --      4.7408                 0.7110                 5.3151

                      7                      8                      9
                      A                      A                      A
 Frequencies --    324.5251               359.1129               385.9153
 Red. masses --      2.4054                 1.2652                 2.6484
 Frc consts  --      0.1493                 0.0961                 0.2324
 IR Inten    --     16.8061                72.2954                 2.3098

                     10                     11                     12
                      A                      A                      A
 Frequencies --    416.7768               502.9595               568.9465
 Red. masses --      2.8981                 3.9472                 3.9506
 Frc consts  --      0.2966                 0.5883                 0.7534
 IR Inten    --     21.5945                 7.2049                10.9852

                     13                     14                     15
                      A                      A                      A
 Frequencies --    632.6232               683.8124               762.8335
 Red. masses --      4.0659                 4.5393                 3.1381
 Frc consts  --      0.9587                 1.2506                 1.0759
 IR Inten    --      2.8830                29.0698                 4.9622

                     16                     17                     18
                      A                      A                      A
 Frequencies --    790.7956               876.4268               940.7558
 Red. masses --      1.2114                 2.9584                 1.7476
 Frc consts  --      0.4463                 1.3389                 0.9113
 IR Inten    --      3.8352                11.0727                 2.3830

                     19                     20                     21
                      A                      A                      A
 Frequencies --    952.1500               965.2897              1001.9121
 Red. masses --      2.1267                 2.0530                 1.6895
 Frc consts  --      1.1360                 1.1271                 0.9992
 IR Inten    --      5.3134                22.5622                 3.4708

                     22                     23                     24
                      A                      A                      A
 Frequencies --   1015.8515              1050.4136              1087.6890
 Red. masses --      1.6698                 1.8636                 1.5012
 Frc consts  --      1.0152                 1.2115                 1.0464
 IR Inten    --      1.8266                 9.7279                44.2755

                     25                     26                     27
                      A                      A                      A
 Frequencies --   1100.8401              1134.1599              1179.9986
 Red. masses --      2.1733                 1.6871                 2.3314
 Frc consts  --      1.5517                 1.2786                 1.9126
 IR Inten    --      5.5024                 0.9277                96.4595

                     28                     29                     30
                      A                      A                      A
 Frequencies --   1220.9472              1222.3894              1243.5307
 Red. masses --      1.3237                 1.8982                 1.5002
 Frc consts  --      1.1626                 1.6712                 1.3668
 IR Inten    --      6.4374                18.2065                 6.3106

                     31                     32                     33
                      A                      A                      A
 Frequencies --   1274.9288              1310.0610              1348.5235
 Red. masses --      1.5668                 1.6608                 2.7288
 Frc consts  --      1.5005                 1.6794                 2.9238
 IR Inten    --      4.0240                56.2349                43.8355

                     34                     35                     36
                      A                      A                      A
 Frequencies --   1415.3854              1417.4390              1454.1882
 Red. masses --      1.2827                 1.4029                 2.0808
 Frc consts  --      1.5140                 1.6607                 2.5926
 IR Inten    --      4.7805                 9.9411                18.6133

                     37                     38                     39
                      A                      A                      A
 Frequencies --   1476.2871              1495.6364              1504.6751
 Red. masses --      1.0709                 1.0908                 1.1705
 Frc consts  --      1.3751                 1.4377                 1.5614
 IR Inten    --      3.0660                 4.8707                 6.9173

                     40                     41                     42
                      A                      A                      A
 Frequencies --   1507.6294              1779.5416              2917.3956
 Red. masses --      1.1929                 9.9592                 1.0824
 Frc consts  --      1.5975                18.5819                 5.4280
 IR Inten    --      7.5628               260.4180                83.7127

                     43                     44                     45
                      A                      A                      A
 Frequencies --   3033.4008              3056.2655              3064.1644
 Red. masses --      1.0414                 1.0624                 1.0645
 Frc consts  --      5.6459                 5.8470                 5.8888
 IR Inten    --     23.6257                34.1175                41.1929

                     46                     47                     48
                      A                      A                      A
 Frequencies --   3097.0400              3112.0933              3130.3449
 Red. masses --      1.0977                 1.1027                 1.1018
 Frc consts  --      6.2035                 6.2922                 6.3614
 IR Inten    --     16.0628                 4.4312                23.7537

                     49                     50                     51
                      A                      A                      A
 Frequencies --   3141.3388              3189.2966              3796.8385
 Red. masses --      1.0974                 1.0918                 1.0660
 Frc consts  --      6.3802                 6.5429                 9.0546
 IR Inten    --     13.1996                 6.7632                22.6044

 - Thermochemistry -
 -------------------
 Temperature   298.150 Kelvin.  Pressure   1.00000 Atm.
 Atom     1 has atomic number  6 and mass  12.00000

 Molecular mass:   126.06808 amu.
 Principal axes and moments of inertia in atomic units:
                           1         2         3
     Eigenvalues --   807.312271157.328371559.39075
           X            0.99946   0.00624  -0.03222
           Y           -0.00651   0.99994  -0.00823
           Z            0.03216   0.00843   0.99945
 This molecule is an asymmetric top.
 Rotational symmetry number  1.
 Warning -- assumption of classical behavior for rotation
           may cause significant error
 Rotational temperatures (Kelvin)      0.10729     0.07484     0.05554
 Rotational constants (GHZ):           2.23549     1.55940     1.15734
 Zero-point vibrational energy     413733.5 (Joules/Mol)
                                   98.88468 (Kcal/Mol)
 Warning -- explicit consideration of  12 degrees of freedom as
           vibrations may cause significant error
 Vibrational temperatures:    144.05   268.24   284.01   318.50   361.78
          (Kelvin)            389.81   466.92   516.68   555.25   599.65
                              723.65   818.59   910.20   983.85  1097.55
                             1137.78  1260.98  1353.54  1369.93  1388.83
                             1441.53  1461.58  1511.31  1564.94  1583.86
                             1631.80  1697.75  1756.67  1758.74  1789.16
                             1834.34  1884.88  1940.22  2036.42  2039.38
                             2092.25  2124.05  2151.88  2164.89  2169.14
                             2560.36  4197.48  4364.38  4397.28  4408.64
                             4455.94  4477.60  4503.86  4519.68  4588.68
                             5462.80

 Zero-point correction=                           0.157583 (Hartree/Particle)
 Thermal correction to Energy=                    0.166461
 Thermal correction to Enthalpy=                  0.167405
 Thermal correction to Gibbs Free Energy=         0.124530
 Sum of electronic and zero-point Energies=           -423.009878
 Sum of electronic and thermal Energies=              -423.001000
 Sum of electronic and thermal Enthalpies=            -423.000056
 Sum of electronic and thermal Free Energies=         -423.042931

                     E (Thermal)             CV                S
                      KCal/Mol        Cal/Mol-Kelvin    Cal/Mol-Kelvin
 Total                  104.456             34.112             90.238
 Electronic               0.000              0.000              0.000
 Translational            0.889              2.981             40.409
 Rotational               0.889              2.981             28.768
 Vibrational            102.678             28.150             21.062
 Vibration     1          0.604              1.949              3.452
 Vibration     2          0.632              1.858              2.263
 Vibration     3          0.637              1.844              2.157
 Vibration     4          0.648              1.809              1.948
 Vibration     5          0.663              1.760              1.720
 Vibration     6          0.675              1.727              1.590
 Vibration     7          0.709              1.626              1.287
 Vibration     8          0.734              1.557              1.126
 Vibration     9          0.755              1.500              1.016
 Vibration    10          0.780              1.434              0.903
 Vibration    11          0.858              1.243              0.651
 Vibration    12          0.925              1.098              0.506

 Normal termination of Gaussian 09 at Mon Jan 27 16:51:07 2020.
