 Gaussian 09, Revision D.01,
 Gaussian 09:  ES64L-G09RevD.01 24-Apr-2013

 -----------------------------
 # b3lyp 6-31G(2df,p) opt Freq
 -----------------------------

 -----
 titel
 -----
 Symbolic Z-matrix:
 Charge =  0 Multiplicity = 1

 SCF Done:  E(RB3LYP) =  -423.214722445     A.U. after   14 cycles
 Optimization completed.
    -- Stationary point found.
 Normal termination of Gaussian 09 at Tue Jan 28 00:32:50 2020.

 ----------------------------------------------------------------------
 #N Geom=AllCheck Guess=TCheck SCRF=Check GenChk RB3LYP/6-31G(2df,p) Fr
 eq
 ----------------------------------------------------------------------

 Structure from the checkpoint file:  "/scratch/puck/g09_f6db877e-6fe8-4eee-9c20-19f34eb253e6/Gau-196265.chk"
 -----
 titel
 -----
 Charge =  0 Multiplicity = 1

                         Standard orientation:
 ---------------------------------------------------------------------
 Center     Atomic      Atomic             Coordinates (Angstroms)
 Number     Number       Type             X           Y           Z
 ---------------------------------------------------------------------
      1          6           0        2.022133   -0.758612   -1.001199
      2          6           0        1.307582   -0.234794    0.259233
      3          6           0        1.143949    1.265608    0.212495
      4          6           0       -0.009647    1.890373   -0.012703
      5          6           0       -1.317714    1.172974   -0.233745
      6          6           0       -1.121265   -0.322675   -0.423871
      7          8           0       -1.766257   -0.983337   -1.204240
      8          6           0       -0.043366   -0.935691    0.474661
      9          8           0       -0.413482   -0.734670    1.839536
     10          1           0        2.242300   -1.827436   -0.913715
     11          1           0        1.406897   -0.608673   -1.894423
     12          1           0        2.966922   -0.229495   -1.156976
     13          1           0        1.919703   -0.493339    1.133549
     14          1           0        2.050504    1.849514    0.353471
     15          1           0       -0.044898    2.976427   -0.038321
     16          1           0       -1.973642    1.324182    0.636556
     17          1           0       -1.859590    1.560815   -1.102204
     18          1           0        0.036832   -2.004238    0.236666
     19          1           0       -1.197143   -1.266793    2.013806
 ---------------------------------------------------------------------

 SCF Done:  E(RB3LYP) =  -423.214722445     A.U. after    1 cycles

 The electronic state is 1-A.
 Alpha  occ. eigenvalues --  -19.15141 -19.13340 -10.26623 -10.23792 -10.19948
 Alpha  occ. eigenvalues --  -10.19383 -10.18912 -10.18473 -10.18253  -1.04686
 Alpha  occ. eigenvalues --   -1.02676  -0.83438  -0.77209  -0.71908  -0.68669
 Alpha  occ. eigenvalues --   -0.61090  -0.57845  -0.52393  -0.50753  -0.47251
 Alpha  occ. eigenvalues --   -0.46860  -0.44430  -0.42879  -0.41933  -0.40776
 Alpha  occ. eigenvalues --   -0.38528  -0.37861  -0.37253  -0.35324  -0.34743
 Alpha  occ. eigenvalues --   -0.32104  -0.30106  -0.25173  -0.23399
 Alpha virt. eigenvalues --   -0.02165   0.01896   0.07143   0.09921   0.12066
 Alpha virt. eigenvalues --    0.13281   0.14035   0.15580   0.16730   0.17449
 Alpha virt. eigenvalues --    0.17781   0.18951   0.20586   0.21351   0.22559

 Mulliken charges:
               1
     1  C   -0.404459
     2  C   -0.041715
     3  C   -0.055290
     4  C   -0.057125
     5  C   -0.346017
     6  C    0.365259
     7  O   -0.321872
     8  C    0.015032
     9  O   -0.439931
    10  H    0.118956
    11  H    0.131122
    12  H    0.119883
    13  H    0.094445
    14  H    0.089912
    15  H    0.093611
    16  H    0.137547
    17  H    0.128633
    18  H    0.080391
    19  H    0.291617
 Sum of Mulliken charges =   0.00000

 Dipole moment (field-independent basis, Debye):
    X=              0.8120    Y=              0.5880    Z=              1.0122  Tot=              1.4247
 Quadrupole moment (field-independent basis, Debye-Ang):
   XX=            -51.9079   YY=            -50.6984   ZZ=            -57.3205
   XY=             -1.9413   XZ=             -5.2220   YZ=             -3.7942

  Exact polarizability:  86.159  -4.031  79.812   2.839   1.149  64.214
 Approx polarizability: 127.801  -5.808 114.720  10.529   4.474 101.210

                      1                      2                      3
                      A                      A                      A
 Frequencies --     71.5318                88.1610               194.1157
 Red. masses --      5.2141                 2.8615                 3.6887
 Frc consts  --      0.0157                 0.0131                 0.0819
 IR Inten    --      5.4642                 0.1740                 1.5869

                      4                      5                      6
                      A                      A                      A
 Frequencies --    231.7811               244.9204               283.0941
 Red. masses --      1.1522                 3.1154                 2.5118
 Frc consts  --      0.0365                 0.1101                 0.1186
 IR Inten    --      0.0979                 5.4609                 1.9891

                      7                      8                      9
                      A                      A                      A
 Frequencies --    343.1299               390.3836               454.6690
 Red. masses --      1.0880                 3.0767                 4.5473
 Frc consts  --      0.0755                 0.2763                 0.5539
 IR Inten    --     95.9055                 4.3903                 4.3374

                     10                     11                     12
                      A                      A                      A
 Frequencies --    485.2693               522.2101               555.8084
 Red. masses --      4.3252                 2.5370                 6.0037
 Frc consts  --      0.6001                 0.4076                 1.0927
 IR Inten    --      6.3589                 2.2535                12.3801

                     13                     14                     15
                      A                      A                      A
 Frequencies --    615.4371               707.5229               744.2147
 Red. masses --      3.1300                 3.0863                 1.5807
 Frc consts  --      0.6985                 0.9103                 0.5158
 IR Inten    --      1.4079                 8.1108                23.6085

                     16                     17                     18
                      A                      A                      A
 Frequencies --    826.1831               919.9895               931.5906
 Red. masses --      2.2397                 2.6734                 2.5034
 Frc consts  --      0.9007                 1.3331                 1.2801
 IR Inten    --     10.4917                 1.4453                 9.8276

                     19                     20                     21
                      A                      A                      A
 Frequencies --    962.9219               976.5873              1004.8694
 Red. masses --      2.3026                 1.7390                 1.2670
 Frc consts  --      1.2579                 0.9772                 0.7538
 IR Inten    --      0.9120                 9.3844                 0.4144

                     22                     23                     24
                      A                      A                      A
 Frequencies --   1028.8184              1048.8704              1107.7822
 Red. masses --      2.1689                 3.6586                 2.5479
 Frc consts  --      1.3526                 2.3714                 1.8422
 IR Inten    --      4.6393                56.4602                 1.8096

                     25                     26                     27
                      A                      A                      A
 Frequencies --   1131.6416              1146.4452              1182.5118
 Red. masses --      1.5035                 1.6236                 1.1291
 Frc consts  --      1.1344                 1.2573                 0.9302
 IR Inten    --      3.3818                12.4874                 1.4617

                     28                     29                     30
                      A                      A                      A
 Frequencies --   1239.2323              1249.6769              1302.0228
 Red. masses --      1.1261                 1.7631                 1.4364
 Frc consts  --      1.0189                 1.6223                 1.4347
 IR Inten    --     31.0836                15.8750                 6.0524

                     31                     32                     33
                      A                      A                      A
 Frequencies --   1321.4853              1334.5247              1375.4687
 Red. masses --      1.5073                 1.7245                 1.6101
 Frc consts  --      1.5509                 1.8096                 1.7947
 IR Inten    --     11.9868                13.2900                 8.2071

                     34                     35                     36
                      A                      A                      A
 Frequencies --   1394.6934              1403.2124              1426.2013
 Red. masses --      1.4030                 1.2805                 1.3762
 Frc consts  --      1.6080                 1.4855                 1.6492
 IR Inten    --      6.3241                 3.7375                 1.2761

                     37                     38                     39
                      A                      A                      A
 Frequencies --   1439.3137              1497.0146              1498.8626
 Red. masses --      1.0857                 1.0479                 1.0590
 Frc consts  --      1.3252                 1.3836                 1.4017
 IR Inten    --      7.8843                 6.5051                 2.2622

                     40                     41                     42
                      A                      A                      A
 Frequencies --   1727.0493              1819.3935              3007.3676
 Red. masses --      6.8339                11.6125                 1.0677
 Frc consts  --     12.0095                22.6479                 5.6895
 IR Inten    --      2.3384               161.5786                10.7494

                     43                     44                     45
                      A                      A                      A
 Frequencies --   3017.1174              3025.6434              3034.8275
 Red. masses --      1.0824                 1.0834                 1.0367
 Frc consts  --      5.8051                 5.8437                 5.6258
 IR Inten    --     14.1403                28.6168                31.8527

                     46                     47                     48
                      A                      A                      A
 Frequencies --   3078.6313              3106.4027              3109.7385
 Red. masses --      1.0913                 1.1022                 1.1017
 Frc consts  --      6.0942                 6.2663                 6.2769
 IR Inten    --      8.7520                27.4887                19.7874

                     49                     50                     51
                      A                      A                      A
 Frequencies --   3145.7419              3169.2656              3811.5068
 Red. masses --      1.0834                 1.0970                 1.0665
 Frc consts  --      6.3164                 6.4919                 9.1290
 IR Inten    --      5.5568                30.3875                28.7834

 - Thermochemistry -
 -------------------
 Temperature   298.150 Kelvin.  Pressure   1.00000 Atm.
 Atom     1 has atomic number  6 and mass  12.00000

 Molecular mass:   126.06808 amu.
 Principal axes and moments of inertia in atomic units:
                           1         2         3
     Eigenvalues --   915.115921129.863951268.36649
           X            0.99082  -0.11616  -0.06908
           Y            0.11581   0.99323  -0.00906
           Z            0.06967   0.00097   0.99757
 This molecule is an asymmetric top.
 Rotational symmetry number  1.
 Warning -- assumption of classical behavior for rotation
           may cause significant error
 Rotational temperatures (Kelvin)      0.09465     0.07666     0.06829
 Rotational constants (GHZ):           1.97214     1.59731     1.42289
 Zero-point vibrational energy     417107.1 (Joules/Mol)
                                   99.69098 (Kcal/Mol)
 Warning -- explicit consideration of  13 degrees of freedom as
           vibrations may cause significant error
 Vibrational temperatures:    102.92   126.84   279.29   333.48   352.39
          (Kelvin)            407.31   493.69   561.67   654.17   698.19
                              751.34   799.68   885.48  1017.97  1070.76
                             1188.69  1323.66  1340.35  1385.43  1405.09
                             1445.78  1480.24  1509.09  1593.85  1628.18
                             1649.48  1701.37  1782.98  1798.00  1873.32
                             1901.32  1920.08  1978.99  2006.65  2018.91
                             2051.98  2070.85  2153.87  2156.53  2484.84
                             2617.70  4326.93  4340.95  4353.22  4366.43
                             4429.46  4469.41  4474.21  4526.02  4559.86
                             5483.90

 Zero-point correction=                           0.158868 (Hartree/Particle)
 Thermal correction to Energy=                    0.167746
 Thermal correction to Enthalpy=                  0.168690
 Thermal correction to Gibbs Free Energy=         0.125270
 Sum of electronic and zero-point Energies=           -423.055855
 Sum of electronic and thermal Energies=              -423.046977
 Sum of electronic and thermal Enthalpies=            -423.046033
 Sum of electronic and thermal Free Energies=         -423.089452

                     E (Thermal)             CV                S
                      KCal/Mol        Cal/Mol-Kelvin    Cal/Mol-Kelvin
 Total                  105.262             33.499             91.384
 Electronic               0.000              0.000              0.000
 Translational            0.889              2.981             40.409
 Rotational               0.889              2.981             28.663
 Vibrational            103.485             27.537             22.313
 Vibration     1          0.598              1.968              4.111
 Vibration     2          0.601              1.958              3.700
 Vibration     3          0.635              1.848              2.188
 Vibration     4          0.653              1.792              1.865
 Vibration     5          0.660              1.771              1.767
 Vibration     6          0.682              1.705              1.515
 Vibration     7          0.722              1.589              1.198
 Vibration     8          0.758              1.491              0.999
 Vibration     9          0.813              1.351              0.782
 Vibration    10          0.841              1.283              0.696
 Vibration    11          0.877              1.201              0.605
 Vibration    12          0.911              1.127              0.532
 Vibration    13          0.975              0.999              0.424

 Normal termination of Gaussian 09 at Tue Jan 28 01:16:04 2020.
