 Gaussian 09, Revision D.01,
 Gaussian 09:  ES64L-G09RevD.01 24-Apr-2013

 -----------------------------
 # b3lyp 6-31G(2df,p) opt Freq
 -----------------------------

 -----
 titel
 -----
 Symbolic Z-matrix:
 Charge =  0 Multiplicity = 1

 SCF Done:  E(RB3LYP) =  -423.099632635     A.U. after   12 cycles
 Optimization completed.
    -- Stationary point found.
 Normal termination of Gaussian 09 at Mon Jan 27 22:01:56 2020.

 ----------------------------------------------------------------------
 #N Geom=AllCheck Guess=TCheck SCRF=Check GenChk RB3LYP/6-31G(2df,p) Fr
 eq
 ----------------------------------------------------------------------

 Structure from the checkpoint file:  "/scratch/puck/g09_a669b28c-d381-40c4-869e-72fe1388a097/Gau-98558.chk"
 -----
 titel
 -----
 Charge =  0 Multiplicity = 1

                         Standard orientation:
 ---------------------------------------------------------------------
 Center     Atomic      Atomic             Coordinates (Angstroms)
 Number     Number       Type             X           Y           Z
 ---------------------------------------------------------------------
      1          6           0       -1.591440    1.687613   -0.301895
      2          6           0       -0.651835    0.592779    0.107472
      3          6           0       -1.090778   -0.816283    0.391016
      4          8           0       -2.396272   -1.087417   -0.042516
      5          6           0       -0.075686   -0.565024   -0.707780
      6          6           0        1.348101   -0.208009   -0.189544
      7          8           0        2.426850   -0.129339   -1.051630
      8          6           0        1.499142   -0.262989    1.305393
      9          6           0        0.775951    0.906153    0.649026
     10          1           0       -1.916411    2.270480    0.569337
     11          1           0       -1.110644    2.379716   -1.002592
     12          1           0       -2.479613    1.268769   -0.779218
     13          1           0       -0.825019   -1.329415    1.313337
     14          1           0       -2.409558   -1.984357   -0.392240
     15          1           0       -0.285124   -0.821302   -1.739405
     16          1           0        2.847372   -0.996394   -1.086992
     17          1           0        1.019011   -0.989051    1.951904
     18          1           0        2.500893    0.009356    1.626412
     19          1           0        1.133735    1.920817    0.770492
 ---------------------------------------------------------------------

 SCF Done:  E(RB3LYP) =  -423.099632635     A.U. after    1 cycles

 The electronic state is 1-A.
 Alpha  occ. eigenvalues --  -19.14696 -19.14420 -10.24023 -10.23387 -10.19422
 Alpha  occ. eigenvalues --  -10.18742 -10.18598 -10.18131 -10.16945  -1.03380
 Alpha  occ. eigenvalues --   -1.02846  -0.90537  -0.79325  -0.71031  -0.63957
 Alpha  occ. eigenvalues --   -0.60722  -0.57112  -0.52972  -0.51723  -0.50544
 Alpha  occ. eigenvalues --   -0.48167  -0.43208  -0.41926  -0.41096  -0.39864
 Alpha  occ. eigenvalues --   -0.39273  -0.37251  -0.34138  -0.33909  -0.30906
 Alpha  occ. eigenvalues --   -0.29080  -0.26605  -0.25782  -0.20428
 Alpha virt. eigenvalues --    0.07423   0.07912   0.09369   0.10822   0.11355
 Alpha virt. eigenvalues --    0.13236   0.14484   0.15889   0.16748   0.17153
 Alpha virt. eigenvalues --    0.19165   0.20025   0.21238   0.21881   0.23853

 Mulliken charges:
               1
     1  C   -0.496482
     2  C    0.344289
     3  C    0.019721
     4  O   -0.435002
     5  C   -0.251411
     6  C    0.392696
     7  O   -0.454191
     8  C   -0.377803
     9  C   -0.177087
    10  H    0.115171
    11  H    0.116208
    12  H    0.138709
    13  H    0.080278
    14  H    0.287833
    15  H    0.090531
    16  H    0.283783
    17  H    0.111389
    18  H    0.114223
    19  H    0.097147
 Sum of Mulliken charges =   0.00000

 Dipole moment (field-independent basis, Debye):
    X=              0.6968    Y=             -1.9900    Z=              0.1031  Tot=              2.1110
 Quadrupole moment (field-independent basis, Debye-Ang):
   XX=            -54.9069   YY=            -46.9918   ZZ=            -53.5403
   XY=             -1.3174   XZ=              2.5764   YZ=              2.3705

  Exact polarizability:  84.229  -1.915  74.759   2.551   1.163  67.763
 Approx polarizability: 113.410  -2.555 112.658  -1.264   3.863 105.214

                      1                      2                      3
                      A                      A                      A
 Frequencies --    144.4313               199.7036               227.3632
 Red. masses --      3.2608                 1.0497                 3.0309
 Frc consts  --      0.0401                 0.0247                 0.0923
 IR Inten    --      0.5630                 1.1886                 5.3413

                      4                      5                      6
                      A                      A                      A
 Frequencies --    244.7052               273.4818               275.9350
 Red. masses --      3.6322                 1.8378                 1.2303
 Frc consts  --      0.1281                 0.0810                 0.0552
 IR Inten    --     12.6901                10.3486                87.7516

                      7                      8                      9
                      A                      A                      A
 Frequencies --    301.1857               328.0459               401.5894
 Red. masses --      1.6811                 2.2370                 4.7298
 Frc consts  --      0.0898                 0.1418                 0.4494
 IR Inten    --     75.0483                10.2711                13.3325

                     10                     11                     12
                      A                      A                      A
 Frequencies --    437.4325               454.8075               516.0641
 Red. masses --      2.8446                 2.7362                 3.2509
 Frc consts  --      0.3207                 0.3335                 0.5101
 IR Inten    --      4.9098                 2.6587                11.4241

                     13                     14                     15
                      A                      A                      A
 Frequencies --    607.9249               661.3207               806.8746
 Red. masses --      3.7850                 2.9504                 2.6855
 Frc consts  --      0.8242                 0.7602                 1.0301
 IR Inten    --      2.4997                 4.7756                 3.8693

                     16                     17                     18
                      A                      A                      A
 Frequencies --    830.4113               846.0574               870.5179
 Red. masses --      4.4259                 2.7027                 2.0324
 Frc consts  --      1.7982                 1.1399                 0.9074
 IR Inten    --      8.0235                 7.3240                 1.1034

                     19                     20                     21
                      A                      A                      A
 Frequencies --    894.7104               938.2866               971.9102
 Red. masses --      1.3062                 1.5110                 1.9965
 Frc consts  --      0.6160                 0.7838                 1.1112
 IR Inten    --     11.2550                 5.9572                16.3037

                     22                     23                     24
                      A                      A                      A
 Frequencies --   1005.2316              1011.4649              1049.4985
 Red. masses --      1.7069                 1.7258                 2.1888
 Frc consts  --      1.0162                 1.0403                 1.4204
 IR Inten    --      6.1630                 2.9279                15.7137

                     25                     26                     27
                      A                      A                      A
 Frequencies --   1052.6379              1086.9363              1103.2699
 Red. masses --      1.3227                 1.4889                 1.8797
 Frc consts  --      0.8635                 1.0364                 1.3480
 IR Inten    --      4.6049                 9.4463                87.2845

                     28                     29                     30
                      A                      A                      A
 Frequencies --   1133.1192              1169.7564              1192.3213
 Red. masses --      2.0937                 2.6395                 1.7207
 Frc consts  --      1.5839                 2.1280                 1.4413
 IR Inten    --      6.8787                16.0945                 6.6849

                     31                     32                     33
                      A                      A                      A
 Frequencies --   1226.6819              1272.4945              1289.5445
 Red. masses --      2.2078                 2.4182                 1.7587
 Frc consts  --      1.9574                 2.3070                 1.7232
 IR Inten    --     10.8244               109.6112                59.0194

                     34                     35                     36
                      A                      A                      A
 Frequencies --   1290.7508              1356.1801              1400.0009
 Red. masses --      1.2879                 1.6631                 2.0563
 Frc consts  --      1.2642                 1.8022                 2.3746
 IR Inten    --     48.2411                 3.5415                23.1101

                     37                     38                     39
                      A                      A                      A
 Frequencies --   1411.2669              1459.5736              1490.5814
 Red. masses --      1.3683                 2.4181                 1.0461
 Frc consts  --      1.6056                 3.0352                 1.3694
 IR Inten    --      1.4781                11.3376                 4.3896

                     40                     41                     42
                      A                      A                      A
 Frequencies --   1497.7768              1503.5966              3020.7537
 Red. masses --      1.1132                 1.4293                 1.0396
 Frc consts  --      1.4714                 1.9038                 5.5891
 IR Inten    --      5.6067                14.6986                42.9757

                     43                     44                     45
                      A                      A                      A
 Frequencies --   3074.1225              3098.3631              3128.1619
 Red. masses --      1.0992                 1.0821                 1.0590
 Frc consts  --      6.1203                 6.1202                 6.1057
 IR Inten    --     24.0078                15.5847                33.1853

                     46                     47                     48
                      A                      A                      A
 Frequencies --   3130.5516              3187.6154              3192.8748
 Red. masses --      1.0965                 1.0924                 1.0958
 Frc consts  --      6.3317                 6.5395                 6.5819
 IR Inten    --      9.8038                 8.4702                 5.4405

                     49                     50                     51
                      A                      A                      A
 Frequencies --   3204.3921              3778.4465              3808.6753
 Red. masses --      1.1121                 1.0660                 1.0663
 Frc consts  --      6.7278                 8.9671                 9.1131
 IR Inten    --     16.5536                16.6309                24.7186

 - Thermochemistry -
 -------------------
 Temperature   298.150 Kelvin.  Pressure   1.00000 Atm.
 Atom     1 has atomic number  6 and mass  12.00000

 Molecular mass:   126.06808 amu.
 Principal axes and moments of inertia in atomic units:
                           1         2         3
     Eigenvalues --   617.307571408.665011542.20268
           X            0.99941  -0.02464   0.02408
           Y            0.02533   0.99926  -0.02888
           Z           -0.02335   0.02947   0.99929
 This molecule is an asymmetric top.
 Rotational symmetry number  1.
 Warning -- assumption of classical behavior for rotation
           may cause significant error
 Rotational temperatures (Kelvin)      0.14031     0.06149     0.05616
 Rotational constants (GHZ):           2.92357     1.28117     1.17024
 Zero-point vibrational energy     411870.7 (Joules/Mol)
                                   98.43945 (Kcal/Mol)
 Warning -- explicit consideration of  13 degrees of freedom as
           vibrations may cause significant error
 Vibrational temperatures:    207.80   287.33   327.12   352.08   393.48
          (Kelvin)            397.01   433.34   471.98   577.80   629.37
                              654.37   742.50   874.67   951.49  1160.91
                             1194.78  1217.29  1252.48  1287.29  1349.98
                             1398.36  1446.30  1455.27  1509.99  1514.51
                             1563.86  1587.36  1630.30  1683.02  1715.48
                             1764.92  1830.83  1855.36  1857.10  1951.24
                             2014.29  2030.50  2100.00  2144.61  2154.96
                             2163.34  4346.19  4422.97  4457.85  4500.72
                             4504.16  4586.26  4593.83  4610.40  5436.33
                             5479.83

 Zero-point correction=                           0.156873 (Hartree/Particle)
 Thermal correction to Energy=                    0.165735
 Thermal correction to Enthalpy=                  0.166679
 Thermal correction to Gibbs Free Energy=         0.124223
 Sum of electronic and zero-point Energies=           -422.942759
 Sum of electronic and thermal Energies=              -422.933898
 Sum of electronic and thermal Enthalpies=            -422.932954
 Sum of electronic and thermal Free Energies=         -422.975410

                     E (Thermal)             CV                S
                      KCal/Mol        Cal/Mol-Kelvin    Cal/Mol-Kelvin
 Total                  104.000             35.022             89.357
 Electronic               0.000              0.000              0.000
 Translational            0.889              2.981             40.409
 Rotational               0.889              2.981             28.685
 Vibrational            102.223             29.061             20.263
 Vibration     1          0.616              1.909              2.744
 Vibration     2          0.638              1.840              2.136
 Vibration     3          0.651              1.799              1.900
 Vibration     4          0.660              1.772              1.768
 Vibration     5          0.676              1.722              1.574
 Vibration     6          0.678              1.718              1.559
 Vibration     7          0.693              1.671              1.410
 Vibration     8          0.711              1.619              1.270
 Vibration     9          0.767              1.467              0.957
 Vibration    10          0.798              1.389              0.835
 Vibration    11          0.813              1.350              0.781
 Vibration    12          0.871              1.214              0.619
 Vibration    13          0.967              1.015              0.436

 Optimization completed.
    -- Stationary point found.
 Normal termination of Gaussian 09 at Mon Jan 27 22:52:34 2020.
