 Gaussian 09, Revision D.01,
 Gaussian 09:  ES64L-G09RevD.01 24-Apr-2013

 -----------------------------
 # b3lyp 6-31G(2df,p) opt Freq
 -----------------------------

 -----
 titel
 -----
 Symbolic Z-matrix:
 Charge =  0 Multiplicity = 1

 SCF Done:  E(RB3LYP) =  -423.185251581     A.U. after   13 cycles
 SCF Done:  E(RB3LYP) =  -423.185251985     A.U. after    6 cycles
 Optimization completed.
    -- Stationary point found.
 Normal termination of Gaussian 09 at Mon Jan 27 18:19:02 2020.

 ----------------------------------------------------------------------
 #N Geom=AllCheck Guess=TCheck SCRF=Check GenChk RB3LYP/6-31G(2df,p) Fr
 eq
 ----------------------------------------------------------------------

 Structure from the checkpoint file:  "/scratch/puck/g09_85f57f80-130e-44ca-ad08-c8d2b19e7682/Gau-89355.chk"
 -----
 titel
 -----
 Charge =  0 Multiplicity = 1

                         Standard orientation:
 ---------------------------------------------------------------------
 Center     Atomic      Atomic             Coordinates (Angstroms)
 Number     Number       Type             X           Y           Z
 ---------------------------------------------------------------------
      1          6           0       -2.350081    0.000014   -0.455754
      2          6           0       -0.915097    0.000030    0.024550
      3          6           0       -0.399558   -1.167120    0.909862
      4          6           0        1.068852   -0.815488    0.628732
      5          8           0        1.077671   -1.095450   -0.780725
      6          6           0        0.246452   -0.000018   -1.119104
      7          8           0        1.077739    1.095375   -0.780765
      8          6           0        1.068894    0.815469    0.628699
      9          6           0       -0.399504    1.167191    0.909810
     10          1           0       -2.565011   -0.885008   -1.064778
     11          1           0       -3.050734   -0.000770    0.386425
     12          1           0       -2.565466    0.885767   -1.063547
     13          1           0       -0.730793   -1.080535    1.947252
     14          1           0       -0.621876   -2.167415    0.534654
     15          1           0        1.878151   -1.331748    1.139974
     16          1           0       -0.033014   -0.000031   -2.170509
     17          1           0        1.878214    1.331706    1.139933
     18          1           0       -0.730724    1.080698    1.947212
     19          1           0       -0.621771    2.167473    0.534538
 ---------------------------------------------------------------------

 SCF Done:  E(RB3LYP) =  -423.185251985     A.U. after    1 cycles

 The electronic state is 1-A.
 Alpha  occ. eigenvalues --  -19.13981 -19.13981 -10.27287 -10.23705 -10.23693
 Alpha  occ. eigenvalues --  -10.20226 -10.18212 -10.18211 -10.18149  -1.09889
 Alpha  occ. eigenvalues --   -0.99310  -0.83535  -0.75162  -0.70092  -0.68241
 Alpha  occ. eigenvalues --   -0.60541  -0.57929  -0.56355  -0.51824  -0.49563
 Alpha  occ. eigenvalues --   -0.44678  -0.44142  -0.42884  -0.41338  -0.40554
 Alpha  occ. eigenvalues --   -0.38756  -0.37029  -0.36240  -0.34375  -0.32867
 Alpha  occ. eigenvalues --   -0.31421  -0.30599  -0.26568  -0.25342
 Alpha virt. eigenvalues --    0.09004   0.09624   0.11943   0.11992   0.13571
 Alpha virt. eigenvalues --    0.14322   0.14473   0.15755   0.16089   0.16783
 Alpha virt. eigenvalues --    0.16858   0.17758   0.20374   0.21085   0.21692

 Mulliken charges:
               1
     1  C   -0.507695
     2  C    0.261039
     3  C   -0.242308
     4  C    0.032993
     5  O   -0.243078
     6  C    0.133949
     7  O   -0.243075
     8  C    0.032996
     9  C   -0.242313
    10  H    0.120754
    11  H    0.119079
    12  H    0.120753
    13  H    0.094076
    14  H    0.104715
    15  H    0.084083
    16  H    0.091163
    17  H    0.084082
    18  H    0.094075
    19  H    0.104714
 Sum of Mulliken charges =   0.00000

 Dipole moment (field-independent basis, Debye):
    X=             -1.4864    Y=              0.0001    Z=              1.6917  Tot=              2.2520
 Quadrupole moment (field-independent basis, Debye-Ang):
   XX=            -53.9472   YY=            -55.2085   ZZ=            -51.2413
   XY=              0.0001   XZ=              4.0585   YZ=              0.0000

  Exact polarizability:  75.667   0.000  70.680   3.209   0.000  71.572
 Approx polarizability: 105.145   0.000 107.920   1.615   0.000 112.062

                      1                      2                      3
                      A                      A                      A
 Frequencies --    212.8645               246.1169               264.7498
 Red. masses --      1.0576                 2.6062                 2.6243
 Frc consts  --      0.0282                 0.0930                 0.1084
 IR Inten    --      0.0110                 0.0013                 0.9106

                      4                      5                      6
                      A                      A                      A
 Frequencies --    403.5879               532.9208               544.8311
 Red. masses --      2.2838                 3.8337                 2.0880
 Frc consts  --      0.2192                 0.6415                 0.3652
 IR Inten    --      0.0842                 1.3678                 0.0016

                      7                      8                      9
                      A                      A                      A
 Frequencies --    576.4220               616.2035               633.0258
 Red. masses --      3.4215                 5.3279                 4.2008
 Frc consts  --      0.6698                 1.1919                 0.9918
 IR Inten    --      1.2864                 5.1099                 2.1559

                     10                     11                     12
                      A                      A                      A
 Frequencies --    722.5414               740.4865               828.9351
 Red. masses --      6.0935                 3.0974                 5.1657
 Frc consts  --      1.8743                 1.0007                 2.0913
 IR Inten    --     12.7397                 5.9531                 0.0767

                     13                     14                     15
                      A                      A                      A
 Frequencies --    830.1081               891.8190               908.5847
 Red. masses --      3.6363                 2.7626                 2.2219
 Frc consts  --      1.4763                 1.2945                 1.0807
 IR Inten    --      1.7300                28.6406                 0.6778

                     16                     17                     18
                      A                      A                      A
 Frequencies --    924.4468               929.4309               952.5721
 Red. masses --      3.3768                 2.3203                 1.8852
 Frc consts  --      1.7003                 1.1809                 1.0079
 IR Inten    --     87.1727                 5.7219                 3.6350

                     19                     20                     21
                      A                      A                      A
 Frequencies --    963.8275               964.5954              1022.5616
 Red. masses --      3.6368                 1.6897                 2.7699
 Frc consts  --      1.9905                 0.9263                 1.7064
 IR Inten    --     56.5828                 0.0665                 3.4503

                     22                     23                     24
                      A                      A                      A
 Frequencies --   1027.5826              1066.2760              1094.3526
 Red. masses --      1.4741                 2.8022                 1.2107
 Frc consts  --      0.9171                 1.8771                 0.8543
 IR Inten    --      3.8869                39.6365                 0.5511

                     25                     26                     27
                      A                      A                      A
 Frequencies --   1126.8152              1138.3352              1197.8637
 Red. masses --      1.7468                 1.9011                 2.2441
 Frc consts  --      1.3068                 1.4515                 1.8972
 IR Inten    --      6.8337                 0.4917                 1.3039

                     28                     29                     30
                      A                      A                      A
 Frequencies --   1220.2133              1241.2994              1244.3768
 Red. masses --      1.4747                 1.2689                 1.7460
 Frc consts  --      1.2937                 1.1519                 1.5929
 IR Inten    --      8.0376                 1.2362                 1.6413

                     31                     32                     33
                      A                      A                      A
 Frequencies --   1251.9766              1259.4309              1276.8298
 Red. masses --      1.4051                 1.6848                 1.7335
 Frc consts  --      1.2976                 1.5745                 1.6651
 IR Inten    --      0.1158                 0.4571                 2.8376

                     34                     35                     36
                      A                      A                      A
 Frequencies --   1301.6855              1347.1899              1350.9746
 Red. masses --      1.4867                 1.4846                 2.2241
 Frc consts  --      1.4842                 1.5875                 2.3917
 IR Inten    --     21.1591                10.5094                 3.6774

                     37                     38                     39
                      A                      A                      A
 Frequencies --   1416.1968              1481.5956              1494.9454
 Red. masses --      1.2881                 1.1050                 1.0482
 Frc consts  --      1.5221                 1.4291                 1.3802
 IR Inten    --      0.7303                 1.5940                 4.2001

                     40                     41                     42
                      A                      A                      A
 Frequencies --   1495.9943              1513.9089              3025.5925
 Red. masses --      1.0470                 1.1083                 1.0354
 Frc consts  --      1.3805                 1.4966                 5.5842
 IR Inten    --      4.6179                 4.0324                29.0287

                     43                     44                     45
                      A                      A                      A
 Frequencies --   3065.2952              3076.4716              3091.4091
 Red. masses --      1.0599                 1.0586                 1.1009
 Frc consts  --      5.8674                 5.9034                 6.1987
 IR Inten    --     14.5896                31.4289                18.9268

                     46                     47                     48
                      A                      A                      A
 Frequencies --   3092.5988              3123.1389              3130.8001
 Red. masses --      1.1012                 1.1061                 1.1079
 Frc consts  --      6.2054                 6.3566                 6.3981
 IR Inten    --     19.0395                23.3811                24.5966

                     49                     50                     51
                      A                      A                      A
 Frequencies --   3147.8349              3153.9490              3158.5650
 Red. masses --      1.0921                 1.0886                 1.0952
 Frc consts  --      6.3756                 6.3803                 6.4378
 IR Inten    --     12.0108                66.4043                 6.9290

 - Thermochemistry -
 -------------------
 Temperature   298.150 Kelvin.  Pressure   1.00000 Atm.
 Atom     1 has atomic number  6 and mass  12.00000

 Molecular mass:   126.06808 amu.
 Principal axes and moments of inertia in atomic units:
                           1         2         3
     Eigenvalues --   671.62647 931.992011003.27109
           X            0.99861   0.00000   0.05272
           Y            0.00000   1.00000   0.00000
           Z           -0.05272   0.00000   0.99861
 This molecule is an asymmetric top.
 Rotational symmetry number  1.
 Warning -- assumption of classical behavior for rotation
           may cause significant error
 Rotational temperatures (Kelvin)      0.12896     0.09293     0.08633
 Rotational constants (GHZ):           2.68712     1.93643     1.79886
 Zero-point vibrational energy     426613.0 (Joules/Mol)
                                  101.96296 (Kcal/Mol)
 Warning -- explicit consideration of   8 degrees of freedom as
           vibrations may cause significant error
 Vibrational temperatures:    306.26   354.11   380.92   580.67   766.75
          (Kelvin)            783.89   829.34   886.58   910.78  1039.57
                             1065.39  1192.65  1194.34  1283.13  1307.25
                             1330.07  1337.24  1370.54  1386.73  1387.84
                             1471.24  1478.46  1534.13  1574.53  1621.23
                             1637.81  1723.46  1755.61  1785.95  1790.38
                             1801.31  1812.04  1837.07  1872.83  1938.30
                             1943.75  2037.59  2131.68  2150.89  2152.40
                             2178.17  4353.15  4410.27  4426.35  4447.84
                             4449.55  4493.49  4504.52  4529.03  4537.82
                             4544.46

 Zero-point correction=                           0.162488 (Hartree/Particle)
 Thermal correction to Energy=                    0.168984
 Thermal correction to Enthalpy=                  0.169928
 Thermal correction to Gibbs Free Energy=         0.132056
 Sum of electronic and zero-point Energies=           -423.022764
 Sum of electronic and thermal Energies=              -423.016268
 Sum of electronic and thermal Enthalpies=            -423.015324
 Sum of electronic and thermal Free Energies=         -423.053196

                     E (Thermal)             CV                S
                      KCal/Mol        Cal/Mol-Kelvin    Cal/Mol-Kelvin
 Total                  106.039             27.930             79.709
 Electronic               0.000              0.000              0.000
 Translational            0.889              2.981             40.409
 Rotational               0.889              2.981             27.931
 Vibrational            104.261             21.969             11.369
 Vibration     1          0.644              1.821              2.019
 Vibration     2          0.661              1.769              1.758
 Vibration     3          0.671              1.738              1.630
 Vibration     4          0.769              1.462              0.950
 Vibration     5          0.888              1.177              0.581
 Vibration     6          0.900              1.151              0.555
 Vibration     7          0.933              1.082              0.492
 Vibration     8          0.976              0.998              0.423

 Optimization completed.
    -- Stationary point found.
 Normal termination of Gaussian 09 at Mon Jan 27 19:06:14 2020.
