 Gaussian 09, Revision D.01,
 Gaussian 09:  ES64L-G09RevD.01 24-Apr-2013

 -----------------------------
 # b3lyp 6-31G(2df,p) opt Freq
 -----------------------------

 -----
 titel
 -----
 Symbolic Z-matrix:
 Charge =  0 Multiplicity = 1

 SCF Done:  E(RB3LYP) =  -423.127597618     A.U. after   14 cycles
 Optimization completed.
    -- Stationary point found.
 Normal termination of Gaussian 09 at Mon Jan 27 15:35:20 2020.

 ----------------------------------------------------------------------
 #N Geom=AllCheck Guess=TCheck SCRF=Check GenChk RB3LYP/6-31G(2df,p) Fr
 eq
 ----------------------------------------------------------------------

 Structure from the checkpoint file:  "/scratch/puck/g09_7ee05fa4-f007-4b4f-a234-cb1ac59b0d63/Gau-45497.chk"
 -----
 titel
 -----
 Charge =  0 Multiplicity = 1

                         Standard orientation:
 ---------------------------------------------------------------------
 Center     Atomic      Atomic             Coordinates (Angstroms)
 Number     Number       Type             X           Y           Z
 ---------------------------------------------------------------------
      1          6           0        2.255758   -1.367072   -0.276758
      2          6           0        1.473588   -0.250007    0.405849
      3          8           0        2.316295    0.687845    1.069029
      4          6           0        0.564041    0.489498   -0.572786
      5          6           0       -0.505979    1.415150    0.033731
      6          6           0       -1.523345    0.452228   -0.638170
      7          8           0       -0.444615   -0.377885   -1.147963
      8          6           0       -2.443148   -0.264017    0.229326
      9          6           0       -3.206658   -0.843555    0.954801
     10          1           0        2.918571   -0.959528   -1.051554
     11          1           0        2.868716   -1.906579    0.450115
     12          1           0        1.570207   -2.069826   -0.758104
     13          1           0        0.843003   -0.676148    1.195151
     14          1           0        2.986016    0.977006    0.439150
     15          1           0        1.175174    0.953629   -1.362360
     16          1           0       -0.533324    1.424191    1.123156
     17          1           0       -0.528392    2.437683   -0.342713
     18          1           0       -2.077423    0.906446   -1.469359
     19          1           0       -3.881540   -1.359898    1.592032
 ---------------------------------------------------------------------

 SCF Done:  E(RB3LYP) =  -423.127597618     A.U. after    1 cycles

 The electronic state is 1-A.
 Alpha  occ. eigenvalues --  -19.13983 -19.13929 -10.25944 -10.23498 -10.23144
 Alpha  occ. eigenvalues --  -10.19363 -10.18424 -10.18052 -10.17587  -1.04516
 Alpha  occ. eigenvalues --   -1.01946  -0.77751  -0.76599  -0.73525  -0.69078
 Alpha  occ. eigenvalues --   -0.62593  -0.57783  -0.53396  -0.50632  -0.49642
 Alpha  occ. eigenvalues --   -0.47255  -0.45993  -0.44321  -0.42651  -0.39721
 Alpha  occ. eigenvalues --   -0.37833  -0.37008  -0.34613  -0.33188  -0.31238
 Alpha  occ. eigenvalues --   -0.29010  -0.27470  -0.26862  -0.24876
 Alpha virt. eigenvalues --    0.02027   0.04571   0.07185   0.10306   0.11537
 Alpha virt. eigenvalues --    0.11644   0.12611   0.14580   0.14660   0.16217
 Alpha virt. eigenvalues --    0.17222   0.18500   0.19014   0.19132   0.23140

 Mulliken charges:
               1
     1  C   -0.415326
     2  C    0.118885
     3  O   -0.431833
     4  C    0.137460
     5  C   -0.319144
     6  C   -0.038819
     7  O   -0.298366
     8  C    0.338836
     9  C   -0.456468
    10  H    0.102815
    11  H    0.123501
    12  H    0.144161
    13  H    0.097183
    14  H    0.279194
    15  H    0.062569
    16  H    0.132049
    17  H    0.114108
    18  H    0.105933
    19  H    0.203262
 Sum of Mulliken charges =   0.00000

 Dipole moment (field-independent basis, Debye):
    X=              0.4357    Y=              0.9634    Z=             -0.4430  Tot=              1.1465
 Quadrupole moment (field-independent basis, Debye-Ang):
   XX=            -47.6436   YY=            -51.5979   ZZ=            -55.3312
   XY=              0.8594   XZ=             -5.6678   YZ=             -4.7691

  Exact polarizability:  94.762   7.663  70.692 -10.314  -6.980  67.702
 Approx polarizability: 123.118  18.110 103.972 -19.845 -12.903 108.444

                      1                      2                      3
                      A                      A                      A
 Frequencies --     32.8884                67.9808               168.7865
 Red. masses --      4.7817                 3.5737                 3.7087
 Frc consts  --      0.0030                 0.0097                 0.0623
 IR Inten    --      0.2541                 2.1938                 3.3226

                      4                      5                      6
                      A                      A                      A
 Frequencies --    197.7047               218.2056               238.0480
 Red. masses --      2.9252                 2.3188                 1.4317
 Frc consts  --      0.0674                 0.0650                 0.0478
 IR Inten    --      2.7444                 0.5323                 0.9279

                      7                      8                      9
                      A                      A                      A
 Frequencies --    283.4479               319.7777               355.3581
 Red. masses --      1.0953                 3.1959                 2.6892
 Frc consts  --      0.0518                 0.1925                 0.2001
 IR Inten    --     84.9296                13.9705                13.5552

                     10                     11                     12
                      A                      A                      A
 Frequencies --    454.0844               478.3541               506.2501
 Red. masses --      4.6994                 3.0143                 4.0355
 Frc consts  --      0.5709                 0.4064                 0.6094
 IR Inten    --      0.8272                11.2225                 1.2468

                     13                     14                     15
                      A                      A                      A
 Frequencies --    544.8768               618.1878               671.1615
 Red. masses --      6.6042                 1.2174                 1.2500
 Frc consts  --      1.1552                 0.2741                 0.3317
 IR Inten    --      5.0316                41.5430                34.5339

                     16                     17                     18
                      A                      A                      A
 Frequencies --    740.3502               817.8065               880.9818
 Red. masses --      2.1718                 2.1535                 4.1295
 Frc consts  --      0.7014                 0.8486                 1.8883
 IR Inten    --      7.3281                 2.4018                 1.9052

                     19                     20                     21
                      A                      A                      A
 Frequencies --    914.4206               969.8915               981.5978
 Red. masses --      2.2281                 2.4541                 1.8811
 Frc consts  --      1.0977                 1.3602                 1.0679
 IR Inten    --     12.4936                42.8283                 8.7127

                     22                     23                     24
                      A                      A                      A
 Frequencies --   1016.7599              1022.9663              1073.6016
 Red. masses --      6.7437                 2.2008                 1.7905
 Frc consts  --      4.1076                 1.3569                 1.2159
 IR Inten    --    168.9018                 1.9257                65.1668

                     25                     26                     27
                      A                      A                      A
 Frequencies --   1085.2177              1109.1292              1128.5715
 Red. masses --      3.3288                 1.6535                 2.2079
 Frc consts  --      2.3098                 1.1984                 1.6569
 IR Inten    --     11.7774                33.8416                 9.5727

                     28                     29                     30
                      A                      A                      A
 Frequencies --   1201.2021              1248.4427              1254.1848
 Red. masses --      2.0045                 1.3188                 1.3380
 Frc consts  --      1.7041                 1.2111                 1.2400
 IR Inten    --      6.9000                 2.3512                 3.1932

                     31                     32                     33
                      A                      A                      A
 Frequencies --   1272.4078              1302.7159              1335.6570
 Red. masses --      1.3853                 1.4760                 1.3147
 Frc consts  --      1.3214                 1.4758                 1.3819
 IR Inten    --      4.3683                 4.6073                16.8818

                     34                     35                     36
                      A                      A                      A
 Frequencies --   1363.5949              1396.8256              1408.7918
 Red. masses --      1.3332                 1.2364                 1.2668
 Frc consts  --      1.4606                 1.4213                 1.4813
 IR Inten    --     28.8646                 8.1328                28.0370

                     37                     38                     39
                      A                      A                      A
 Frequencies --   1417.1637              1489.7902              1492.5773
 Red. masses --      1.4955                 1.0594                 1.1189
 Frc consts  --      1.7696                 1.3854                 1.4686
 IR Inten    --     21.8226                 5.5660                 2.6516

                     40                     41                     42
                      A                      A                      A
 Frequencies --   1494.5720              2234.4483              2981.4978
 Red. masses --      1.0561                 5.9245                 1.0838
 Frc consts  --      1.3899                17.4278                 5.6766
 IR Inten    --      6.2075                 2.5405                54.8102

                     43                     44                     45
                      A                      A                      A
 Frequencies --   3020.8497              3021.3948              3049.4058
 Red. masses --      1.0628                 1.0652                 1.0831
 Frc consts  --      5.7141                 5.7291                 5.9341
 IR Inten    --     31.3478                21.9131                30.7044

                     46                     47                     48
                      A                      A                      A
 Frequencies --   3094.8727              3099.0585              3129.1901
 Red. masses --      1.0594                 1.0924                 1.1025
 Frc consts  --      5.9787                 6.1814                 6.3606
 IR Inten    --     17.7596                26.4395                13.8130

                     49                     50                     51
                      A                      A                      A
 Frequencies --   3154.3316              3502.7833              3797.0120
 Red. masses --      1.1095                 1.1624                 1.0659
 Frc consts  --      6.5043                 8.4027                 9.0541
 IR Inten    --     13.0802                62.9064                16.0790

 - Thermochemistry -
 -------------------
 Temperature   298.150 Kelvin.  Pressure   1.00000 Atm.
 Atom     1 has atomic number  6 and mass  12.00000

 Molecular mass:   126.06808 amu.
 Principal axes and moments of inertia in atomic units:
                           1         2         3
     Eigenvalues --   598.910481893.256991965.31488
           X            0.99971  -0.02024  -0.01266
           Y            0.01845   0.99160  -0.12805
           Z            0.01515   0.12778   0.99169
 This molecule is an asymmetric top.
 Rotational symmetry number  1.
 Warning -- assumption of classical behavior for rotation
           may cause significant error
 Rotational temperatures (Kelvin)      0.14462     0.04575     0.04407
 Rotational constants (GHZ):           3.01337     0.95325     0.91830
 Zero-point vibrational energy     410673.1 (Joules/Mol)
                                   98.15322 (Kcal/Mol)
 Warning -- explicit consideration of  14 degrees of freedom as
           vibrations may cause significant error
 Vibrational temperatures:     47.32    97.81   242.85   284.45   313.95
          (Kelvin)            342.50   407.82   460.09   511.28   653.33
                              688.24   728.38   783.96   889.43   965.65
                             1065.20  1176.64  1267.53  1315.65  1395.46
                             1412.30  1462.89  1471.82  1544.67  1561.38
                             1595.79  1623.76  1728.26  1796.23  1804.49
                             1830.71  1874.32  1921.71  1961.91  2009.72
                             2026.93  2038.98  2143.47  2147.48  2150.35
                             3214.87  4289.71  4346.32  4347.11  4387.41
                             4452.83  4458.85  4502.20  4538.37  5039.72
                             5463.05

 Zero-point correction=                           0.156417 (Hartree/Particle)
 Thermal correction to Energy=                    0.166164
 Thermal correction to Enthalpy=                  0.167108
 Thermal correction to Gibbs Free Energy=         0.121048
 Sum of electronic and zero-point Energies=           -422.971181
 Sum of electronic and thermal Energies=              -422.961433
 Sum of electronic and thermal Enthalpies=            -422.960489
 Sum of electronic and thermal Free Energies=         -423.006549

                     E (Thermal)             CV                S
                      KCal/Mol        Cal/Mol-Kelvin    Cal/Mol-Kelvin
 Total                  104.270             35.741             96.942
 Electronic               0.000              0.000              0.000
 Translational            0.889              2.981             40.409
 Rotational               0.889              2.981             29.190
 Vibrational            102.492             29.779             27.343
 Vibration     1          0.594              1.983              5.647
 Vibration     2          0.598              1.969              4.211
 Vibration     3          0.625              1.881              2.449
 Vibration     4          0.637              1.843              2.154
 Vibration     5          0.646              1.813              1.974
 Vibration     6          0.656              1.782              1.817
 Vibration     7          0.682              1.704              1.513
 Vibration     8          0.706              1.636              1.311
 Vibration     9          0.731              1.564              1.142
 Vibration    10          0.813              1.352              0.784
 Vibration    11          0.835              1.298              0.715
 Vibration    12          0.861              1.236              0.643
 Vibration    13          0.900              1.151              0.555
 Vibration    14          0.978              0.993              0.419

 Normal termination of Gaussian 09 at Mon Jan 27 16:13:27 2020.
