 Gaussian 09, Revision D.01,
 Gaussian 09:  ES64L-G09RevD.01 24-Apr-2013

 -----------------------------
 # b3lyp 6-31G(2df,p) opt Freq
 -----------------------------

 -----
 titel
 -----
 Symbolic Z-matrix:
 Charge =  0 Multiplicity = 1

 SCF Done:  E(RB3LYP) =  -423.214215343     A.U. after   14 cycles
 Optimization completed.
    -- Stationary point found.
 Normal termination of Gaussian 09 at Tue Jan 28 14:14:19 2020.

 ----------------------------------------------------------------------
 #N Geom=AllCheck Guess=TCheck SCRF=Check GenChk RB3LYP/6-31G(2df,p) Fr
 eq
 ----------------------------------------------------------------------

 Structure from the checkpoint file:  "/scratch/puck/g09_f5859aa4-41ed-4f20-bff2-4e2f564f1e61/Gau-121232.chk"
 -----
 titel
 -----
 Charge =  0 Multiplicity = 1

                         Standard orientation:
 ---------------------------------------------------------------------
 Center     Atomic      Atomic             Coordinates (Angstroms)
 Number     Number       Type             X           Y           Z
 ---------------------------------------------------------------------
      1          6           0        3.614170   -0.190988   -0.473084
      2          6           0        2.346125   -0.444254    0.323594
      3          8           0        1.329577    0.411964   -0.170610
      4          6           0        0.106702    0.319592    0.530340
      5          6           0       -0.746338   -0.929209    0.212945
      6          6           0       -2.145596   -0.383096   -0.115808
      7          8           0       -3.150140   -1.037545   -0.260127
      8          6           0       -2.015424    1.092701   -0.214206
      9          6           0       -0.778467    1.473014    0.116473
     10          1           0        3.928315    0.851779   -0.373686
     11          1           0        4.423041   -0.834650   -0.114912
     12          1           0        3.448812   -0.399275   -1.533857
     13          1           0        2.039882   -1.498543    0.233780
     14          1           0        2.512952   -0.246316    1.395892
     15          1           0        0.306186    0.383447    1.614803
     16          1           0       -0.347365   -1.423133   -0.679373
     17          1           0       -0.800549   -1.670341    1.013229
     18          1           0       -2.840127    1.728543   -0.510081
     19          1           0       -0.393668    2.486585    0.118573
 ---------------------------------------------------------------------

 SCF Done:  E(RB3LYP) =  -423.214215343     A.U. after    1 cycles

 The electronic state is 1-A.
 Alpha  occ. eigenvalues --  -19.14823 -19.12290 -10.26549 -10.25041 -10.23608
 Alpha  occ. eigenvalues --  -10.21330 -10.19763 -10.19018 -10.18180  -1.04337
 Alpha  occ. eigenvalues --   -1.03304  -0.85097  -0.76258  -0.72765  -0.67693
 Alpha  occ. eigenvalues --   -0.61511  -0.57686  -0.54032  -0.51091  -0.49882
 Alpha  occ. eigenvalues --   -0.46656  -0.44444  -0.43158  -0.41407  -0.40826
 Alpha  occ. eigenvalues --   -0.39538  -0.38888  -0.36385  -0.36265  -0.35814
 Alpha  occ. eigenvalues --   -0.32321  -0.28515  -0.26742  -0.23904
 Alpha virt. eigenvalues --   -0.04884   0.04921   0.08708   0.11003   0.11938
 Alpha virt. eigenvalues --    0.12661   0.13570   0.15555   0.16131   0.16459
 Alpha virt. eigenvalues --    0.17068   0.18137   0.19172   0.19779   0.21443

 Mulliken charges:
               1
     1  C   -0.385844
     2  C   -0.036299
     3  O   -0.260041
     4  C    0.085889
     5  C   -0.357018
     6  C    0.377112
     7  O   -0.323172
     8  C   -0.183597
     9  C   -0.069771
    10  H    0.127408
    11  H    0.117613
    12  H    0.129624
    13  H    0.093430
    14  H    0.088419
    15  H    0.082374
    16  H    0.142909
    17  H    0.125937
    18  H    0.120965
    19  H    0.124062
 Sum of Mulliken charges =   0.00000

 Dipole moment (field-independent basis, Debye):
    X=              2.8668    Y=              1.1443    Z=              1.1313  Tot=              3.2875
 Quadrupole moment (field-independent basis, Debye-Ang):
   XX=            -61.4480   YY=            -51.8175   ZZ=            -52.5787
   XY=             -7.6428   XZ=              0.1304   YZ=             -0.2541

  Exact polarizability: 104.929   3.262  76.871   5.505  -0.399  57.610
 Approx polarizability: 145.015  17.925 117.659  11.927   1.495  90.214

                      1                      2                      3
                      A                      A                      A
 Frequencies --     51.5136                88.0536                94.0305
 Red. masses --      3.2018                 2.8255                 2.1152
 Frc consts  --      0.0050                 0.0129                 0.0110
 IR Inten    --      2.1313                 1.4918                 1.7947

                      4                      5                      6
                      A                      A                      A
 Frequencies --    156.4110               243.3433               280.6406
 Red. masses --      3.8093                 1.2203                 3.2177
 Frc consts  --      0.0549                 0.0426                 0.1493
 IR Inten    --      4.4420                 0.5086                 0.2784

                      7                      8                      9
                      A                      A                      A
 Frequencies --    325.5039               400.2046               453.8005
 Red. masses --      3.7490                 4.6485                 1.9978
 Frc consts  --      0.2340                 0.4387                 0.2424
 IR Inten    --      3.2560                 4.3937                 1.7652

                     10                     11                     12
                      A                      A                      A
 Frequencies --    493.1483               573.9062               665.5399
 Red. masses --      3.0977                 3.8796                 4.2511
 Frc consts  --      0.4439                 0.7529                 1.1094
 IR Inten    --      2.7054                 0.6084                 4.6643

                     13                     14                     15
                      A                      A                      A
 Frequencies --    747.0834               811.6077               822.7710
 Red. masses --      4.3230                 1.3817                 1.0996
 Frc consts  --      1.4216                 0.5362                 0.4386
 IR Inten    --      2.5123                17.6581                 1.3587

                     16                     17                     18
                      A                      A                      A
 Frequencies --    827.5472               863.9478               909.1795
 Red. masses --      3.4091                 2.3314                 2.3873
 Frc consts  --      1.3755                 1.0253                 1.1627
 IR Inten    --      7.1671                 4.8366                 9.0904

                     19                     20                     21
                      A                      A                      A
 Frequencies --    983.0162              1002.3556              1046.8192
 Red. masses --      2.3425                 1.3298                 2.5680
 Frc consts  --      1.3337                 0.7872                 1.6580
 IR Inten    --     10.0102                 2.9696                17.4219

                     22                     23                     24
                      A                      A                      A
 Frequencies --   1054.6311              1100.3324              1140.5731
 Red. masses --      2.2615                 1.4188                 2.0498
 Frc consts  --      1.4820                 1.0121                 1.5711
 IR Inten    --      6.4110                14.2554               103.8815

                     25                     26                     27
                      A                      A                      A
 Frequencies --   1154.3691              1164.1507              1186.0522
 Red. masses --      2.7244                 2.4560                 1.6437
 Frc consts  --      2.1390                 1.9611                 1.3623
 IR Inten    --     82.6452                34.4175                24.8826

                     28                     29                     30
                      A                      A                      A
 Frequencies --   1197.6304              1244.4989              1298.0075
 Red. masses --      1.7017                 1.5845                 1.1014
 Frc consts  --      1.4381                 1.4459                 1.0933
 IR Inten    --     62.5142                 9.9453                 1.6186

                     31                     32                     33
                      A                      A                      A
 Frequencies --   1319.9366              1344.5030              1367.0142
 Red. masses --      1.6817                 1.3371                 1.5388
 Frc consts  --      1.7263                 1.4241                 1.6942
 IR Inten    --     20.2927                27.0355                75.9847

                     34                     35                     36
                      A                      A                      A
 Frequencies --   1402.9695              1434.4279              1448.3881
 Red. masses --      1.2404                 1.3132                 1.1799
 Frc consts  --      1.4384                 1.5920                 1.4584
 IR Inten    --      3.0702                 6.2158                 6.6511

                     37                     38                     39
                      A                      A                      A
 Frequencies --   1483.4034              1499.4041              1528.6998
 Red. masses --      1.0403                 1.0457                 1.0883
 Frc consts  --      1.3487                 1.3851                 1.4985
 IR Inten    --      4.4573                 2.2000                 3.0311

                     40                     41                     42
                      A                      A                      A
 Frequencies --   1656.2173              1820.6143              2942.1215
 Red. masses --      6.7459                12.3892                 1.0805
 Frc consts  --     10.9024                24.1952                 5.5104
 IR Inten    --     10.6027               294.0768                30.2489

                     43                     44                     45
                      A                      A                      A
 Frequencies --   2962.0183              2993.9203              3046.1364
 Red. masses --      1.0588                 1.1017                 1.0347
 Frc consts  --      5.4731                 5.8181                 5.6565
 IR Inten    --     58.1258                40.3388                17.2875

                     46                     47                     48
                      A                      A                      A
 Frequencies --   3062.5154              3118.7310              3120.9745
 Red. masses --      1.0620                 1.1016                 1.1015
 Frc consts  --      5.8683                 6.3130                 6.3214
 IR Inten    --      3.5432                 6.3703                24.1135

                     49                     50                     51
                      A                      A                      A
 Frequencies --   3123.2609              3200.1034              3228.8088
 Red. masses --      1.1028                 1.0877                 1.1042
 Frc consts  --      6.3380                 6.5625                 6.7826
 IR Inten    --     24.1269                 3.3669                 5.3432

 - Thermochemistry -
 -------------------
 Temperature   298.150 Kelvin.  Pressure   1.00000 Atm.
 Atom     1 has atomic number  6 and mass  12.00000

 Molecular mass:   126.06808 amu.
 Principal axes and moments of inertia in atomic units:
                           1         2         3
     Eigenvalues --   405.864192189.226322457.93854
           X            0.99982  -0.01868  -0.00298
           Y            0.01864   0.99974  -0.01282
           Z            0.00322   0.01276   0.99991
 This molecule is an asymmetric top.
 Rotational symmetry number  1.
 Rotational temperatures (Kelvin)      0.21341     0.03956     0.03524
 Rotational constants (GHZ):           4.44666     0.82437     0.73425
 Zero-point vibrational energy     415611.6 (Joules/Mol)
                                   99.33356 (Kcal/Mol)
 Warning -- explicit consideration of  11 degrees of freedom as
           vibrations may cause significant error
 Vibrational temperatures:     74.12   126.69   135.29   225.04   350.12
          (Kelvin)            403.78   468.33   575.80   652.92   709.53
                              825.72   957.56  1074.89  1167.72  1183.78
                             1190.65  1243.03  1308.10  1414.34  1442.16
                             1506.14  1517.38  1583.13  1641.03  1660.88
                             1674.95  1706.46  1723.12  1790.55  1867.54
                             1899.09  1934.44  1966.83  2018.56  2063.82
                             2083.90  2134.28  2157.31  2199.46  2382.92
                             2619.45  4233.05  4261.68  4307.58  4382.71
                             4406.27  4487.15  4490.38  4493.67  4604.23
                             4645.53

 Zero-point correction=                           0.158298 (Hartree/Particle)
 Thermal correction to Energy=                    0.167305
 Thermal correction to Enthalpy=                  0.168249
 Thermal correction to Gibbs Free Energy=         0.123561
 Sum of electronic and zero-point Energies=           -423.055917
 Sum of electronic and thermal Energies=              -423.046910
 Sum of electronic and thermal Enthalpies=            -423.045966
 Sum of electronic and thermal Free Energies=         -423.090655

                     E (Thermal)             CV                S
                      KCal/Mol        Cal/Mol-Kelvin    Cal/Mol-Kelvin
 Total                  104.986             32.681             94.056
 Electronic               0.000              0.000              0.000
 Translational            0.889              2.981             40.409
 Rotational               0.889              2.981             29.170
 Vibrational            103.208             26.720             24.477
 Vibration     1          0.596              1.977              4.758
 Vibration     2          0.601              1.958              3.703
 Vibration     3          0.603              1.953              3.574
 Vibration     4          0.620              1.895              2.593
 Vibration     5          0.659              1.774              1.778
 Vibration     6          0.680              1.709              1.530
 Vibration     7          0.710              1.624              1.282
 Vibration     8          0.766              1.470              0.962
 Vibration     9          0.812              1.352              0.784
 Vibration    10          0.849              1.265              0.675
 Vibration    11          0.930              1.088              0.497

 Optimization completed.
    -- Stationary point found.
 Normal termination of Gaussian 09 at Tue Jan 28 14:50:00 2020.
