 Gaussian 09, Revision D.01,
 Gaussian 09:  ES64L-G09RevD.01 24-Apr-2013

 -----------------------------
 # b3lyp 6-31G(2df,p) opt Freq
 -----------------------------

 -----
 titel
 -----
 Symbolic Z-matrix:
 Charge =  0 Multiplicity = 1

 SCF Done:  E(RB3LYP) =  -423.119852518     A.U. after   12 cycles
 Optimization completed.
    -- Stationary point found.
 Normal termination of Gaussian 09 at Mon Jan 27 12:00:18 2020.

 ----------------------------------------------------------------------
 #N Geom=AllCheck Guess=TCheck SCRF=Check GenChk RB3LYP/6-31G(2df,p) Fr
 eq
 ----------------------------------------------------------------------

 Structure from the checkpoint file:  "/scratch/puck/g09_a54f2b0f-7d54-4bad-a18c-65fbc88fb2db/Gau-24304.chk"
 -----
 titel
 -----
 Charge =  0 Multiplicity = 1

                         Standard orientation:
 ---------------------------------------------------------------------
 Center     Atomic      Atomic             Coordinates (Angstroms)
 Number     Number       Type             X           Y           Z
 ---------------------------------------------------------------------
      1          6           0       -1.766268   -1.066524    0.762214
      2          6           0       -1.766206   -1.066615   -0.762206
      3          6           0       -1.002338   -0.034905   -0.000033
      4          8           0       -1.398444    1.337563   -0.000117
      5          6           0       -0.017163    1.761102    0.000127
      6          6           0        0.483734    0.306721    0.000045
      7          6           0        1.485918   -0.235040   -1.034259
      8          8           0        2.364971   -0.720348   -0.000045
      9          6           0        1.485911   -0.235228    1.034246
     10          1           0       -2.668076   -0.732127    1.263613
     11          1           0       -1.221372   -1.850885    1.277938
     12          1           0       -1.221259   -1.851032   -1.277790
     13          1           0       -2.667975   -0.732289   -1.263722
     14          1           0        0.232676    2.344237   -0.894898
     15          1           0        0.232424    2.344011    0.895374
     16          1           0        1.113619   -1.044139   -1.675562
     17          1           0        1.966312    0.526086   -1.663491
     18          1           0        1.113608   -1.044442    1.675401
     19          1           0        1.966299    0.525783    1.663624
 ---------------------------------------------------------------------

 SCF Done:  E(RB3LYP) =  -423.119852518     A.U. after    1 cycles

 The electronic state is 1-A.
 Alpha  occ. eigenvalues --  -19.13934 -19.13554 -10.24506 -10.23676 -10.23489
 Alpha  occ. eigenvalues --  -10.23489 -10.20825 -10.18927 -10.18905  -1.05134
 Alpha  occ. eigenvalues --   -1.03871  -0.85165  -0.76881  -0.69797  -0.65986
 Alpha  occ. eigenvalues --   -0.61021  -0.60899  -0.52832  -0.51913  -0.50717
 Alpha  occ. eigenvalues --   -0.48250  -0.47076  -0.43068  -0.42585  -0.41031
 Alpha  occ. eigenvalues --   -0.37589  -0.37343  -0.37048  -0.35157  -0.32501
 Alpha  occ. eigenvalues --   -0.29434  -0.28715  -0.25278  -0.23360
 Alpha virt. eigenvalues --    0.05865   0.08016   0.08562   0.10486   0.11360
 Alpha virt. eigenvalues --    0.11395   0.11843   0.13908   0.14346   0.17629
 Alpha virt. eigenvalues --    0.18169   0.18826   0.19786   0.20915   0.24203

 Mulliken charges:
               1
     1  C   -0.337773
     2  C   -0.337772
     3  C    0.414125
     4  O   -0.314648
     5  C   -0.137735
     6  C    0.129742
     7  C   -0.133505
     8  O   -0.274212
     9  C   -0.133519
    10  H    0.128508
    11  H    0.119116
    12  H    0.119118
    13  H    0.128509
    14  H    0.106813
    15  H    0.106809
    16  H    0.105632
    17  H    0.102581
    18  H    0.105630
    19  H    0.102581
 Sum of Mulliken charges =   0.00000

 Dipole moment (field-independent basis, Debye):
    X=             -0.2155    Y=              0.0609    Z=              0.0003  Tot=              0.2240
 Quadrupole moment (field-independent basis, Debye-Ang):
   XX=            -60.3748   YY=            -53.3633   ZZ=            -50.2594
   XY=              5.6090   XZ=              0.0000   YZ=              0.0003

  Exact polarizability:  76.938   6.032  74.185   0.000   0.000  73.184
 Approx polarizability: 104.295   4.388 106.732   0.000   0.000 107.729

                      1                      2                      3
                      A                      A                      A
 Frequencies --     61.2354                69.5854               184.6766
 Red. masses --      3.0866                 4.0799                 2.5172
 Frc consts  --      0.0068                 0.0116                 0.0506
 IR Inten    --      3.6866                 5.9149                 0.8074

                      4                      5                      6
                      A                      A                      A
 Frequencies --    232.6137               263.6131               351.3068
 Red. masses --      2.5733                 1.9921                 2.5449
 Frc consts  --      0.0820                 0.0816                 0.1850
 IR Inten    --      0.5436                 0.6558                 3.0196

                      7                      8                      9
                      A                      A                      A
 Frequencies --    394.8140               498.5733               515.0163
 Red. masses --      2.4210                 4.6482                 3.2439
 Frc consts  --      0.2223                 0.6808                 0.5069
 IR Inten    --      2.3643                 0.0603                 1.0011

                     10                     11                     12
                      A                      A                      A
 Frequencies --    568.5471               758.7576               852.0126
 Red. masses --      3.5704                 1.0483                 4.1784
 Frc consts  --      0.6800                 0.3556                 1.7871
 IR Inten    --      1.5004                 1.3670                17.4002

                     13                     14                     15
                      A                      A                      A
 Frequencies --    866.4012               876.1812               879.4049
 Red. masses --      1.3920                 1.9834                 2.7196
 Frc consts  --      0.6156                 0.8971                 1.2392
 IR Inten    --      0.4229                 8.4997                 9.2566

                     16                     17                     18
                      A                      A                      A
 Frequencies --    892.2968               947.2384               968.7572
 Red. masses --      1.4911                 2.3294                 2.8496
 Frc consts  --      0.6995                 1.2314                 1.5756
 IR Inten    --      1.3260                 7.0315                15.5914

                     19                     20                     21
                      A                      A                      A
 Frequencies --    995.2317               997.0892              1022.5303
 Red. masses --      3.9679                 2.0373                 6.9596
 Frc consts  --      2.3156                 1.1934                 4.2873
 IR Inten    --     15.3102                 3.0022                67.5940

                     22                     23                     24
                      A                      A                      A
 Frequencies --   1040.7560              1048.1896              1069.3009
 Red. masses --     11.3433                 1.5464                 1.4821
 Frc consts  --      7.2392                 1.0010                 0.9985
 IR Inten    --     90.1730                40.0061                 0.1094

                     25                     26                     27
                      A                      A                      A
 Frequencies --   1143.3230              1145.8661              1154.5341
 Red. masses --      1.6218                 1.5039                 1.0712
 Frc consts  --      1.2491                 1.1634                 0.8413
 IR Inten    --      2.3034                 2.4234                 0.0203

                     28                     29                     30
                      A                      A                      A
 Frequencies --   1173.5423              1184.0318              1193.2042
 Red. masses --      1.7054                 1.4300                 1.6398
 Frc consts  --      1.3838                 1.1812                 1.3755
 IR Inten    --     10.7897                 0.6050                 1.7630

                     31                     32                     33
                      A                      A                      A
 Frequencies --   1234.2359              1237.7167              1303.2239
 Red. masses --      2.5616                 2.5403                 1.2892
 Frc consts  --      2.2991                 2.2928                 1.2900
 IR Inten    --     21.0850                16.4242                 1.3852

                     34                     35                     36
                      A                      A                      A
 Frequencies --   1351.1700              1372.2967              1402.7053
 Red. masses --      1.7362                 1.5116                 2.4445
 Frc consts  --      1.8675                 1.6772                 2.8339
 IR Inten    --     12.9212                 3.7716                 3.2518

                     37                     38                     39
                      A                      A                      A
 Frequencies --   1446.1839              1492.4924              1503.0041
 Red. masses --      1.0898                 1.5200                 1.0780
 Frc consts  --      1.3429                 1.9948                 1.4348
 IR Inten    --      2.2777                20.1497                 0.1492

                     40                     41                     42
                      A                      A                      A
 Frequencies --   1521.7968              1530.6192              2997.9928
 Red. masses --      1.2002                 1.1252                 1.0524
 Frc consts  --      1.6376                 1.5531                 5.5728
 IR Inten    --      2.8872                 0.6759               108.8378

                     43                     44                     45
                      A                      A                      A
 Frequencies --   3009.3730              3013.4377              3046.9730
 Red. masses --      1.0575                 1.0555                 1.1081
 Frc consts  --      5.6427                 5.6472                 6.0613
 IR Inten    --      7.0571                58.7028                 3.0585

                     46                     47                     48
                      A                      A                      A
 Frequencies --   3047.8935              3059.3656              3127.1056
 Red. masses --      1.1117                 1.1112                 1.0506
 Frc consts  --      6.0845                 6.1281                 6.0528
 IR Inten    --     84.7123                36.2189                12.9026

                     49                     50                     51
                      A                      A                      A
 Frequencies --   3129.1981              3211.1301              3225.0887
 Red. masses --      1.0580                 1.1177                 1.1150
 Frc consts  --      6.1038                 6.7904                 6.8331
 IR Inten    --      3.2357                 0.0743                 8.5819

 - Thermochemistry -
 -------------------
 Temperature   298.150 Kelvin.  Pressure   1.00000 Atm.
 Atom     1 has atomic number  6 and mass  12.00000

 Molecular mass:   126.06808 amu.
 Principal axes and moments of inertia in atomic units:
                           1         2         3
     Eigenvalues --   657.700861252.377621488.85568
           X            0.99847   0.05523   0.00000
           Y           -0.05523   0.99847   0.00000
           Z            0.00000   0.00000   1.00000
 This molecule is an asymmetric top.
 Rotational symmetry number  1.
 Warning -- assumption of classical behavior for rotation
           may cause significant error
 Rotational temperatures (Kelvin)      0.13169     0.06916     0.05817
 Rotational constants (GHZ):           2.74402     1.44105     1.21217
 Zero-point vibrational energy     416370.0 (Joules/Mol)
                                   99.51483 (Kcal/Mol)
 Warning -- explicit consideration of  10 degrees of freedom as
           vibrations may cause significant error
 Vibrational temperatures:     88.10   100.12   265.71   334.68   379.28
          (Kelvin)            505.45   568.05   717.33   740.99   818.01
                             1091.68  1225.85  1246.56  1260.63  1265.27
                             1283.81  1362.86  1393.82  1431.91  1434.59
                             1471.19  1497.41  1508.11  1538.48  1644.98
                             1648.64  1661.11  1688.46  1703.56  1716.75
                             1775.79  1780.80  1875.05  1944.03  1974.43
                             2018.18  2080.73  2147.36  2162.49  2189.52
                             2202.22  4313.44  4329.81  4335.66  4383.91
                             4385.23  4401.74  4499.20  4502.21  4620.09
                             4640.18

 Zero-point correction=                           0.158587 (Hartree/Particle)
 Thermal correction to Energy=                    0.166761
 Thermal correction to Enthalpy=                  0.167706
 Thermal correction to Gibbs Free Energy=         0.125159
 Sum of electronic and zero-point Energies=           -422.961266
 Sum of electronic and thermal Energies=              -422.953091
 Sum of electronic and thermal Enthalpies=            -422.952147
 Sum of electronic and thermal Free Energies=         -422.994693

                     E (Thermal)             CV                S
                      KCal/Mol        Cal/Mol-Kelvin    Cal/Mol-Kelvin
 Total                  104.644             30.874             89.546
 Electronic               0.000              0.000              0.000
 Translational            0.889              2.981             40.409
 Rotational               0.889              2.981             28.596
 Vibrational            102.867             24.912             20.541
 Vibration     1          0.597              1.973              4.417
 Vibration     2          0.598              1.969              4.165
 Vibration     3          0.631              1.861              2.281
 Vibration     4          0.653              1.791              1.859
 Vibration     5          0.670              1.740              1.638
 Vibration     6          0.728              1.573              1.160
 Vibration     7          0.762              1.481              0.982
 Vibration     8          0.854              1.253              0.662
 Vibration     9          0.870              1.217              0.622
 Vibration    10          0.925              1.099              0.507

 Normal termination of Gaussian 09 at Mon Jan 27 12:50:08 2020.
