 Gaussian 09, Revision D.01,
 Gaussian 09:  ES64L-G09RevD.01 24-Apr-2013

 -----------------------------
 # b3lyp 6-31G(2df,p) opt Freq
 -----------------------------

 -----
 titel
 -----
 Symbolic Z-matrix:
 Charge =  0 Multiplicity = 1

 SCF Done:  E(RB3LYP) =  -423.152335474     A.U. after   13 cycles
 SCF Done:  E(RB3LYP) =  -423.152335381     A.U. after    7 cycles
 SCF Done:  E(RB3LYP) =  -423.152335499     A.U. after    6 cycles
 SCF Done:  E(RB3LYP) =  -423.152335495     A.U. after    6 cycles
 Optimization completed.
    -- Stationary point found.
 Normal termination of Gaussian 09 at Tue Jan 28 08:22:56 2020.

 ----------------------------------------------------------------------
 #N Geom=AllCheck Guess=TCheck SCRF=Check GenChk RB3LYP/6-31G(2df,p) Fr
 eq
 ----------------------------------------------------------------------

 Structure from the checkpoint file:  "/scratch/puck/g09_4a9b7be6-657a-4088-97e4-6f0d91cf3606/Gau-126893.chk"
 -----
 titel
 -----
 Charge =  0 Multiplicity = 1

                         Standard orientation:
 ---------------------------------------------------------------------
 Center     Atomic      Atomic             Coordinates (Angstroms)
 Number     Number       Type             X           Y           Z
 ---------------------------------------------------------------------
      1          6           0        2.370043   -1.144671   -0.594900
      2          6           0        1.298364   -0.646228    0.371003
      3          8           0        1.580339    0.669645    0.856163
      4          6           0        0.958995    1.586096   -0.019751
      5          8           0        0.016072    0.874819   -0.800868
      6          6           0       -0.078648   -0.446946   -0.283759
      7          6           0       -1.238196   -0.592514    0.724414
      8          6           0       -2.538651   -0.269758    0.154640
      9          6           0       -3.608770   -0.017022   -0.329691
     10          1           0        2.184310   -2.187737   -0.871688
     11          1           0        2.379124   -0.544500   -1.510015
     12          1           0        3.356278   -1.081971   -0.127570
     13          1           0        1.245806   -1.295962    1.250600
     14          1           0        0.473031    2.362592    0.587625
     15          1           0        1.684106    2.053958   -0.702740
     16          1           0       -0.242310   -1.115830   -1.133657
     17          1           0       -1.245014   -1.625652    1.096773
     18          1           0       -1.031327    0.049777    1.589486
     19          1           0       -4.554117    0.215876   -0.752913
 ---------------------------------------------------------------------

 SCF Done:  E(RB3LYP) =  -423.152335495     A.U. after    1 cycles

 The electronic state is 1-A.
 Alpha  occ. eigenvalues --  -19.14925 -19.14825 -10.27486 -10.24492 -10.24303
 Alpha  occ. eigenvalues --  -10.20990 -10.18255 -10.17870 -10.16766  -1.08971
 Alpha  occ. eigenvalues --   -0.99605  -0.81267  -0.76885  -0.71665  -0.68180
 Alpha  occ. eigenvalues --   -0.61748  -0.60791  -0.52670  -0.51445  -0.50563
 Alpha  occ. eigenvalues --   -0.46409  -0.45737  -0.44969  -0.42771  -0.41621
 Alpha  occ. eigenvalues --   -0.40045  -0.38683  -0.37757  -0.33702  -0.33102
 Alpha  occ. eigenvalues --   -0.28587  -0.26234  -0.25845  -0.24976
 Alpha virt. eigenvalues --    0.05147   0.05898   0.08971   0.11350   0.11746
 Alpha virt. eigenvalues --    0.11857   0.13297   0.13976   0.14385   0.16232
 Alpha virt. eigenvalues --    0.16628   0.17249   0.18636   0.18825   0.20672

 Mulliken charges:
               1
     1  C   -0.418069
     2  C    0.106984
     3  O   -0.267494
     4  C    0.017812
     5  O   -0.260904
     6  C    0.105277
     7  C   -0.388274
     8  C    0.303761
     9  C   -0.435536
    10  H    0.117539
    11  H    0.131978
    12  H    0.128164
    13  H    0.089105
    14  H    0.107258
    15  H    0.100661
    16  H    0.097898
    17  H    0.128419
    18  H    0.140943
    19  H    0.194478
 Sum of Mulliken charges =   0.00000

 Dipole moment (field-independent basis, Debye):
    X=              0.6531    Y=             -1.1140    Z=              0.0772  Tot=              1.2936
 Quadrupole moment (field-independent basis, Debye-Ang):
   XX=            -52.4895   YY=            -50.4315   ZZ=            -54.7149
   XY=             -1.3194   XZ=             -0.8072   YZ=             -0.3536

  Exact polarizability:  97.537  -3.957  71.302   5.158  -1.445  61.793
 Approx polarizability: 129.913  -7.095 102.287  16.892  -4.311  97.781

                      1                      2                      3
                      A                      A                      A
 Frequencies --     32.2109                62.3827               118.4600
 Red. masses --      2.3928                 3.7055                 4.2732
 Frc consts  --      0.0015                 0.0085                 0.0353
 IR Inten    --      8.3130                 1.8124                 0.0901

                      4                      5                      6
                      A                      A                      A
 Frequencies --    128.1109               225.9290               257.5448
 Red. masses --      3.3106                 1.2656                 2.4021
 Frc consts  --      0.0320                 0.0381                 0.0939
 IR Inten    --      0.4635                 0.6056                 2.4019

                      7                      8                      9
                      A                      A                      A
 Frequencies --    294.1793               345.7758               363.8719
 Red. masses --      3.4601                 3.6211                 3.2368
 Frc consts  --      0.1764                 0.2551                 0.2525
 IR Inten    --      0.2408                 3.4247                 2.4916

                     10                     11                     12
                      A                      A                      A
 Frequencies --    469.9874               554.0393               618.3654
 Red. masses --      3.6373                 3.3657                 1.2039
 Frc consts  --      0.4734                 0.6087                 0.2712
 IR Inten    --      6.9025                 5.5585                41.4942

                     13                     14                     15
                      A                      A                      A
 Frequencies --    637.4442               740.3365               754.0968
 Red. masses --      1.2153                 5.2495                 3.0382
 Frc consts  --      0.2909                 1.6952                 1.0179
 IR Inten    --     44.2366                 1.5819                 1.0813

                     16                     17                     18
                      A                      A                      A
 Frequencies --    844.6865               867.7318               927.8441
 Red. masses --      2.7502                 3.3179                 2.4971
 Frc consts  --      1.1561                 1.4719                 1.2666
 IR Inten    --      6.9736                17.3955                 2.2081

                     19                     20                     21
                      A                      A                      A
 Frequencies --    958.0827               991.1230              1023.3113
 Red. masses --      3.0732                 3.5391                 2.7670
 Frc consts  --      1.6621                 2.0483                 1.7071
 IR Inten    --      8.2701                51.5823                13.4744

                     22                     23                     24
                      A                      A                      A
 Frequencies --   1037.4580              1076.8391              1084.7600
 Red. masses --      2.2242                 3.1480                 2.1812
 Frc consts  --      1.4105                 2.1507                 1.5122
 IR Inten    --     15.5034                47.5815                22.9037

                     25                     26                     27
                      A                      A                      A
 Frequencies --   1141.2688              1155.0909              1159.1336
 Red. masses --      2.2625                 2.0688                 1.9472
 Frc consts  --      1.7363                 1.6263                 1.5414
 IR Inten    --     11.7260                97.0568                81.9379

                     28                     29                     30
                      A                      A                      A
 Frequencies --   1206.3943              1236.4633              1269.9654
 Red. masses --      1.2098                 1.2221                 1.2827
 Frc consts  --      1.0374                 1.1008                 1.2188
 IR Inten    --     42.7259                 5.9760                 9.0093

                     31                     32                     33
                      A                      A                      A
 Frequencies --   1319.5861              1342.9387              1368.1638
 Red. masses --      1.4320                 1.4603                 1.2046
 Frc consts  --      1.4692                 1.5516                 1.3285
 IR Inten    --      0.8386                 4.1689                 7.5829

                     34                     35                     36
                      A                      A                      A
 Frequencies --   1398.4575              1406.3933              1437.9386
 Red. masses --      1.3209                 1.3297                 1.2775
 Frc consts  --      1.5220                 1.5496                 1.5564
 IR Inten    --      7.9446                10.0878                 6.0000

                     37                     38                     39
                      A                      A                      A
 Frequencies --   1465.4917              1489.8723              1495.7155
 Red. masses --      1.0942                 1.0513                 1.0528
 Frc consts  --      1.3846                 1.3750                 1.3877
 IR Inten    --      3.0086                 3.1235                 1.3047

                     40                     41                     42
                      A                      A                      A
 Frequencies --   1560.7433              2242.4047              2982.6852
 Red. masses --      1.0946                 5.9271                 1.0561
 Frc consts  --      1.5709                17.5599                 5.5357
 IR Inten    --      4.1257                 2.8000               115.2271

                     43                     44                     45
                      A                      A                      A
 Frequencies --   3018.1501              3019.9195              3038.9450
 Red. masses --      1.0709                 1.0986                 1.0356
 Frc consts  --      5.7477                 5.9033                 5.6351
 IR Inten    --     24.7369                42.7320                14.4242

                     46                     47                     48
                      A                      A                      A
 Frequencies --   3054.3572              3059.4109              3078.4655
 Red. masses --      1.0957                 1.0871                 1.0897
 Frc consts  --      6.0223                 5.9949                 6.0847
 IR Inten    --      0.8440                23.1856                26.9947

                     49                     50                     51
                      A                      A                      A
 Frequencies --   3111.0612              3123.5121              3508.0674
 Red. masses --      1.1008                 1.1023                 1.1624
 Frc consts  --      6.2775                 6.3365                 8.4284
 IR Inten    --     26.2079                19.6531                66.8102

 - Thermochemistry -
 -------------------
 Temperature   298.150 Kelvin.  Pressure   1.00000 Atm.
 Atom     1 has atomic number  6 and mass  12.00000

 Molecular mass:   126.06808 amu.
 Principal axes and moments of inertia in atomic units:
                           1         2         3
     Eigenvalues --   526.049821744.908461929.52816
           X            0.99980  -0.01606  -0.01176
           Y            0.01621   0.99979   0.01282
           Z            0.01155  -0.01301   0.99985
 This molecule is an asymmetric top.
 Rotational symmetry number  1.
 Warning -- assumption of classical behavior for rotation
           may cause significant error
 Rotational temperatures (Kelvin)      0.16465     0.04964     0.04489
 Rotational constants (GHZ):           3.43074     1.03429     0.93533
 Zero-point vibrational energy     413340.7 (Joules/Mol)
                                   98.79080 (Kcal/Mol)
 Warning -- explicit consideration of  12 degrees of freedom as
           vibrations may cause significant error
 Vibrational temperatures:     46.34    89.75   170.44   184.32   325.06
          (Kelvin)            370.55   423.26   497.49   523.53   676.21
                              797.14   889.69   917.14  1065.18  1084.98
                             1215.31  1248.47  1334.96  1378.47  1426.00
                             1472.31  1492.67  1549.33  1560.73  1642.03
                             1661.92  1667.73  1735.73  1778.99  1827.19
                             1898.59  1932.19  1968.48  2012.07  2023.48
                             2068.87  2108.51  2143.59  2152.00  2245.56
                             3226.32  4291.41  4342.44  4344.99  4372.36
                             4394.53  4401.80  4429.22  4476.12  4494.03
                             5047.32

 Zero-point correction=                           0.157433 (Hartree/Particle)
 Thermal correction to Energy=                    0.166932
 Thermal correction to Enthalpy=                  0.167876
 Thermal correction to Gibbs Free Energy=         0.121859
 Sum of electronic and zero-point Energies=           -422.994902
 Sum of electronic and thermal Energies=              -422.985403
 Sum of electronic and thermal Enthalpies=            -422.984459
 Sum of electronic and thermal Free Energies=         -423.030476

                     E (Thermal)             CV                S
                      KCal/Mol        Cal/Mol-Kelvin    Cal/Mol-Kelvin
 Total                  104.751             33.960             96.851
 Electronic               0.000              0.000              0.000
 Translational            0.889              2.981             40.409
 Rotational               0.889              2.981             28.962
 Vibrational            102.974             27.998             27.481
 Vibration     1          0.594              1.983              5.688
 Vibration     2          0.597              1.972              4.380
 Vibration     3          0.609              1.934              3.125
 Vibration     4          0.611              1.925              2.974
 Vibration     5          0.650              1.802              1.911
 Vibration     6          0.667              1.750              1.678
 Vibration     7          0.689              1.685              1.450
 Vibration     8          0.724              1.584              1.185
 Vibration     9          0.737              1.547              1.106
 Vibration    10          0.827              1.317              0.738
 Vibration    11          0.909              1.131              0.536
 Vibration    12          0.978              0.993              0.419

 Normal termination of Gaussian 09 at Tue Jan 28 09:05:16 2020.
