 Gaussian 09, Revision D.01,
 Gaussian 09:  ES64L-G09RevD.01 24-Apr-2013

 -----------------------------
 # b3lyp 6-31G(2df,p) opt Freq
 -----------------------------

 -----
 titel
 -----
 Symbolic Z-matrix:
 Charge =  0 Multiplicity = 1

 SCF Done:  E(RB3LYP) =  -423.173506585     A.U. after   14 cycles
 Optimization completed.
    -- Stationary point found.
 Normal termination of Gaussian 09 at Tue Jan 28 12:38:09 2020.

 ----------------------------------------------------------------------
 #N Geom=AllCheck Guess=TCheck SCRF=Check GenChk RB3LYP/6-31G(2df,p) Fr
 eq
 ----------------------------------------------------------------------

 Structure from the checkpoint file:  "/scratch/puck/g09_972e9cc2-e022-472c-be78-07c0eacc0f97/Gau-1448.chk"
 -----
 titel
 -----
 Charge =  0 Multiplicity = 1

                         Standard orientation:
 ---------------------------------------------------------------------
 Center     Atomic      Atomic             Coordinates (Angstroms)
 Number     Number       Type             X           Y           Z
 ---------------------------------------------------------------------
      1          6           0        0.598405    1.954890   -0.518246
      2          6           0       -0.085293    0.733063    0.028206
      3          6           0       -1.384050    0.796708    0.860543
      4          6           0       -1.903137   -0.400475    0.019337
      5          8           0       -2.983338   -0.906215   -0.096881
      6          6           0       -0.616964   -0.517331   -0.734448
      7          6           0        0.542423   -0.602391    0.264349
      8          6           0        1.901777   -0.928444   -0.319295
      9          8           0        2.964758   -0.520242    0.525867
     10          1           0        1.397966    1.704505   -1.221240
     11          1           0       -0.112989    2.599101   -1.045938
     12          1           0        1.035625    2.551129    0.292504
     13          1           0       -1.289045    0.662510    1.942350
     14          1           0       -1.994607    1.683119    0.660768
     15          1           0       -0.484974   -0.833386   -1.763163
     16          1           0        0.364363   -1.091509    1.221016
     17          1           0        2.006260   -2.013270   -0.421094
     18          1           0        1.998755   -0.501713   -1.329819
     19          1           0        2.908334    0.435041    0.630048
 ---------------------------------------------------------------------

 SCF Done:  E(RB3LYP) =  -423.173506585     A.U. after    1 cycles

 The electronic state is 1-A.
 Alpha  occ. eigenvalues --  -19.14484 -19.12850 -10.26948 -10.24202 -10.22482
 Alpha  occ. eigenvalues --  -10.21282 -10.20645 -10.20198 -10.19676  -1.03967
 Alpha  occ. eigenvalues --   -1.02658  -0.91596  -0.75434  -0.74390  -0.68308
 Alpha  occ. eigenvalues --   -0.62877  -0.56096  -0.54212  -0.50996  -0.48388
 Alpha  occ. eigenvalues --   -0.46527  -0.46026  -0.43971  -0.42159  -0.41830
 Alpha  occ. eigenvalues --   -0.40869  -0.39972  -0.37850  -0.35444  -0.34209
 Alpha  occ. eigenvalues --   -0.30573  -0.28065  -0.27754  -0.24119
 Alpha virt. eigenvalues --   -0.00890   0.05498   0.08198   0.09974   0.10913
 Alpha virt. eigenvalues --    0.11719   0.13056   0.14071   0.14577   0.15869
 Alpha virt. eigenvalues --    0.16984   0.17943   0.19015   0.20846   0.21366

 Mulliken charges:
               1
     1  C   -0.509092
     2  C    0.332157
     3  C   -0.422200
     4  C    0.430134
     5  O   -0.320347
     6  C   -0.243204
     7  C   -0.088440
     8  C   -0.102836
     9  O   -0.415890
    10  H    0.128345
    11  H    0.132098
    12  H    0.126732
    13  H    0.119802
    14  H    0.129051
    15  H    0.105268
    16  H    0.098531
    17  H    0.124557
    18  H    0.089918
    19  H    0.285417
 Sum of Mulliken charges =   0.00000

 Dipole moment (field-independent basis, Debye):
    X=              2.0432    Y=              2.4988    Z=             -0.4329  Tot=              3.2567
 Quadrupole moment (field-independent basis, Debye-Ang):
   XX=            -69.1305   YY=            -51.5723   ZZ=            -51.4883
   XY=             -1.2915   XZ=             -2.4730   YZ=              0.9858

  Exact polarizability:  90.831   2.035  75.832  -1.041   3.566  65.451
 Approx polarizability: 130.161   7.546 112.572   3.437   6.686 102.117

                      1                      2                      3
                      A                      A                      A
 Frequencies --     80.8656               114.6916               149.0861
 Red. masses --      5.0310                 3.8987                 3.5009
 Frc consts  --      0.0194                 0.0302                 0.0458
 IR Inten    --      2.9555                 3.7732                 1.0244

                      4                      5                      6
                      A                      A                      A
 Frequencies --    209.1845               240.3213               287.5140
 Red. masses --      1.0678                 2.0690                 2.2370
 Frc consts  --      0.0275                 0.0704                 0.1090
 IR Inten    --      2.1358                 4.8577                26.5903

                      7                      8                      9
                      A                      A                      A
 Frequencies --    315.4267               364.1088               374.6643
 Red. masses --      1.4733                 2.7926                 2.5707
 Frc consts  --      0.0864                 0.2181                 0.2126
 IR Inten    --     50.0711                 3.3058                26.3130

                     10                     11                     12
                      A                      A                      A
 Frequencies --    470.9991               524.3250               555.1413
 Red. masses --      3.1618                 2.9679                 3.1840
 Frc consts  --      0.4133                 0.4807                 0.5781
 IR Inten    --      1.2885                 6.2329                 2.2294

                     13                     14                     15
                      A                      A                      A
 Frequencies --    626.6924               673.3550               752.1342
 Red. masses --      3.4953                 3.1523                 2.9362
 Frc consts  --      0.8088                 0.8421                 0.9787
 IR Inten    --      0.2015                 1.7494                16.8877

                     16                     17                     18
                      A                      A                      A
 Frequencies --    837.0489               912.5686               946.0001
 Red. masses --      2.9200                 1.6269                 1.7991
 Frc consts  --      1.2054                 0.7982                 0.9486
 IR Inten    --      9.5832                20.3033                 3.4117

                     19                     20                     21
                      A                      A                      A
 Frequencies --    955.7482               997.6867              1044.8939
 Red. masses --      2.3772                 1.5737                 2.2209
 Frc consts  --      1.2794                 0.9229                 1.4287
 IR Inten    --      1.7754                 8.9030                33.4240

                     22                     23                     24
                      A                      A                      A
 Frequencies --   1047.9924              1065.3438              1077.2283
 Red. masses --      2.6323                 1.5620                 3.2308
 Frc consts  --      1.7033                 1.0445                 2.2089
 IR Inten    --     20.7529                17.2445               100.7099

                     25                     26                     27
                      A                      A                      A
 Frequencies --   1101.0752              1126.9318              1144.9617
 Red. masses --      1.3605                 2.0236                 1.7356
 Frc consts  --      0.9718                 1.5141                 1.3406
 IR Inten    --      2.4869                11.4941                 6.9410

                     28                     29                     30
                      A                      A                      A
 Frequencies --   1193.4623              1211.4264              1228.5260
 Red. masses --      1.3338                 1.4291                 2.0045
 Frc consts  --      1.1193                 1.2356                 1.7825
 IR Inten    --      8.8626                16.1392                13.0343

                     31                     32                     33
                      A                      A                      A
 Frequencies --   1248.6007              1338.5805              1383.5194
 Red. masses --      2.1710                 1.5054                 1.4258
 Frc consts  --      1.9941                 1.5893                 1.6080
 IR Inten    --     10.4932                 2.7594                 4.5440

                     34                     35                     36
                      A                      A                      A
 Frequencies --   1415.6212              1422.9711              1433.9140
 Red. masses --      1.2520                 1.3657                 2.0602
 Frc consts  --      1.4782                 1.6293                 2.4957
 IR Inten    --     28.8344                36.9968                 6.2339

                     37                     38                     39
                      A                      A                      A
 Frequencies --   1464.1719              1491.2474              1498.1700
 Red. masses --      1.2491                 1.0499                 1.0926
 Frc consts  --      1.5777                 1.3756                 1.4449
 IR Inten    --      2.3650                 2.5196                 1.7472

                     40                     41                     42
                      A                      A                      A
 Frequencies --   1513.3063              1882.1398              2983.2177
 Red. masses --      1.0729                12.4004                 1.0705
 Frc consts  --      1.4477                25.8814                 5.6134
 IR Inten    --      4.4441               396.0409                41.4780

                     43                     44                     45
                      A                      A                      A
 Frequencies --   3024.1491              3050.2880              3077.6392
 Red. masses --      1.0392                 1.0580                 1.0909
 Frc consts  --      5.5997                 5.8001                 6.0878
 IR Inten    --     28.5621                18.5126                24.3694

                     46                     47                     48
                      A                      A                      A
 Frequencies --   3082.6410              3104.3529              3108.0581
 Red. masses --      1.0974                 1.1061                 1.0997
 Frc consts  --      6.1439                 6.2804                 6.2589
 IR Inten    --     17.0254                 8.4731                19.5892

                     49                     50                     51
                      A                      A                      A
 Frequencies --   3113.6123              3182.8732              3817.4165
 Red. masses --      1.0894                 1.0932                 1.0661
 Frc consts  --      6.2228                 6.5249                 9.1535
 IR Inten    --     22.6088                 5.8379                12.8742

 - Thermochemistry -
 -------------------
 Temperature   298.150 Kelvin.  Pressure   1.00000 Atm.
 Atom     1 has atomic number  6 and mass  12.00000

 Molecular mass:   126.06808 amu.
 Principal axes and moments of inertia in atomic units:
                           1         2         3
     Eigenvalues --   578.817391678.144551977.87064
           X            0.99986  -0.00963  -0.01400
           Y            0.00968   0.99995   0.00319
           Z            0.01397  -0.00332   0.99990
 This molecule is an asymmetric top.
 Rotational symmetry number  1.
 Warning -- assumption of classical behavior for rotation
           may cause significant error
 Rotational temperatures (Kelvin)      0.14964     0.05161     0.04379
 Rotational constants (GHZ):           3.11798     1.07544     0.91247
 Zero-point vibrational energy     414302.1 (Joules/Mol)
                                   99.02057 (Kcal/Mol)
 Warning -- explicit consideration of  12 degrees of freedom as
           vibrations may cause significant error
 Vibrational temperatures:    116.35   165.02   214.50   300.97   345.77
          (Kelvin)            413.67   453.83   523.87   539.06   677.66
                              754.39   798.72   901.67   968.81  1082.15
                             1204.33  1312.98  1361.08  1375.11  1435.45
                             1503.37  1507.83  1532.79  1549.89  1584.20
                             1621.40  1647.34  1717.12  1742.97  1767.57
                             1796.46  1925.92  1990.57  2036.76  2047.34
                             2063.08  2106.61  2145.57  2155.53  2177.31
                             2707.98  4292.18  4351.07  4388.68  4428.03
                             4435.23  4466.47  4471.80  4479.79  4579.44
                             5492.40

 Zero-point correction=                           0.157799 (Hartree/Particle)
 Thermal correction to Energy=                    0.166876
 Thermal correction to Enthalpy=                  0.167820
 Thermal correction to Gibbs Free Energy=         0.123970
 Sum of electronic and zero-point Energies=           -423.015707
 Sum of electronic and thermal Energies=              -423.006631
 Sum of electronic and thermal Enthalpies=            -423.005687
 Sum of electronic and thermal Free Energies=         -423.049536

                     E (Thermal)             CV                S
                      KCal/Mol        Cal/Mol-Kelvin    Cal/Mol-Kelvin
 Total                  104.716             34.015             92.289
 Electronic               0.000              0.000              0.000
 Translational            0.889              2.981             40.409
 Rotational               0.889              2.981             29.042
 Vibrational            102.939             28.053             22.838
 Vibration     1          0.600              1.962              3.870
 Vibration     2          0.608              1.937              3.188
 Vibration     3          0.618              1.904              2.684
 Vibration     4          0.642              1.827              2.051
 Vibration     5          0.657              1.779              1.801
 Vibration     6          0.685              1.697              1.489
 Vibration     7          0.703              1.644              1.334
 Vibration     8          0.738              1.546              1.105
 Vibration     9          0.746              1.524              1.061
 Vibration    10          0.828              1.314              0.735
 Vibration    11          0.879              1.196              0.600
 Vibration    12          0.911              1.128              0.534

 Optimization completed.
    -- Stationary point found.
 Normal termination of Gaussian 09 at Tue Jan 28 13:27:26 2020.
