 Gaussian 09, Revision D.01,
 Gaussian 09:  ES64L-G09RevD.01 24-Apr-2013

 -----------------------------
 # b3lyp 6-31G(2df,p) opt Freq
 -----------------------------

 -----
 titel
 -----
 Symbolic Z-matrix:
 Charge =  0 Multiplicity = 1

 SCF Done:  E(RB3LYP) =  -423.204274324     A.U. after   14 cycles
 Optimization completed.
    -- Stationary point found.
 Normal termination of Gaussian 09 at Mon Jan 27 16:08:15 2020.

 ----------------------------------------------------------------------
 #N Geom=AllCheck Guess=TCheck SCRF=Check GenChk RB3LYP/6-31G(2df,p) Fr
 eq
 ----------------------------------------------------------------------

 Structure from the checkpoint file:  "/scratch/puck/g09_0a8577b0-dd8b-4d23-b104-0d560f3342b8/Gau-109436.chk"
 -----
 titel
 -----
 Charge =  0 Multiplicity = 1

                         Standard orientation:
 ---------------------------------------------------------------------
 Center     Atomic      Atomic             Coordinates (Angstroms)
 Number     Number       Type             X           Y           Z
 ---------------------------------------------------------------------
      1          6           0       -0.346153    1.906450   -0.901530
      2          6           0       -0.493179    0.690592    0.011338
      3          8           0       -0.111274    1.045313    1.354403
      4          6           0       -1.870763    0.057600    0.006676
      5          6           0       -1.818660   -1.269866   -0.051542
      6          6           0       -0.403094   -1.783022   -0.142932
      7          6           0        0.426533   -0.502409   -0.414149
      8          6           0        1.762631   -0.473456    0.301005
      9          8           0        2.801616   -0.160576   -0.222438
     10          1           0       -0.638302    1.667017   -1.928414
     11          1           0       -0.986432    2.727027   -0.555052
     12          1           0        0.690065    2.256787   -0.902589
     13          1           0       -0.664618    1.780960    1.637258
     14          1           0       -2.772011    0.655156    0.102152
     15          1           0       -2.674602   -1.934937   -0.009684
     16          1           0       -0.106374   -2.273005    0.795877
     17          1           0       -0.266985   -2.527695   -0.934308
     18          1           0        0.631169   -0.409778   -1.483286
     19          1           0        1.721462   -0.774769    1.369133
 ---------------------------------------------------------------------

 SCF Done:  E(RB3LYP) =  -423.204274324     A.U. after    1 cycles

 The electronic state is 1-A.
 Alpha  occ. eigenvalues --  -19.14260 -19.13007 -10.26101 -10.25150 -10.19670
 Alpha  occ. eigenvalues --  -10.19385 -10.19358 -10.18507 -10.18230  -1.03762
 Alpha  occ. eigenvalues --   -1.02425  -0.84951  -0.74982  -0.73847  -0.66914
 Alpha  occ. eigenvalues --   -0.60311  -0.56470  -0.55986  -0.50562  -0.48072
 Alpha  occ. eigenvalues --   -0.44819  -0.43980  -0.43080  -0.42575  -0.39395
 Alpha  occ. eigenvalues --   -0.39087  -0.38235  -0.36678  -0.35785  -0.35398
 Alpha  occ. eigenvalues --   -0.32020  -0.27978  -0.25780  -0.24045
 Alpha virt. eigenvalues --   -0.01484   0.00699   0.07100   0.10763   0.12330
 Alpha virt. eigenvalues --    0.12748   0.13818   0.14734   0.15637   0.16185
 Alpha virt. eigenvalues --    0.17158   0.18376   0.20086   0.21497   0.22266

 Mulliken charges:
               1
     1  C   -0.444531
     2  C    0.333014
     3  O   -0.469962
     4  C   -0.105144
     5  C   -0.072765
     6  C   -0.301622
     7  C   -0.101416
     8  C    0.169795
     9  O   -0.267821
    10  H    0.123724
    11  H    0.103993
    12  H    0.141747
    13  H    0.277658
    14  H    0.091938
    15  H    0.102177
    16  H    0.117599
    17  H    0.116844
    18  H    0.096727
    19  H    0.088045
 Sum of Mulliken charges =   0.00000

 Dipole moment (field-independent basis, Debye):
    X=             -3.5968    Y=              0.1157    Z=              0.0477  Tot=              3.5989
 Quadrupole moment (field-independent basis, Debye-Ang):
   XX=            -60.9497   YY=            -47.1822   ZZ=            -53.4769
   XY=             -2.1273   XZ=              0.2396   YZ=              1.1172

  Exact polarizability:  83.845   0.448  85.118  -1.220  -0.196  62.762
 Approx polarizability: 119.950   0.698 127.446  -4.400   1.632  98.336

                      1                      2                      3
                      A                      A                      A
 Frequencies --     53.2658                65.7262               205.2314
 Red. masses --      4.7141                 3.5353                 1.3860
 Frc consts  --      0.0079                 0.0090                 0.0344
 IR Inten    --      3.1349                 2.5405                63.8718

                      4                      5                      6
                      A                      A                      A
 Frequencies --    235.4060               247.1352               251.7400
 Red. masses --      2.1107                 2.3134                 1.1266
 Frc consts  --      0.0689                 0.0832                 0.0421
 IR Inten    --     34.9981                 0.1056                 2.4546

                      7                      8                      9
                      A                      A                      A
 Frequencies --    298.0795               354.8007               387.0375
 Red. masses --      2.3318                 3.9187                 2.2759
 Frc consts  --      0.1221                 0.2906                 0.2009
 IR Inten    --      6.9538                 8.5327                 1.5227

                     10                     11                     12
                      A                      A                      A
 Frequencies --    436.5355               486.6073               521.6374
 Red. masses --      4.3258                 3.3286                 2.6501
 Frc consts  --      0.4857                 0.4644                 0.4249
 IR Inten    --      3.3769                 4.7020                21.0463

                     13                     14                     15
                      A                      A                      A
 Frequencies --    616.3427               732.6270               782.8309
 Red. masses --      3.6526                 2.3914                 1.9284
 Frc consts  --      0.8175                 0.7563                 0.6963
 IR Inten    --      3.6010                 8.5688                16.8314

                     16                     17                     18
                      A                      A                      A
 Frequencies --    785.2833               888.3589               928.5562
 Red. masses --      3.0931                 1.9176                 2.4062
 Frc consts  --      1.1238                 0.8916                 1.2224
 IR Inten    --     12.1489                 4.4248                31.4940

                     19                     20                     21
                      A                      A                      A
 Frequencies --    946.3336               969.2116               976.7129
 Red. masses --      2.1726                 1.3153                 1.9520
 Frc consts  --      1.1464                 0.7279                 1.0971
 IR Inten    --      1.6387                 0.5794                 9.1383

                     22                     23                     24
                      A                      A                      A
 Frequencies --    991.1271              1064.3677              1074.2528
 Red. masses --      1.9246                 1.9584                 2.1416
 Frc consts  --      1.1139                 1.3072                 1.4561
 IR Inten    --      2.3639                15.0882                 9.4737

                     25                     26                     27
                      A                      A                      A
 Frequencies --   1103.5242              1128.8553              1141.0106
 Red. masses --      2.1063                 2.0798                 1.2113
 Frc consts  --      1.5112                 1.5615                 0.9291
 IR Inten    --     17.5210                67.3269                 6.8789

                     28                     29                     30
                      A                      A                      A
 Frequencies --   1191.0456              1208.7971              1272.6688
 Red. masses --      1.5811                 2.1661                 1.4473
 Frc consts  --      1.3215                 1.8648                 1.3811
 IR Inten    --     31.6222                20.1396                 2.6626

                     31                     32                     33
                      A                      A                      A
 Frequencies --   1307.2063              1327.0235              1351.7197
 Red. masses --      1.3750                 1.5039                 1.7163
 Frc consts  --      1.3843                 1.5604                 1.8476
 IR Inten    --      2.9748                 8.4172                39.2641

                     34                     35                     36
                      A                      A                      A
 Frequencies --   1374.4921              1407.6927              1425.6548
 Red. masses --      1.7147                 1.2574                 1.1977
 Frc consts  --      1.9087                 1.4680                 1.4342
 IR Inten    --     16.5167                 7.2016                 5.0334

                     37                     38                     39
                      A                      A                      A
 Frequencies --   1481.9833              1487.6786              1493.0070
 Red. masses --      1.0901                 1.0528                 1.0619
 Frc consts  --      1.4106                 1.3728                 1.3947
 IR Inten    --      2.9020                 2.0708                 3.5898

                     40                     41                     42
                      A                      A                      A
 Frequencies --   1689.5527              1826.1327              2907.0746
 Red. masses --      6.5549                10.1912                 1.0838
 Frc consts  --     11.0245                20.0235                 5.3964
 IR Inten    --      5.4649               185.0498                75.0893

                     43                     44                     45
                      A                      A                      A
 Frequencies --   3007.0191              3026.1314              3063.1443
 Red. masses --      1.0688                 1.0382                 1.0911
 Frc consts  --      5.6942                 5.6013                 6.0316
 IR Inten    --     28.2254                18.1639                16.6722

                     46                     47                     48
                      A                      A                      A
 Frequencies --   3087.8307              3096.2012              3120.2087
 Red. masses --      1.0884                 1.0949                 1.1025
 Frc consts  --      6.1141                 6.1840                 6.3241
 IR Inten    --      6.0364                30.4213                13.1792

                     49                     50                     51
                      A                      A                      A
 Frequencies --   3173.7953              3201.0219              3811.1084
 Red. masses --      1.0847                 1.1040                 1.0662
 Frc consts  --      6.4376                 6.6647                 9.1244
 IR Inten    --      6.4556                20.9905                20.4192

 - Thermochemistry -
 -------------------
 Temperature   298.150 Kelvin.  Pressure   1.00000 Atm.
 Atom     1 has atomic number  6 and mass  12.00000

 Molecular mass:   126.06808 amu.
 Principal axes and moments of inertia in atomic units:
                           1         2         3
     Eigenvalues --   793.530791178.899171569.85184
           X            0.99996  -0.00641   0.00681
           Y            0.00663   0.99942  -0.03336
           Z           -0.00659   0.03340   0.99942
 This molecule is an asymmetric top.
 Rotational symmetry number  1.
 Warning -- assumption of classical behavior for rotation
           may cause significant error
 Rotational temperatures (Kelvin)      0.10915     0.07347     0.05517
 Rotational constants (GHZ):           2.27432     1.53087     1.14963
 Zero-point vibrational energy     412776.2 (Joules/Mol)
                                   98.65587 (Kcal/Mol)
 Warning -- explicit consideration of  13 degrees of freedom as
           vibrations may cause significant error
 Vibrational temperatures:     76.64    94.57   295.28   338.70   355.57
          (Kelvin)            362.20   428.87   510.48   556.86   628.08
                              700.12   750.52   886.78  1054.09  1126.32
                             1129.85  1278.15  1335.98  1361.56  1394.48
                             1405.27  1426.01  1531.39  1545.61  1587.72
                             1624.17  1641.66  1713.65  1739.19  1831.08
                             1880.78  1909.29  1944.82  1977.59  2025.35
                             2051.20  2132.24  2140.44  2148.10  2430.89
                             2627.39  4182.63  4326.42  4353.92  4407.18
                             4442.69  4454.74  4489.28  4566.38  4605.55
                             5483.33

 Zero-point correction=                           0.157218 (Hartree/Particle)
 Thermal correction to Energy=                    0.166464
 Thermal correction to Enthalpy=                  0.167408
 Thermal correction to Gibbs Free Energy=         0.122894
 Sum of electronic and zero-point Energies=           -423.047056
 Sum of electronic and thermal Energies=              -423.037811
 Sum of electronic and thermal Enthalpies=            -423.036866
 Sum of electronic and thermal Free Energies=         -423.081381

                     E (Thermal)             CV                S
                      KCal/Mol        Cal/Mol-Kelvin    Cal/Mol-Kelvin
 Total                  104.458             34.393             93.688
 Electronic               0.000              0.000              0.000
 Translational            0.889              2.981             40.409
 Rotational               0.889              2.981             28.775
 Vibrational            102.680             28.431             24.504
 Vibration     1          0.596              1.976              4.692
 Vibration     2          0.597              1.971              4.277
 Vibration     3          0.640              1.832              2.086
 Vibration     4          0.655              1.787              1.837
 Vibration     5          0.661              1.768              1.751
 Vibration     6          0.664              1.760              1.718
 Vibration     7          0.691              1.677              1.428
 Vibration     8          0.731              1.565              1.145
 Vibration     9          0.755              1.498              1.012
 Vibration    10          0.797              1.391              0.838
 Vibration    11          0.843              1.280              0.692
 Vibration    12          0.877              1.202              0.606
 Vibration    13          0.976              0.997              0.422

 Optimization completed.
    -- Stationary point found.
 Normal termination of Gaussian 09 at Mon Jan 27 16:49:19 2020.
