 Gaussian 09, Revision D.01,
 Gaussian 09:  ES64L-G09RevD.01 24-Apr-2013

 -----------------------------
 # b3lyp 6-31G(2df,p) opt Freq
 -----------------------------

 -----
 titel
 -----
 Symbolic Z-matrix:
 Charge =  0 Multiplicity = 1

 SCF Done:  E(RB3LYP) =  -423.119688282     A.U. after   14 cycles
 Optimization completed.
    -- Stationary point found.
 Normal termination of Gaussian 09 at Tue Jan 28 02:07:41 2020.

 ----------------------------------------------------------------------
 #N Geom=AllCheck Guess=TCheck SCRF=Check GenChk RB3LYP/6-31G(2df,p) Fr
 eq
 ----------------------------------------------------------------------

 Structure from the checkpoint file:  "/scratch/puck/g09_fdba20b3-3480-4ff1-bb56-c248b81ee642/Gau-85884.chk"
 -----
 titel
 -----
 Charge =  0 Multiplicity = 1

                         Standard orientation:
 ---------------------------------------------------------------------
 Center     Atomic      Atomic             Coordinates (Angstroms)
 Number     Number       Type             X           Y           Z
 ---------------------------------------------------------------------
      1          6           0       -1.625297   -1.431898   -0.753957
      2          6           0       -0.877685   -0.335130    0.017716
      3          8           0       -0.852526   -0.768856    1.384459
      4          6           0       -1.586634    0.948951   -0.087759
      5          6           0       -2.149579    2.009480   -0.150763
      6          6           0        0.548505   -0.174780   -0.524345
      7          6           0        1.636630   -1.167868   -0.148690
      8          6           0        1.693858    0.254477    0.343441
      9          8           0        2.657645    1.173747   -0.078718
     10          1           0       -1.101390   -2.382060   -0.621836
     11          1           0       -2.643468   -1.531275   -0.371927
     12          1           0       -1.665997   -1.193639   -1.819744
     13          1           0       -0.761582    0.013099    1.938866
     14          1           0       -2.651200    2.944018   -0.209247
     15          1           0        0.574545    0.192308   -1.548160
     16          1           0        1.390993   -1.936563    0.575623
     17          1           0        2.327020   -1.472369   -0.929059
     18          1           0        1.495688    0.404789    1.399025
     19          1           0        2.755647    1.103172   -1.033320
 ---------------------------------------------------------------------

 SCF Done:  E(RB3LYP) =  -423.119688282     A.U. after    1 cycles

 The electronic state is 1-A.
 Alpha  occ. eigenvalues --  -19.14668 -19.14235 -10.26805 -10.23673 -10.19326
 Alpha  occ. eigenvalues --  -10.18551 -10.18238 -10.18174 -10.17911  -1.03219
 Alpha  occ. eigenvalues --   -1.02612  -0.85036  -0.78444  -0.73169  -0.65165
 Alpha  occ. eigenvalues --   -0.61426  -0.58523  -0.55541  -0.51860  -0.50343
 Alpha  occ. eigenvalues --   -0.50265  -0.42524  -0.41729  -0.40044  -0.39116
 Alpha  occ. eigenvalues --   -0.38515  -0.37159  -0.36528  -0.35842  -0.29464
 Alpha  occ. eigenvalues --   -0.29118  -0.27294  -0.26885  -0.23981
 Alpha virt. eigenvalues --    0.03200   0.04809   0.07632   0.08476   0.09685
 Alpha virt. eigenvalues --    0.12152   0.12787   0.14323   0.14632   0.17029
 Alpha virt. eigenvalues --    0.18558   0.19398   0.20475   0.21270   0.22967

 Mulliken charges:
               1
     1  C   -0.393530
     2  C    0.136628
     3  O   -0.448948
     4  C    0.313668
     5  C   -0.482551
     6  C   -0.065857
     7  C   -0.341564
     8  C    0.142507
     9  O   -0.430964
    10  H    0.128336
    11  H    0.129711
    12  H    0.120106
    13  H    0.290477
    14  H    0.201264
    15  H    0.085853
    16  H    0.129992
    17  H    0.104608
    18  H    0.097752
    19  H    0.282512
 Sum of Mulliken charges =   0.00000

 Dipole moment (field-independent basis, Debye):
    X=             -0.4359    Y=              0.2710    Z=             -1.3335  Tot=              1.4288
 Quadrupole moment (field-independent basis, Debye-Ang):
   XX=            -55.7193   YY=            -52.5495   ZZ=            -49.3521
   XY=             -5.0373   XZ=             -3.1827   YZ=              0.9224

  Exact polarizability:  82.686  -9.886  85.486   0.722   0.003  64.309
 Approx polarizability: 108.512 -17.827 132.744   1.862  -2.810  99.006

                      1                      2                      3
                      A                      A                      A
 Frequencies --     65.5364                97.7610               121.4585
 Red. masses --      3.8734                 1.3911                 2.1666
 Frc consts  --      0.0098                 0.0078                 0.0188
 IR Inten    --      0.5651                39.0409                38.8661

                      4                      5                      6
                      A                      A                      A
 Frequencies --    176.8706               195.2122               220.4785
 Red. masses --      3.2152                 3.4815                 1.4003
 Frc consts  --      0.0593                 0.0782                 0.0401
 IR Inten    --      6.2668                 4.6229                 1.7695

                      7                      8                      9
                      A                      A                      A
 Frequencies --    252.0732               280.4012               310.6740
 Red. masses --      2.2688                 1.2668                 2.7276
 Frc consts  --      0.0849                 0.0587                 0.1551
 IR Inten    --     26.3495                78.6350                20.0133

                     10                     11                     12
                      A                      A                      A
 Frequencies --    391.0557               406.8951               433.0163
 Red. masses --      2.9087                 2.9513                 3.5490
 Frc consts  --      0.2621                 0.2879                 0.3921
 IR Inten    --      8.0965                10.0432                 0.4639

                     13                     14                     15
                      A                      A                      A
 Frequencies --    472.9275               567.6296               587.6375
 Red. masses --      3.0667                 5.1260                 4.6000
 Frc consts  --      0.4041                 0.9731                 0.9359
 IR Inten    --      0.2721                 8.1064                 5.4904

                     16                     17                     18
                      A                      A                      A
 Frequencies --    627.4547               668.6056               714.1804
 Red. masses --      1.2226                 1.2500                 2.4444
 Frc consts  --      0.2836                 0.3292                 0.7346
 IR Inten    --     46.3605                34.7496                 0.4200

                     19                     20                     21
                      A                      A                      A
 Frequencies --    814.6843               872.1811               918.4380
 Red. masses --      2.1143                 2.2057                 2.2169
 Frc consts  --      0.8268                 0.9886                 1.1018
 IR Inten    --     12.7730                20.8910                 2.1944

                     22                     23                     24
                      A                      A                      A
 Frequencies --    943.5356               954.1368               999.6181
 Red. masses --      3.4543                 2.2823                 1.4678
 Frc consts  --      1.8118                 1.2242                 0.8642
 IR Inten    --     27.4110                20.6076                 4.1064

                     25                     26                     27
                      A                      A                      A
 Frequencies --   1058.2926              1061.5769              1099.3403
 Red. masses --      1.9372                 1.7554                 1.3232
 Frc consts  --      1.2783                 1.1656                 0.9422
 IR Inten    --     46.2487                10.2347                14.6612

                     28                     29                     30
                      A                      A                      A
 Frequencies --   1111.4106              1124.9417              1173.0863
 Red. masses --      2.2065                 1.2165                 2.0647
 Frc consts  --      1.6058                 0.9071                 1.6741
 IR Inten    --    101.0848                11.8984                25.5614

                     31                     32                     33
                      A                      A                      A
 Frequencies --   1202.9154              1233.8499              1294.3611
 Red. masses --      2.7408                 1.7812                 1.5894
 Frc consts  --      2.3367                 1.5977                 1.5689
 IR Inten    --     24.4853                49.3721                 9.3000

                     34                     35                     36
                      A                      A                      A
 Frequencies --   1355.6917              1379.9978              1402.8085
 Red. masses --      1.5204                 1.4695                 1.2713
 Frc consts  --      1.6464                 1.6489                 1.4740
 IR Inten    --     75.7228                 2.5588                11.4716

                     37                     38                     39
                      A                      A                      A
 Frequencies --   1428.2214              1479.8596              1486.3085
 Red. masses --      1.2099                 1.1167                 1.3822
 Frc consts  --      1.4541                 1.4409                 1.7991
 IR Inten    --     40.4064                12.7445                26.0661

                     40                     41                     42
                      A                      A                      A
 Frequencies --   1489.4246              2229.7093              3051.5983
 Red. masses --      1.1638                 5.9081                 1.0335
 Frc consts  --      1.5212                17.3059                 5.6704
 IR Inten    --     14.0837                 0.5640                12.0517

                     43                     44                     45
                      A                      A                      A
 Frequencies --   3126.9457              3130.9301              3134.3219
 Red. masses --      1.0690                 1.0877                 1.0873
 Frc consts  --      6.1586                 6.2819                 6.2936
 IR Inten    --      4.0034                14.5325                12.5902

                     46                     47                     48
                      A                      A                      A
 Frequencies --   3137.7440              3175.1318              3222.2901
 Red. masses --      1.1029                 1.0883                 1.1156
 Frc consts  --      6.3975                 6.4641                 6.8245
 IR Inten    --     18.6490                12.1597                 5.7026

                     49                     50                     51
                      A                      A                      A
 Frequencies --   3499.8907              3820.9485              3824.0930
 Red. masses --      1.1622                 1.0664                 1.0660
 Frc consts  --      8.3878                 9.1731                 9.1843
 IR Inten    --     66.5275                25.5480                18.6487

 - Thermochemistry -
 -------------------
 Temperature   298.150 Kelvin.  Pressure   1.00000 Atm.
 Atom     1 has atomic number  6 and mass  12.00000

 Molecular mass:   126.06808 amu.
 Principal axes and moments of inertia in atomic units:
                           1         2         3
     Eigenvalues --   774.828771481.708731848.37779
           X            0.99997  -0.00759   0.00240
           Y            0.00751   0.99953   0.02981
           Z           -0.00262  -0.02979   0.99955
 This molecule is an asymmetric top.
 Rotational symmetry number  1.
 Warning -- assumption of classical behavior for rotation
           may cause significant error
 Rotational temperatures (Kelvin)      0.11178     0.05846     0.04686
 Rotational constants (GHZ):           2.32921     1.21801     0.97639
 Zero-point vibrational energy     405702.4 (Joules/Mol)
                                   96.96521 (Kcal/Mol)
 Warning -- explicit consideration of  15 degrees of freedom as
           vibrations may cause significant error
 Vibrational temperatures:     94.29   140.66   174.75   254.48   280.87
          (Kelvin)            317.22   362.68   403.43   446.99   562.64
                              585.43   623.01   680.44   816.69   845.48
                              902.77   961.97  1027.54  1172.15  1254.87
                             1321.43  1357.54  1372.79  1438.23  1522.65
                             1527.37  1581.70  1599.07  1618.54  1687.81
                             1730.72  1775.23  1862.29  1950.54  1985.51
                             2018.33  2054.89  2129.19  2138.46  2142.95
                             3208.05  4390.56  4498.97  4504.70  4509.58
                             4514.51  4568.30  4636.15  5035.56  5497.49
                             5502.01

 Zero-point correction=                           0.154524 (Hartree/Particle)
 Thermal correction to Energy=                    0.165041
 Thermal correction to Enthalpy=                  0.165986
 Thermal correction to Gibbs Free Energy=         0.119216
 Sum of electronic and zero-point Energies=           -422.965164
 Sum of electronic and thermal Energies=              -422.954647
 Sum of electronic and thermal Enthalpies=            -422.953703
 Sum of electronic and thermal Free Energies=         -423.000472

                     E (Thermal)             CV                S
                      KCal/Mol        Cal/Mol-Kelvin    Cal/Mol-Kelvin
 Total                  103.565             38.719             98.435
 Electronic               0.000              0.000              0.000
 Translational            0.889              2.981             40.409
 Rotational               0.889              2.981             29.141
 Vibrational            101.788             32.757             28.885
 Vibration     1          0.597              1.971              4.283
 Vibration     2          0.603              1.951              3.498
 Vibration     3          0.609              1.931              3.077
 Vibration     4          0.628              1.871              2.361
 Vibration     5          0.636              1.847              2.178
 Vibration     6          0.647              1.810              1.955
 Vibration     7          0.664              1.759              1.716
 Vibration     8          0.680              1.710              1.531
 Vibration     9          0.700              1.653              1.359
 Vibration    10          0.759              1.489              0.996
 Vibration    11          0.772              1.455              0.938
 Vibration    12          0.794              1.398              0.849
 Vibration    13          0.830              1.310              0.729
 Vibration    14          0.924              1.101              0.509
 Vibration    15          0.945              1.058              0.471

 Optimization completed.
    -- Stationary point found.
 Normal termination of Gaussian 09 at Tue Jan 28 02:47:32 2020.
