 Gaussian 09, Revision D.01,
 Gaussian 09:  ES64L-G09RevD.01 24-Apr-2013

 -----------------------------
 # b3lyp 6-31G(2df,p) opt Freq
 -----------------------------

 -----
 titel
 -----
 Symbolic Z-matrix:
 Charge =  0 Multiplicity = 1

 SCF Done:  E(RB3LYP) =  -423.128139498     A.U. after   14 cycles
 Optimization completed.
    -- Stationary point found.
 Normal termination of Gaussian 09 at Tue Jan 28 02:58:53 2020.

 ----------------------------------------------------------------------
 #N Geom=AllCheck Guess=TCheck SCRF=Check GenChk RB3LYP/6-31G(2df,p) Fr
 eq
 ----------------------------------------------------------------------

 Structure from the checkpoint file:  "/scratch/puck/g09_80e60fd5-2069-4f60-aabc-117ebe9c00de/Gau-6260.chk"
 -----
 titel
 -----
 Charge =  0 Multiplicity = 1

                         Standard orientation:
 ---------------------------------------------------------------------
 Center     Atomic      Atomic             Coordinates (Angstroms)
 Number     Number       Type             X           Y           Z
 ---------------------------------------------------------------------
      1          8           0       -2.870134   -0.086275   -0.083154
      2          6           0       -1.516915   -0.007701    0.335852
      3          6           0       -0.796350   -1.262681   -0.155421
      4          6           0        0.715835   -1.093298   -0.032641
      5          6           0        1.424233    0.000521   -0.875259
      6          8           0        2.536937    0.007074    0.096986
      7          6           0        1.304296    0.006683    0.906617
      8          6           0        0.712686    1.098189   -0.041650
      9          6           0       -0.801362    1.251613   -0.173667
     10          1           0       -3.333520    0.686882    0.254712
     11          1           0       -1.462123   -0.000942    1.438108
     12          1           0       -1.139988   -2.131677    0.414540
     13          1           0       -1.072894   -1.444415   -1.201726
     14          1           0        1.274622   -2.030413    0.001563
     15          1           0        1.678248   -0.002368   -1.936910
     16          1           0        1.421150    0.011569    1.991508
     17          1           0        1.265998    2.038881   -0.013313
     18          1           0       -1.147864    2.131511    0.382613
     19          1           0       -1.072590    1.414628   -1.224737
 ---------------------------------------------------------------------

 SCF Done:  E(RB3LYP) =  -423.128139498     A.U. after    1 cycles

 The electronic state is 1-A.
 Alpha  occ. eigenvalues --  -19.13755 -19.12784 -10.24443 -10.24152 -10.23531
 Alpha  occ. eigenvalues --  -10.19727 -10.19586 -10.18592 -10.18248  -1.05363
 Alpha  occ. eigenvalues --   -1.02053  -0.83167  -0.74179  -0.73416  -0.64980
 Alpha  occ. eigenvalues --   -0.62546  -0.60022  -0.51965  -0.51916  -0.50531
 Alpha  occ. eigenvalues --   -0.46427  -0.44256  -0.41878  -0.40862  -0.40024
 Alpha  occ. eigenvalues --   -0.38158  -0.37073  -0.35680  -0.31852  -0.31668
 Alpha  occ. eigenvalues --   -0.31006  -0.29961  -0.26753  -0.23245
 Alpha virt. eigenvalues --    0.06646   0.08437   0.11184   0.11355   0.12773
 Alpha virt. eigenvalues --    0.13179   0.13841   0.13982   0.14930   0.15712
 Alpha virt. eigenvalues --    0.16924   0.17757   0.19497   0.21118   0.22541

 Mulliken charges:
               1
     1  O   -0.437829
     2  C    0.126867
     3  C   -0.247838
     4  C   -0.010994
     5  C    0.045673
     6  O   -0.313302
     7  C    0.019901
     8  C   -0.005910
     9  C   -0.283849
    10  H    0.280205
    11  H    0.067584
    12  H    0.108045
    13  H    0.111488
    14  H    0.081906
    15  H    0.088026
    16  H    0.088376
    17  H    0.080767
    18  H    0.092008
    19  H    0.108876
 Sum of Mulliken charges =   0.00000

 Dipole moment (field-independent basis, Debye):
    X=             -1.6247    Y=              1.0469    Z=              0.5462  Tot=              2.0085
 Quadrupole moment (field-independent basis, Debye-Ang):
   XX=            -62.0409   YY=            -51.0287   ZZ=            -50.1420
   XY=             -4.2479   XZ=             -2.9859   YZ=              0.3918

  Exact polarizability:  81.360  -1.494  73.281  -0.186   0.449  67.991
 Approx polarizability: 113.442  -1.383 106.274   1.312   1.228 109.692

                      1                      2                      3
                      A                      A                      A
 Frequencies --    125.6935               238.6082               288.4930
 Red. masses --      4.0535                 1.9990                 1.1291
 Frc consts  --      0.0377                 0.0671                 0.0554
 IR Inten    --      2.3586                 1.8200                84.5256

                      4                      5                      6
                      A                      A                      A
 Frequencies --    336.7217               360.7501               411.2783
 Red. masses --      3.8174                 2.4630                 5.3376
 Frc consts  --      0.2550                 0.1889                 0.5319
 IR Inten    --     22.7605                 0.2825                 0.7343

                      7                      8                      9
                      A                      A                      A
 Frequencies --    439.7653               460.6261               622.9507
 Red. masses --      6.3773                 2.5608                 4.8523
 Frc consts  --      0.7267                 0.3201                 1.1094
 IR Inten    --      3.3462                 6.5878                 1.3448

                     10                     11                     12
                      A                      A                      A
 Frequencies --    722.3924               743.7663               784.5285
 Red. masses --      3.4672                 4.0337                 2.3928
 Frc consts  --      1.0660                 1.3147                 0.8677
 IR Inten    --      4.9197                 7.7647                 0.1107

                     13                     14                     15
                      A                      A                      A
 Frequencies --    801.0733               856.2293               875.2248
 Red. masses --      3.3141                 2.1700                 3.9647
 Frc consts  --      1.2530                 0.9373                 1.7894
 IR Inten    --      2.1436                 8.0182                11.4676

                     16                     17                     18
                      A                      A                      A
 Frequencies --    897.1414               929.3978               977.3858
 Red. masses --      3.3365                 1.5109                 3.1875
 Frc consts  --      1.5822                 0.7689                 1.7941
 IR Inten    --     51.2643                 0.5655                20.0559

                     19                     20                     21
                      A                      A                      A
 Frequencies --   1006.2438              1027.4448              1050.1033
 Red. masses --      1.2600                 1.3678                 1.5080
 Frc consts  --      0.7517                 0.8507                 0.9798
 IR Inten    --      2.2613                 4.3347                 3.7356

                     22                     23                     24
                      A                      A                      A
 Frequencies --   1067.4651              1099.3169              1116.1917
 Red. masses --      3.0229                 2.3526                 3.3323
 Frc consts  --      2.0295                 1.6751                 2.4461
 IR Inten    --      6.5972                59.3252                17.0167

                     25                     26                     27
                      A                      A                      A
 Frequencies --   1151.4392              1158.8753              1164.1341
 Red. masses --      1.4446                 1.9810                 1.3273
 Frc consts  --      1.1285                 1.5675                 1.0598
 IR Inten    --      3.5282                 2.2082                 0.3567

                     28                     29                     30
                      A                      A                      A
 Frequencies --   1199.7517              1214.3758              1247.0605
 Red. masses --      1.4599                 1.3983                 1.6269
 Frc consts  --      1.2381                 1.2149                 1.4907
 IR Inten    --      8.6071                 0.3209                28.0307

                     31                     32                     33
                      A                      A                      A
 Frequencies --   1257.8293              1264.9224              1285.9085
 Red. masses --      1.4432                 1.7121                 1.4455
 Frc consts  --      1.3453                 1.6140                 1.4083
 IR Inten    --      9.8969                 2.7071                 6.1405

                     34                     35                     36
                      A                      A                      A
 Frequencies --   1306.5268              1329.8762              1345.4717
 Red. masses --      1.2632                 1.5518                 1.5198
 Frc consts  --      1.2704                 1.6170                 1.6210
 IR Inten    --     14.4256                14.3930                 3.5192

                     37                     38                     39
                      A                      A                      A
 Frequencies --   1391.9119              1404.4651              1444.4292
 Red. masses --      1.5016                 1.5821                 1.5608
 Frc consts  --      1.7140                 1.8386                 1.9186
 IR Inten    --     29.1434                 3.8912                 5.1592

                     40                     41                     42
                      A                      A                      A
 Frequencies --   1488.0416              1501.3929              2946.4392
 Red. masses --      1.0830                 1.0993                 1.0824
 Frc consts  --      1.4129                 1.4600                 5.5365
 IR Inten    --      1.0688                 2.6324                39.8156

                     43                     44                     45
                      A                      A                      A
 Frequencies --   3018.8705              3033.4971              3057.9454
 Red. masses --      1.0589                 1.0622                 1.1035
 Frc consts  --      5.6856                 5.7591                 6.0799
 IR Inten    --     35.1788                22.8211                25.1355

                     46                     47                     48
                      A                      A                      A
 Frequencies --   3078.3039              3093.8050              3098.9648
 Red. masses --      1.1004                 1.0863                 1.0873
 Frc consts  --      6.1436                 6.1260                 6.1524
 IR Inten    --     20.4184                 9.2764                72.2962

                     49                     50                     51
                      A                      A                      A
 Frequencies --   3099.5733              3112.2560              3814.8466
 Red. masses --      1.0883                 1.0966                 1.0661
 Frc consts  --      6.1602                 6.2582                 9.1414
 IR Inten    --     77.2443                16.0112                16.4681

 - Thermochemistry -
 -------------------
 Temperature   298.150 Kelvin.  Pressure   1.00000 Atm.
 Atom     1 has atomic number  8 and mass  15.99491

 Molecular mass:   126.06808 amu.
 Principal axes and moments of inertia in atomic units:
                           1         2         3
     Eigenvalues --   441.051271412.574321606.76998
           X            0.99995  -0.00832  -0.00517
           Y            0.00833   0.99996   0.00216
           Z            0.00515  -0.00220   0.99998
 This molecule is an asymmetric top.
 Rotational symmetry number  1.
 Warning -- assumption of classical behavior for rotation
           may cause significant error
 Rotational temperatures (Kelvin)      0.19638     0.06132     0.05391
 Rotational constants (GHZ):           4.09191     1.27763     1.12321
 Zero-point vibrational energy     423177.2 (Joules/Mol)
                                  101.14178 (Kcal/Mol)
 Warning -- explicit consideration of   8 degrees of freedom as
           vibrations may cause significant error
 Vibrational temperatures:    180.84   343.30   415.08   484.47   519.04
          (Kelvin)            591.74   632.72   662.74   896.29  1039.36
                             1070.11  1128.76  1152.56  1231.92  1259.25
                             1290.78  1337.19  1406.24  1447.76  1478.26
                             1510.86  1535.84  1581.67  1605.95  1656.66
                             1667.36  1674.93  1726.17  1747.21  1794.24
                             1809.73  1819.94  1850.13  1879.80  1913.39
                             1935.83  2002.65  2020.71  2078.21  2140.96
                             2160.17  4239.26  4343.48  4364.52  4399.70
                             4428.99  4451.29  4458.71  4459.59  4477.84
                             5488.71

 Zero-point correction=                           0.161180 (Hartree/Particle)
 Thermal correction to Energy=                    0.168345
 Thermal correction to Enthalpy=                  0.169289
 Thermal correction to Gibbs Free Energy=         0.129861
 Sum of electronic and zero-point Energies=           -422.966960
 Sum of electronic and thermal Energies=              -422.959795
 Sum of electronic and thermal Enthalpies=            -422.958851
 Sum of electronic and thermal Free Energies=         -422.998278

                     E (Thermal)             CV                S
                      KCal/Mol        Cal/Mol-Kelvin    Cal/Mol-Kelvin
 Total                  105.638             29.530             82.983
 Electronic               0.000              0.000              0.000
 Translational            0.889              2.981             40.409
 Rotational               0.889              2.981             28.395
 Vibrational            103.860             23.569             14.180
 Vibration     1          0.611              1.927              3.011
 Vibration     2          0.657              1.781              1.813
 Vibration     3          0.685              1.695              1.483
 Vibration     4          0.717              1.602              1.228
 Vibration     5          0.735              1.553              1.119
 Vibration     6          0.775              1.446              0.922
 Vibration     7          0.800              1.383              0.827
 Vibration     8          0.818              1.337              0.764

 Normal termination of Gaussian 09 at Tue Jan 28 03:44:00 2020.
