 Gaussian 09, Revision D.01,
 Gaussian 09:  ES64L-G09RevD.01 24-Apr-2013

 -----------------------------
 # b3lyp 6-31G(2df,p) opt Freq
 -----------------------------

 -----
 titel
 -----
 Symbolic Z-matrix:
 Charge =  0 Multiplicity = 1

 SCF Done:  E(RB3LYP) =  -423.122673271     A.U. after   12 cycles
 Optimization completed.
    -- Stationary point found.
 Normal termination of Gaussian 09 at Mon Jan 27 15:58:22 2020.

 ----------------------------------------------------------------------
 #N Geom=AllCheck Guess=TCheck SCRF=Check GenChk RB3LYP/6-31G(2df,p) Fr
 eq
 ----------------------------------------------------------------------

 Structure from the checkpoint file:  "/scratch/puck/g09_ea71f39d-2545-4930-ad57-30aa66353ee4/Gau-163905.chk"
 -----
 titel
 -----
 Charge =  0 Multiplicity = 1

                         Standard orientation:
 ---------------------------------------------------------------------
 Center     Atomic      Atomic             Coordinates (Angstroms)
 Number     Number       Type             X           Y           Z
 ---------------------------------------------------------------------
      1          6           0       -1.607103   -0.484863    1.252471
      2          6           0       -0.826046   -0.285844   -0.034806
      3          8           0       -1.673791    0.037502   -1.129051
      4          6           0        0.157802   -1.352679   -0.501315
      5          6           0        1.475768   -1.005370    0.205082
      6          8           0        1.241162    0.105789    1.074924
      7          6           0        0.431843    0.665090   -0.008031
      8          6           0        0.330158    2.156115   -0.020757
      9          6           0        1.119100   -0.301765   -1.050820
     10          1           0       -2.302711   -1.323917    1.151343
     11          1           0       -0.926273   -0.679802    2.082919
     12          1           0       -2.193858    0.410364    1.498358
     13          1           0       -2.287615    0.716305   -0.828773
     14          1           0       -0.065836   -2.334523   -0.898853
     15          1           0        2.248310   -1.719506    0.457131
     16          1           0       -0.315566    2.477635   -0.843436
     17          1           0       -0.094189    2.516334    0.923069
     18          1           0        1.313666    2.616538   -0.148530
     19          1           0        1.595969   -0.169871   -2.011150
 ---------------------------------------------------------------------

 SCF Done:  E(RB3LYP) =  -423.122673271     A.U. after    1 cycles

 The electronic state is 1-A.
 Alpha  occ. eigenvalues --  -19.13708 -19.13287 -10.24065 -10.23776 -10.23696
 Alpha  occ. eigenvalues --  -10.18955 -10.18925 -10.18279 -10.17127  -1.06019
 Alpha  occ. eigenvalues --   -1.01813  -0.85001  -0.76097  -0.73291  -0.65707
 Alpha  occ. eigenvalues --   -0.61755  -0.55441  -0.54549  -0.50328  -0.47778
 Alpha  occ. eigenvalues --   -0.46333  -0.44911  -0.43259  -0.40156  -0.39882
 Alpha  occ. eigenvalues --   -0.39211  -0.37024  -0.36447  -0.35675  -0.31586
 Alpha  occ. eigenvalues --   -0.29796  -0.28044  -0.25413  -0.22244
 Alpha virt. eigenvalues --    0.06806   0.08800   0.11161   0.11814   0.12684
 Alpha virt. eigenvalues --    0.13438   0.14768   0.15127   0.16367   0.16859
 Alpha virt. eigenvalues --    0.17143   0.18405   0.19791   0.20968   0.23100

 Mulliken charges:
               1
     1  C   -0.474274
     2  C    0.390972
     3  O   -0.480380
     4  C   -0.157051
     5  C    0.079319
     6  O   -0.329287
     7  C    0.371008
     8  C   -0.533758
     9  C   -0.199217
    10  H    0.121290
    11  H    0.141067
    12  H    0.100204
    13  H    0.276333
    14  H    0.090407
    15  H    0.109923
    16  H    0.127765
    17  H    0.130409
    18  H    0.134701
    19  H    0.100571
 Sum of Mulliken charges =   0.00000

 Dipole moment (field-independent basis, Debye):
    X=             -0.5080    Y=              0.4122    Z=             -0.3076  Tot=              0.7229
 Quadrupole moment (field-independent basis, Debye-Ang):
   XX=            -51.0717   YY=            -48.6144   ZZ=            -56.7746
   XY=             -3.8919   XZ=             -4.0134   YZ=             -0.8750

  Exact polarizability:  76.680  -2.708  77.765  -2.773   0.073  66.961
 Approx polarizability: 109.287  -3.020 111.002   1.770   0.448 105.543

                      1                      2                      3
                      A                      A                      A
 Frequencies --    179.2105               201.4763               212.8561
 Red. masses --      2.6888                 1.1595                 1.3757
 Frc consts  --      0.0509                 0.0277                 0.0367
 IR Inten    --      0.9802                 0.7532                 2.4708

                      4                      5                      6
                      A                      A                      A
 Frequencies --    233.1762               241.1307               297.9723
 Red. masses --      2.0132                 2.2544                 1.2370
 Frc consts  --      0.0645                 0.0772                 0.0647
 IR Inten    --      0.7279                 1.2656                65.2564

                      7                      8                      9
                      A                      A                      A
 Frequencies --    323.5284               382.1961               427.2885
 Red. masses --      2.0120                 3.4714                 3.3558
 Frc consts  --      0.1241                 0.2988                 0.3610
 IR Inten    --     39.1163                 6.9697                 6.6103

                     10                     11                     12
                      A                      A                      A
 Frequencies --    535.6657               598.5717               638.7498
 Red. masses --      5.4378                 3.8307                 3.9145
 Frc consts  --      0.9193                 0.8086                 0.9410
 IR Inten    --      0.0773                13.9914                 0.7046

                     13                     14                     15
                      A                      A                      A
 Frequencies --    653.9049               778.6121               793.5905
 Red. masses --      3.5293                 1.4286                 3.4484
 Frc consts  --      0.8891                 0.5103                 1.2795
 IR Inten    --      1.8765                 2.6782                 5.1586

                     16                     17                     18
                      A                      A                      A
 Frequencies --    800.9556               809.8289               859.0069
 Red. masses --      1.7379                 2.2272                 3.1220
 Frc consts  --      0.6569                 0.8606                 1.3573
 IR Inten    --     13.1063                 3.0189                27.6564

                     19                     20                     21
                      A                      A                      A
 Frequencies --    908.7248               946.8319               955.1583
 Red. masses --      2.3084                 1.4201                 1.8980
 Frc consts  --      1.1231                 0.7501                 1.0202
 IR Inten    --      4.4483                10.7627                19.5824

                     22                     23                     24
                      A                      A                      A
 Frequencies --    993.3648              1028.5325              1034.2155
 Red. masses --      2.9047                 1.5296                 2.5013
 Frc consts  --      1.6888                 0.9534                 1.5763
 IR Inten    --     31.0371                 3.1738                10.7133

                     25                     26                     27
                      A                      A                      A
 Frequencies --   1050.8995              1115.9537              1121.7538
 Red. masses --      1.7022                 1.8104                 1.6854
 Frc consts  --      1.1076                 1.3283                 1.2496
 IR Inten    --      1.8863                28.2964                44.6787

                     28                     29                     30
                      A                      A                      A
 Frequencies --   1134.1385              1167.9110              1185.5391
 Red. masses --      2.0773                 2.6709                 2.0872
 Frc consts  --      1.5743                 2.1465                 1.7284
 IR Inten    --     27.9734                 6.3875                 5.6459

                     31                     32                     33
                      A                      A                      A
 Frequencies --   1200.6583              1273.1137              1332.5974
 Red. masses --      4.2918                 1.5688                 2.8720
 Frc consts  --      3.6452                 1.4981                 3.0049
 IR Inten    --     58.6106                10.3431                14.6480

                     34                     35                     36
                      A                      A                      A
 Frequencies --   1367.9590              1389.0602              1404.5583
 Red. masses --      2.5644                 1.4017                 1.7415
 Frc consts  --      2.8274                 1.5935                 2.0242
 IR Inten    --     11.7523                 6.2799                47.5283

                     37                     38                     39
                      A                      A                      A
 Frequencies --   1413.9401              1480.2519              1486.6340
 Red. masses --      1.8261                 1.0480                 1.0720
 Frc consts  --      2.1510                 1.3529                 1.3959
 IR Inten    --     16.4245                 2.4946                 8.7585

                     40                     41                     42
                      A                      A                      A
 Frequencies --   1490.7730              1500.1606              3019.6373
 Red. masses --      1.0515                 1.0622                 1.0444
 Frc consts  --      1.3769                 1.4084                 5.6107
 IR Inten    --      1.0040                 7.7376                25.8371

                     43                     44                     45
                      A                      A                      A
 Frequencies --   3036.4407              3089.4511              3106.3237
 Red. masses --      1.0358                 1.0928                 1.0996
 Frc consts  --      5.6266                 6.1457                 6.2512
 IR Inten    --     16.5665                21.3461                12.4031

                     46                     47                     48
                      A                      A                      A
 Frequencies --   3119.1591              3139.6815              3198.1010
 Red. masses --      1.1014                 1.0988                 1.0916
 Frc consts  --      6.3136                 6.3817                 6.5781
 IR Inten    --     11.6503                 7.8115                 8.3462

                     49                     50                     51
                      A                      A                      A
 Frequencies --   3206.2259              3223.6335              3805.4746
 Red. masses --      1.0902                 1.1048                 1.0658
 Frc consts  --      6.6033                 6.7645                 9.0941
 IR Inten    --     15.2733                13.7598                12.0961

 - Thermochemistry -
 -------------------
 Temperature   298.150 Kelvin.  Pressure   1.00000 Atm.
 Atom     1 has atomic number  6 and mass  12.00000

 Molecular mass:   126.06808 amu.
 Principal axes and moments of inertia in atomic units:
                           1         2         3
     Eigenvalues --   786.42953 961.388991111.65292
           X            0.99595  -0.01506  -0.08869
           Y            0.01229   0.99942  -0.03171
           Z            0.08911   0.03049   0.99555
 This molecule is an asymmetric top.
 Rotational symmetry number  1.
 Warning -- assumption of classical behavior for rotation
           may cause significant error
 Rotational temperatures (Kelvin)      0.11014     0.09009     0.07791
 Rotational constants (GHZ):           2.29485     1.87722     1.62348
 Zero-point vibrational energy     412081.1 (Joules/Mol)
                                   98.48974 (Kcal/Mol)
 Warning -- explicit consideration of  11 degrees of freedom as
           vibrations may cause significant error
 Vibrational temperatures:    257.84   289.88   306.25   335.49   346.93
          (Kelvin)            428.72   465.48   549.89   614.77   770.70
                              861.21   919.02   940.82  1120.25  1141.80
                             1152.39  1165.16  1235.92  1307.45  1362.28
                             1374.26  1429.23  1479.83  1488.00  1512.01
                             1605.61  1613.95  1631.77  1680.36  1705.72
                             1727.48  1831.72  1917.31  1968.19  1998.55
                             2020.84  2034.34  2129.75  2138.93  2144.89
                             2158.39  4344.58  4368.76  4445.03  4469.30
                             4487.77  4517.30  4601.35  4613.04  4638.08
                             5475.22

 Zero-point correction=                           0.156953 (Hartree/Particle)
 Thermal correction to Energy=                    0.165398
 Thermal correction to Enthalpy=                  0.166342
 Thermal correction to Gibbs Free Energy=         0.124844
 Sum of electronic and zero-point Energies=           -422.965720
 Sum of electronic and thermal Energies=              -422.957276
 Sum of electronic and thermal Enthalpies=            -422.956332
 Sum of electronic and thermal Free Energies=         -422.997830

                     E (Thermal)             CV                S
                      KCal/Mol        Cal/Mol-Kelvin    Cal/Mol-Kelvin
 Total                  103.789             33.768             87.340
 Electronic               0.000              0.000              0.000
 Translational            0.889              2.981             40.409
 Rotational               0.889              2.981             28.221
 Vibrational            102.011             27.806             18.710
 Vibration     1          0.629              1.868              2.337
 Vibration     2          0.638              1.838              2.120
 Vibration     3          0.644              1.821              2.019
 Vibration     4          0.654              1.790              1.854
 Vibration     5          0.658              1.777              1.795
 Vibration     6          0.691              1.677              1.428
 Vibration     7          0.708              1.628              1.292
 Vibration     8          0.752              1.508              1.030
 Vibration     9          0.789              1.411              0.868
 Vibration    10          0.891              1.171              0.575
 Vibration    11          0.957              1.035              0.452

 Normal termination of Gaussian 09 at Mon Jan 27 16:43:41 2020.
