 Gaussian 09, Revision D.01,
 Gaussian 09:  ES64L-G09RevD.01 24-Apr-2013

 -----------------------------
 # b3lyp 6-31G(2df,p) opt Freq
 -----------------------------

 -----
 titel
 -----
 Symbolic Z-matrix:
 Charge =  0 Multiplicity = 1

 SCF Done:  E(RB3LYP) =  -423.151423550     A.U. after   14 cycles
 Optimization completed.
    -- Stationary point found.
 Normal termination of Gaussian 09 at Mon Jan 27 13:18:26 2020.

 ----------------------------------------------------------------------
 #N Geom=AllCheck Guess=TCheck SCRF=Check GenChk RB3LYP/6-31G(2df,p) Fr
 eq
 ----------------------------------------------------------------------

 Structure from the checkpoint file:  "/scratch/puck/g09_fd97dd67-ad7d-4395-bf07-348be1b34d3b/Gau-55328.chk"
 -----
 titel
 -----
 Charge =  0 Multiplicity = 1

                         Standard orientation:
 ---------------------------------------------------------------------
 Center     Atomic      Atomic             Coordinates (Angstroms)
 Number     Number       Type             X           Y           Z
 ---------------------------------------------------------------------
      1          8           0        3.107593   -1.468721   -0.262851
      2          6           0        2.491728   -0.580261    0.274035
      3          6           0        1.491753    0.278779   -0.386747
      4          6           0        1.289875    1.716738    0.098755
      5          6           0        0.251827    0.715112    0.410586
      6          8           0       -0.953114    0.817473   -0.269431
      7          6           0       -1.656875   -0.394392   -0.335359
      8          6           0       -3.136918   -0.282894   -0.478870
      9          6           0       -2.538876   -0.786997    0.821169
     10          1           0        2.642257   -0.350476    1.357321
     11          1           0        1.335939    0.092159   -1.443228
     12          1           0        1.922306    2.074389    0.904356
     13          1           0        1.063253    2.444438   -0.671092
     14          1           0        0.172271    0.343363    1.431839
     15          1           0       -1.130877   -1.180024   -0.875285
     16          1           0       -3.546770    0.720487   -0.475309
     17          1           0       -3.646508   -0.982495   -1.131181
     18          1           0       -2.570756   -0.110520    1.668001
     19          1           0       -2.632019   -1.837852    1.071413
 ---------------------------------------------------------------------

 SCF Done:  E(RB3LYP) =  -423.151423550     A.U. after    1 cycles

 The electronic state is 1-A.
 Alpha  occ. eigenvalues --  -19.16479 -19.12995 -10.26781 -10.25816 -10.24375
 Alpha  occ. eigenvalues --  -10.20847 -10.20483 -10.19282 -10.19258  -1.06325
 Alpha  occ. eigenvalues --   -1.03769  -0.88107  -0.84495  -0.67701  -0.63334
 Alpha  occ. eigenvalues --   -0.60858  -0.58724  -0.58106  -0.53414  -0.50557
 Alpha  occ. eigenvalues --   -0.49432  -0.46140  -0.43335  -0.42098  -0.40616
 Alpha  occ. eigenvalues --   -0.39707  -0.39418  -0.37403  -0.35900  -0.31837
 Alpha  occ. eigenvalues --   -0.30357  -0.28917  -0.26102  -0.24428
 Alpha virt. eigenvalues --   -0.01773   0.08576   0.09039   0.10332   0.10785
 Alpha virt. eigenvalues --    0.12483   0.13193   0.13836   0.14930   0.15591
 Alpha virt. eigenvalues --    0.17800   0.18398   0.19484   0.21669   0.22076

 Mulliken charges:
               1
     1  O   -0.269098
     2  C    0.163120
     3  C   -0.134602
     4  C   -0.327486
     5  C    0.117946
     6  O   -0.247112
     7  C    0.135089
     8  C   -0.286301
     9  C   -0.287874
    10  H    0.059253
    11  H    0.116159
    12  H    0.127343
    13  H    0.142294
    14  H    0.101881
    15  H    0.098784
    16  H    0.129352
    17  H    0.119675
    18  H    0.122102
    19  H    0.119474
 Sum of Mulliken charges =   0.00000

 Dipole moment (field-independent basis, Debye):
    X=             -2.0472    Y=              1.4054    Z=              1.0673  Tot=              2.7029
 Quadrupole moment (field-independent basis, Debye-Ang):
   XX=            -60.3729   YY=            -54.9645   ZZ=            -51.2985
   XY=              9.2262   XZ=              2.8201   YZ=             -0.0379

  Exact polarizability:  93.962  -3.153  75.436   1.731   2.003  68.172
 Approx polarizability: 119.014 -12.859 115.830  -1.387   6.385 104.517

                      1                      2                      3
                      A                      A                      A
 Frequencies --     51.5712                74.1691               109.9268
 Red. masses --      4.2102                 3.2258                 3.7123
 Frc consts  --      0.0066                 0.0105                 0.0264
 IR Inten    --      2.1357                 2.3859                 1.6557

                      4                      5                      6
                      A                      A                      A
 Frequencies --    153.6568               237.3241               275.7078
 Red. masses --      3.0818                 2.9396                 2.5239
 Frc consts  --      0.0429                 0.0975                 0.1130
 IR Inten    --      3.0319                 5.6967                 1.3266

                      7                      8                      9
                      A                      A                      A
 Frequencies --    304.5066               401.6209               471.9274
 Red. masses --      3.4959                 2.3432                 4.3987
 Frc consts  --      0.1910                 0.2227                 0.5772
 IR Inten    --      2.9521                 0.3796                 2.4748

                     10                     11                     12
                      A                      A                      A
 Frequencies --    483.1182               534.6359               750.6803
 Red. masses --      2.5420                 3.8315                 1.3711
 Frc consts  --      0.3496                 0.6453                 0.4552
 IR Inten    --      7.0450                22.5162                 3.9959

                     13                     14                     15
                      A                      A                      A
 Frequencies --    777.6802               818.2390               823.1402
 Red. masses --      2.2431                 1.9399                 1.4735
 Frc consts  --      0.7993                 0.7652                 0.5882
 IR Inten    --      5.7826                 8.9510                13.6577

                     16                     17                     18
                      A                      A                      A
 Frequencies --    855.4884               886.8414               954.8121
 Red. masses --      1.3496                 2.0691                 2.8666
 Frc consts  --      0.5819                 0.9588                 1.5397
 IR Inten    --      9.6421                59.3568                25.0299

                     19                     20                     21
                      A                      A                      A
 Frequencies --    984.1460              1007.5774              1045.7446
 Red. masses --      2.2284                 2.6126                 1.7741
 Frc consts  --      1.2716                 1.5627                 1.1431
 IR Inten    --     11.3193                29.9864                 2.0862

                     22                     23                     24
                      A                      A                      A
 Frequencies --   1051.6373              1070.8787              1074.3002
 Red. masses --      1.3821                 1.3373                 1.5115
 Frc consts  --      0.9006                 0.9036                 1.0278
 IR Inten    --     10.3800                12.3146                 2.6663

                     25                     26                     27
                      A                      A                      A
 Frequencies --   1077.3404              1116.3773              1128.8180
 Red. masses --      1.5722                 1.3199                 1.2230
 Frc consts  --      1.0751                 0.9692                 0.9182
 IR Inten    --      4.6982                35.8644                 8.2563

                     28                     29                     30
                      A                      A                      A
 Frequencies --   1166.5536              1190.1089              1193.0054
 Red. masses --      1.8749                 1.8881                 1.7450
 Frc consts  --      1.5033                 1.5756                 1.4633
 IR Inten    --     63.5382                22.4885                26.0544

                     31                     32                     33
                      A                      A                      A
 Frequencies --   1195.5374              1232.7095              1248.6590
 Red. masses --      1.8784                 1.9604                 2.1203
 Frc consts  --      1.5819                 1.7551                 1.9478
 IR Inten    --     19.4884                 1.5887                62.5242

                     34                     35                     36
                      A                      A                      A
 Frequencies --   1292.2477              1375.9616              1421.7956
 Red. masses --      1.4290                 1.4659                 1.2733
 Frc consts  --      1.4060                 1.6352                 1.5166
 IR Inten    --      5.4622               133.3812                 1.2601

                     37                     38                     39
                      A                      A                      A
 Frequencies --   1444.4324              1453.5654              1479.1958
 Red. masses --      1.2564                 1.0909                 1.4488
 Frc consts  --      1.5445                 1.3580                 1.8678
 IR Inten    --      7.8851                 1.6506                47.9114

                     40                     41                     42
                      A                      A                      A
 Frequencies --   1500.7254              1816.2998              2830.9398
 Red. masses --      1.5698                10.0801                 1.0805
 Frc consts  --      2.0830                19.5926                 5.1018
 IR Inten    --      2.5942               265.6387               102.2447

                     43                     44                     45
                      A                      A                      A
 Frequencies --   3107.9256              3117.8298              3137.6675
 Red. masses --      1.0866                 1.0869                 1.0527
 Frc consts  --      6.1841                 6.2250                 6.1059
 IR Inten    --     19.3165                11.9505                10.8844

                     46                     47                     48
                      A                      A                      A
 Frequencies --   3141.2886              3145.0158              3188.4451
 Red. masses --      1.0558                 1.0580                 1.0898
 Frc consts  --      6.1385                 6.1658                 6.5276
 IR Inten    --      7.3112                 6.5095                 1.4950

                     49                     50                     51
                      A                      A                      A
 Frequencies --   3222.3874              3236.0549              3237.3097
 Red. masses --      1.1185                 1.1161                 1.1160
 Frc consts  --      6.8431                 6.8862                 6.8908
 IR Inten    --      1.4076                 2.2887                10.7669

 - Thermochemistry -
 -------------------
 Temperature   298.150 Kelvin.  Pressure   1.00000 Atm.
 Atom     1 has atomic number  8 and mass  15.99491

 Molecular mass:   126.06808 amu.
 Principal axes and moments of inertia in atomic units:
                           1         2         3
     Eigenvalues --   540.197922167.370862473.25067
           X            0.99957   0.02885   0.00459
           Y           -0.02884   0.99958  -0.00178
           Z           -0.00464   0.00164   0.99999
 This molecule is an asymmetric top.
 Rotational symmetry number  1.
 Warning -- assumption of classical behavior for rotation
           may cause significant error
 Rotational temperatures (Kelvin)      0.16034     0.03996     0.03502
 Rotational constants (GHZ):           3.34089     0.83269     0.72970
 Zero-point vibrational energy     412098.7 (Joules/Mol)
                                   98.49396 (Kcal/Mol)
 Warning -- explicit consideration of  11 degrees of freedom as
           vibrations may cause significant error
 Vibrational temperatures:     74.20   106.71   158.16   221.08   341.46
          (Kelvin)            396.68   438.12   577.84   679.00   695.10
                              769.22  1080.06  1118.91  1177.26  1184.31
                             1230.86  1275.97  1373.76  1415.96  1449.68
                             1504.59  1513.07  1540.75  1545.68  1550.05
                             1606.22  1624.12  1678.41  1712.30  1716.47
                             1720.11  1773.59  1796.54  1859.25  1979.70
                             2045.64  2078.21  2091.35  2128.23  2159.21
                             2613.25  4073.09  4471.61  4485.86  4514.40
                             4519.61  4524.97  4587.46  4636.29  4655.96
                             4657.76

 Zero-point correction=                           0.156960 (Hartree/Particle)
 Thermal correction to Energy=                    0.166026
 Thermal correction to Enthalpy=                  0.166970
 Thermal correction to Gibbs Free Energy=         0.122017
 Sum of electronic and zero-point Energies=           -422.994463
 Sum of electronic and thermal Energies=              -422.985398
 Sum of electronic and thermal Enthalpies=            -422.984454
 Sum of electronic and thermal Free Energies=         -423.029407

                     E (Thermal)             CV                S
                      KCal/Mol        Cal/Mol-Kelvin    Cal/Mol-Kelvin
 Total                  104.183             33.110             94.612
 Electronic               0.000              0.000              0.000
 Translational            0.889              2.981             40.409
 Rotational               0.889              2.981             29.450
 Vibrational            102.405             27.148             24.753
 Vibration     1          0.596              1.977              4.756
 Vibration     2          0.599              1.966              4.040
 Vibration     3          0.606              1.941              3.270
 Vibration     4          0.619              1.899              2.626
 Vibration     5          0.656              1.784              1.823
 Vibration     6          0.677              1.718              1.560
 Vibration     7          0.695              1.665              1.392
 Vibration     8          0.767              1.467              0.957
 Vibration     9          0.829              1.312              0.732
 Vibration    10          0.839              1.287              0.702
 Vibration    11          0.890              1.173              0.577

 Normal termination of Gaussian 09 at Mon Jan 27 13:56:51 2020.
