 Gaussian 09, Revision D.01,
 Gaussian 09:  ES64L-G09RevD.01 24-Apr-2013

 -----------------------------
 # b3lyp 6-31G(2df,p) opt Freq
 -----------------------------

 -----
 titel
 -----
 Symbolic Z-matrix:
 Charge =  0 Multiplicity = 1

 SCF Done:  E(RB3LYP) =  -423.120274685     A.U. after   13 cycles
 Optimization completed.
    -- Stationary point found.
 Normal termination of Gaussian 09 at Mon Jan 27 18:07:12 2020.

 ----------------------------------------------------------------------
 #N Geom=AllCheck Guess=TCheck SCRF=Check GenChk RB3LYP/6-31G(2df,p) Fr
 eq
 ----------------------------------------------------------------------

 Structure from the checkpoint file:  "/scratch/puck/g09_2340dd77-4d04-44e2-b97b-b2ae4d4fd999/Gau-181619.chk"
 -----
 titel
 -----
 Charge =  0 Multiplicity = 1

                         Standard orientation:
 ---------------------------------------------------------------------
 Center     Atomic      Atomic             Coordinates (Angstroms)
 Number     Number       Type             X           Y           Z
 ---------------------------------------------------------------------
      1          8           0       -2.114677   -1.242640   -0.077031
      2          6           0       -1.006448   -0.406393    0.006184
      3          6           0       -0.189217   -0.136258    1.288047
      4          6           0        0.749675    0.545567    0.227639
      5          6           0        0.012749    1.818764   -0.146326
      6          6           0       -1.366713    1.072513   -0.379668
      7          8           0        2.119077    0.149090    0.244029
      8          6           0        1.704939   -1.115485   -0.376562
      9          6           0        0.321775   -0.524787   -0.794113
     10          1           0       -1.851639   -2.122567    0.210123
     11          1           0       -0.645888    0.489638    2.057902
     12          1           0        0.263610   -1.021501    1.736032
     13          1           0       -0.041288    2.573593    0.642998
     14          1           0        0.396780    2.283921   -1.057212
     15          1           0       -2.162633    1.443806    0.270347
     16          1           0       -1.706761    1.142880   -1.416035
     17          1           0        2.354389   -1.358998   -1.220666
     18          1           0        1.716029   -1.940375    0.343378
     19          1           0        0.281635   -0.265533   -1.854064
 ---------------------------------------------------------------------

 SCF Done:  E(RB3LYP) =  -423.120274685     A.U. after    1 cycles

 The electronic state is 1-A.
 Alpha  occ. eigenvalues --  -19.14389 -19.13756 -10.25004 -10.24221 -10.24034
 Alpha  occ. eigenvalues --  -10.19086 -10.18898 -10.18194 -10.17824  -1.04515
 Alpha  occ. eigenvalues --   -1.02865  -0.87688  -0.73969  -0.70118  -0.67472
 Alpha  occ. eigenvalues --   -0.63985  -0.56239  -0.52472  -0.51824  -0.50044
 Alpha  occ. eigenvalues --   -0.46943  -0.45192  -0.43521  -0.40397  -0.38750
 Alpha  occ. eigenvalues --   -0.38017  -0.35981  -0.35512  -0.34930  -0.34002
 Alpha  occ. eigenvalues --   -0.30726  -0.27616  -0.25857  -0.23855
 Alpha virt. eigenvalues --    0.06446   0.08651   0.08780   0.11038   0.11268
 Alpha virt. eigenvalues --    0.12818   0.14448   0.15209   0.16747   0.17372
 Alpha virt. eigenvalues --    0.18496   0.19100   0.20349   0.21117   0.22389

 Mulliken charges:
               1
     1  O   -0.478835
     2  C    0.384001
     3  C   -0.362344
     4  C    0.479751
     5  C   -0.313966
     6  C   -0.231156
     7  O   -0.355335
     8  C   -0.160691
     9  C   -0.167143
    10  H    0.279860
    11  H    0.094079
    12  H    0.097539
    13  H    0.104859
    14  H    0.108646
    15  H    0.110341
    16  H    0.108534
    17  H    0.117098
    18  H    0.106457
    19  H    0.078306
 Sum of Mulliken charges =   0.00000

 Dipole moment (field-independent basis, Debye):
    X=             -0.3777    Y=             -0.9844    Z=             -0.1478  Tot=              1.0647
 Quadrupole moment (field-independent basis, Debye-Ang):
   XX=            -61.8224   YY=            -47.4212   ZZ=            -52.0308
   XY=             -2.8466   XZ=             -2.8605   YZ=             -1.0838

  Exact polarizability:  77.003  -5.961  76.618  -2.641  -0.470  68.191
 Approx polarizability: 112.951  -4.421 110.617  -1.833   1.253 104.880

                      1                      2                      3
                      A                      A                      A
 Frequencies --    245.5201               272.7415               289.9338
 Red. masses --      2.1475                 3.0438                 1.9589
 Frc consts  --      0.0763                 0.1334                 0.0970
 IR Inten    --      9.1730                10.2698                 0.2708

                      4                      5                      6
                      A                      A                      A
 Frequencies --    308.9658               369.8596               413.3866
 Red. masses --      1.3993                 3.6093                 3.2328
 Frc consts  --      0.0787                 0.2909                 0.3255
 IR Inten    --     68.2683                18.6364                 4.2198

                      7                      8                      9
                      A                      A                      A
 Frequencies --    459.7959               506.7545               553.9775
 Red. masses --      2.2214                 2.7070                 3.0224
 Frc consts  --      0.2767                 0.4096                 0.5465
 IR Inten    --      3.3788                 2.7724                 2.6512

                     10                     11                     12
                      A                      A                      A
 Frequencies --    610.8386               658.8912               752.4392
 Red. masses --      6.3920                 3.1193                 3.2302
 Frc consts  --      1.4052                 0.7979                 1.0775
 IR Inten    --      0.8170                 1.9425                 3.1915

                     13                     14                     15
                      A                      A                      A
 Frequencies --    784.4456               836.3456               846.1692
 Red. masses --      3.0395                 1.9264                 1.7215
 Frc consts  --      1.1020                 0.7939                 0.7262
 IR Inten    --      0.4815                 1.6222                 1.4901

                     16                     17                     18
                      A                      A                      A
 Frequencies --    898.9166               914.5437               940.2860
 Red. masses --      2.7794                 2.8790                 3.4567
 Frc consts  --      1.3233                 1.4187                 1.8006
 IR Inten    --     25.9341                14.1000                17.0894

                     19                     20                     21
                      A                      A                      A
 Frequencies --    976.4781               998.6400              1027.6135
 Red. masses --      1.6044                 2.2161                 2.1666
 Frc consts  --      0.9013                 1.3022                 1.3480
 IR Inten    --     11.1578                23.0090                19.8961

                     22                     23                     24
                      A                      A                      A
 Frequencies --   1037.5741              1053.0496              1085.6352
 Red. masses --      1.6763                 2.1462                 2.1352
 Frc consts  --      1.0633                 1.4022                 1.4827
 IR Inten    --     19.4411                 0.8722                37.4022

                     25                     26                     27
                      A                      A                      A
 Frequencies --   1101.6539              1140.1358              1157.4354
 Red. masses --      1.8093                 1.8304                 1.1769
 Frc consts  --      1.2937                 1.4019                 0.9289
 IR Inten    --     22.7276                10.2648                 2.4206

                     28                     29                     30
                      A                      A                      A
 Frequencies --   1176.6919              1200.5041              1221.2477
 Red. masses --      1.5987                 1.8259                 1.1836
 Frc consts  --      1.3042                 1.5504                 1.0401
 IR Inten    --     34.2084                80.9183                 1.8907

                     31                     32                     33
                      A                      A                      A
 Frequencies --   1234.0696              1268.5119              1281.6420
 Red. masses --      1.8798                 1.6297                 1.7345
 Frc consts  --      1.6867                 1.5451                 1.6786
 IR Inten    --     43.4518                19.0335                80.6049

                     34                     35                     36
                      A                      A                      A
 Frequencies --   1317.2010              1334.0425              1361.7057
 Red. masses --      2.1593                 1.6147                 1.8851
 Frc consts  --      2.2073                 1.6931                 2.0595
 IR Inten    --     34.0589                18.0087                 4.1351

                     37                     38                     39
                      A                      A                      A
 Frequencies --   1369.1272              1485.6745              1495.1022
 Red. masses --      1.6836                 1.0941                 1.1121
 Frc consts  --      1.8594                 1.4228                 1.4646
 IR Inten    --     45.3491                 1.4046                 1.2748

                     40                     41                     42
                      A                      A                      A
 Frequencies --   1514.0058              1529.1615              3042.1438
 Red. masses --      1.1261                 1.1343                 1.0587
 Frc consts  --      1.5208                 1.5627                 5.7725
 IR Inten    --      2.5262                 3.8890                52.9149

                     43                     44                     45
                      A                      A                      A
 Frequencies --   3057.9716              3067.4015              3072.6969
 Red. masses --      1.0581                 1.0596                 1.0610
 Frc consts  --      5.8299                 5.8741                 5.9019
 IR Inten    --     35.4300                36.1931                26.9207

                     46                     47                     48
                      A                      A                      A
 Frequencies --   3083.7374              3105.0708              3106.4104
 Red. masses --      1.0871                 1.1073                 1.1059
 Frc consts  --      6.0908                 6.2901                 6.2876
 IR Inten    --      7.5676                 0.2989                40.3350

                     49                     50                     51
                      A                      A                      A
 Frequencies --   3123.0388              3136.9589              3822.5351
 Red. masses --      1.1068                 1.1086                 1.0659
 Frc consts  --      6.3603                 6.4274                 9.1766
 IR Inten    --     40.4052                26.6540                23.0521

 - Thermochemistry -
 -------------------
 Temperature   298.150 Kelvin.  Pressure   1.00000 Atm.
 Atom     1 has atomic number  8 and mass  15.99491

 Molecular mass:   126.06808 amu.
 Principal axes and moments of inertia in atomic units:
                           1         2         3
     Eigenvalues --   635.059991039.071271325.32607
           X            0.99769  -0.06665  -0.01299
           Y            0.06638   0.99760  -0.01992
           Z            0.01429   0.01901   0.99972
 This molecule is an asymmetric top.
 Rotational symmetry number  1.
 Warning -- assumption of classical behavior for rotation
           may cause significant error
 Rotational temperatures (Kelvin)      0.13639     0.08336     0.06535
 Rotational constants (GHZ):           2.84184     1.73688     1.36173
 Zero-point vibrational energy     422572.9 (Joules/Mol)
                                  100.99736 (Kcal/Mol)
 Warning -- explicit consideration of  10 degrees of freedom as
           vibrations may cause significant error
 Vibrational temperatures:    353.25   392.41   417.15   444.53   532.14
          (Kelvin)            594.77   661.54   729.11   797.05   878.86
                              948.00  1082.59  1128.64  1203.31  1217.45
                             1293.34  1315.82  1352.86  1404.93  1436.82
                             1478.50  1492.84  1515.10  1561.98  1585.03
                             1640.40  1665.29  1693.00  1727.26  1757.10
                             1775.55  1825.10  1843.99  1895.16  1919.39
                             1959.19  1969.87  2137.55  2151.12  2178.31
                             2200.12  4376.96  4399.73  4413.30  4420.92
                             4436.80  4467.50  4469.43  4493.35  4513.38
                             5499.77

 Zero-point correction=                           0.160950 (Hartree/Particle)
 Thermal correction to Energy=                    0.168029
 Thermal correction to Enthalpy=                  0.168973
 Thermal correction to Gibbs Free Energy=         0.130097
 Sum of electronic and zero-point Energies=           -422.959325
 Sum of electronic and thermal Energies=              -422.952246
 Sum of electronic and thermal Enthalpies=            -422.951302
 Sum of electronic and thermal Free Energies=         -422.990177

                     E (Thermal)             CV                S
                      KCal/Mol        Cal/Mol-Kelvin    Cal/Mol-Kelvin
 Total                  105.440             30.183             81.820
 Electronic               0.000              0.000              0.000
 Translational            0.889              2.981             40.409
 Rotational               0.889              2.981             28.260
 Vibrational            103.662             24.222             13.151
 Vibration     1          0.660              1.770              1.763
 Vibration     2          0.676              1.724              1.579
 Vibration     3          0.686              1.692              1.474
 Vibration     4          0.698              1.657              1.368
 Vibration     5          0.742              1.534              1.080
 Vibration     6          0.777              1.441              0.915
 Vibration     7          0.818              1.339              0.767
 Vibration     8          0.862              1.235              0.641
 Vibration     9          0.909              1.131              0.536
 Vibration    10          0.970              1.009              0.431

 Optimization completed.
    -- Stationary point found.
 Normal termination of Gaussian 09 at Mon Jan 27 18:53:57 2020.
