 Gaussian 09, Revision D.01,
 Gaussian 09:  ES64L-G09RevD.01 24-Apr-2013

 -----------------------------
 # b3lyp 6-31G(2df,p) opt Freq
 -----------------------------

 -----
 titel
 -----
 Symbolic Z-matrix:
 Charge =  0 Multiplicity = 1

 SCF Done:  E(RB3LYP) =  -423.128132140     A.U. after   14 cycles
 Optimization completed.
    -- Stationary point found.
 Normal termination of Gaussian 09 at Tue Jan 28 13:23:33 2020.

 ----------------------------------------------------------------------
 #N Geom=AllCheck Guess=TCheck SCRF=Check GenChk RB3LYP/6-31G(2df,p) Fr
 eq
 ----------------------------------------------------------------------

 Structure from the checkpoint file:  "/scratch/puck/g09_73b5cac6-a8b9-40f8-a1bf-9adabc61e281/Gau-144638.chk"
 -----
 titel
 -----
 Charge =  0 Multiplicity = 1

                         Standard orientation:
 ---------------------------------------------------------------------
 Center     Atomic      Atomic             Coordinates (Angstroms)
 Number     Number       Type             X           Y           Z
 ---------------------------------------------------------------------
      1          8           0       -2.668329   -1.108312    0.397841
      2          6           0       -2.435300    0.172445   -0.163576
      3          6           0       -1.159267    0.802328    0.364385
      4          6           0       -0.218053    1.533441   -0.583487
      5          6           0        0.146347    0.181636   -0.024605
      6          8           0        0.024806   -0.941570   -0.859025
      7          6           0        1.270722    0.053278    0.997734
      8          6           0        2.558665   -0.155997    0.340385
      9          6           0        3.581236   -0.351899   -0.261806
     10          1           0       -1.942053   -1.663375    0.089536
     11          1           0       -2.395644    0.123292   -1.260468
     12          1           0       -3.297995    0.790341    0.106583
     13          1           0       -1.222485    1.175369    1.383200
     14          1           0       -0.507103    1.568296   -1.628544
     15          1           0        0.311795    2.410582   -0.227702
     16          1           0        0.869354   -1.063353   -1.311076
     17          1           0        1.306441    0.951156    1.624850
     18          1           0        1.055986   -0.793291    1.662259
     19          1           0        4.503773   -0.511365   -0.763343
 ---------------------------------------------------------------------

 SCF Done:  E(RB3LYP) =  -423.128132141     A.U. after    1 cycles

 The electronic state is 1-A.
 Alpha  occ. eigenvalues --  -19.15419 -19.11939 -10.25107 -10.22160 -10.21845
 Alpha  occ. eigenvalues --  -10.19383 -10.19157 -10.18916 -10.18351  -1.04159
 Alpha  occ. eigenvalues --   -1.00151  -0.86065  -0.78998  -0.71776  -0.68286
 Alpha  occ. eigenvalues --   -0.60694  -0.57332  -0.54130  -0.52103  -0.49239
 Alpha  occ. eigenvalues --   -0.47347  -0.46919  -0.44835  -0.42739  -0.42081
 Alpha  occ. eigenvalues --   -0.38080  -0.37615  -0.34671  -0.32066  -0.29845
 Alpha  occ. eigenvalues --   -0.27691  -0.27522  -0.25965  -0.25493
 Alpha virt. eigenvalues --    0.03559   0.04716   0.08051   0.10320   0.10907
 Alpha virt. eigenvalues --    0.11375   0.12092   0.13502   0.15077   0.16416
 Alpha virt. eigenvalues --    0.17292   0.17512   0.18510   0.20433   0.23602

 Mulliken charges:
               1
     1  O   -0.429289
     2  C   -0.074865
     3  C   -0.093924
     4  C   -0.353342
     5  C    0.413463
     6  O   -0.476488
     7  C   -0.405046
     8  C    0.274600
     9  C   -0.437219
    10  H    0.292595
    11  H    0.091639
    12  H    0.106153
    13  H    0.091856
    14  H    0.118087
    15  H    0.113573
    16  H    0.291447
    17  H    0.133190
    18  H    0.141451
    19  H    0.202118
 Sum of Mulliken charges =   0.00000

 Dipole moment (field-independent basis, Debye):
    X=              2.2598    Y=              1.0980    Z=             -0.6004  Tot=              2.5832
 Quadrupole moment (field-independent basis, Debye-Ang):
   XX=            -56.2503   YY=            -52.9717   ZZ=            -50.9760
   XY=             -4.7567   XZ=             -0.8806   YZ=              2.0741

  Exact polarizability:  99.947  -4.968  66.614  -8.684   1.117  65.939
 Approx polarizability: 133.772  -6.910  99.685 -21.895   3.476 104.112

                      1                      2                      3
                      A                      A                      A
 Frequencies --     56.9972                95.4353               115.9999
 Red. masses --      4.3646                 5.1785                 3.2380
 Frc consts  --      0.0084                 0.0278                 0.0257
 IR Inten    --      0.8803                 1.2981                 2.1950

                      4                      5                      6
                      A                      A                      A
 Frequencies --    152.4900               227.4803               325.0985
 Red. masses --      4.0166                 3.1139                 3.6964
 Frc consts  --      0.0550                 0.0949                 0.2302
 IR Inten    --      0.1376                 1.5606                 2.0136

                      7                      8                      9
                      A                      A                      A
 Frequencies --    349.1509               355.9575               385.6105
 Red. masses --      2.3049                 1.5283                 2.3816
 Frc consts  --      0.1656                 0.1141                 0.2086
 IR Inten    --     13.8358                55.5320                49.6752

                     10                     11                     12
                      A                      A                      A
 Frequencies --    403.9250               457.1496               467.8594
 Red. masses --      2.2953                 2.4438                 2.9361
 Frc consts  --      0.2206                 0.3009                 0.3787
 IR Inten    --      3.9284                18.5037                38.2260

                     13                     14                     15
                      A                      A                      A
 Frequencies --    494.3657               624.5730               628.7748
 Red. masses --      1.4208                 1.5716                 2.0043
 Frc consts  --      0.2046                 0.3612                 0.4669
 IR Inten    --     68.7407                16.7571                34.6618

                     16                     17                     18
                      A                      A                      A
 Frequencies --    661.2807               752.5970               819.7989
 Red. masses --      1.2344                 3.3719                 1.9563
 Frc consts  --      0.3180                 1.1252                 0.7746
 IR Inten    --     37.8956                14.0515                 0.7391

                     19                     20                     21
                      A                      A                      A
 Frequencies --    883.3521               903.6052               944.8711
 Red. masses --      1.9678                 1.7116                 1.7985
 Frc consts  --      0.9047                 0.8234                 0.9461
 IR Inten    --      9.3567                10.0737                 3.4748

                     22                     23                     24
                      A                      A                      A
 Frequencies --    957.7391               980.1578              1039.7446
 Red. masses --      2.1429                 2.8308                 2.1455
 Frc consts  --      1.1581                 1.6023                 1.3666
 IR Inten    --      4.0211                 7.0653                18.3401

                     25                     26                     27
                      A                      A                      A
 Frequencies --   1051.8234              1069.3007              1089.2913
 Red. masses --      1.6921                 2.5419                 2.5985
 Frc consts  --      1.1030                 1.7124                 1.8166
 IR Inten    --     17.7521                64.5965                42.6410

                     28                     29                     30
                      A                      A                      A
 Frequencies --   1148.7352              1195.0879              1212.3521
 Red. masses --      1.4508                 1.3052                 1.7103
 Frc consts  --      1.1280                 1.0984                 1.4811
 IR Inten    --     16.3152                17.4526                 9.6249

                     31                     32                     33
                      A                      A                      A
 Frequencies --   1264.1887              1297.9410              1312.4380
 Red. masses --      1.4533                 1.4138                 1.7622
 Frc consts  --      1.3684                 1.4033                 1.7884
 IR Inten    --     24.7330                76.4358                16.5024

                     34                     35                     36
                      A                      A                      A
 Frequencies --   1347.6530              1399.1538              1423.4761
 Red. masses --      1.3826                 1.2735                 1.3055
 Frc consts  --      1.4795                 1.4689                 1.5586
 IR Inten    --     10.9432                 0.7369                 9.3907

                     37                     38                     39
                      A                      A                      A
 Frequencies --   1439.7061              1460.9241              1491.3387
 Red. masses --      1.2856                 1.1060                 1.4250
 Frc consts  --      1.5700                 1.3908                 1.8673
 IR Inten    --     80.2518                11.1504                 5.2066

                     40                     41                     42
                      A                      A                      A
 Frequencies --   1505.3149              2232.0913              3007.3793
 Red. masses --      1.3307                 5.9257                 1.0660
 Frc consts  --      1.7765                17.3946                 5.6805
 IR Inten    --      8.7963                 1.4092                43.4925

                     43                     44                     45
                      A                      A                      A
 Frequencies --   3027.8296              3070.7850              3073.2882
 Red. masses --      1.0605                 1.1000                 1.0970
 Frc consts  --      5.7281                 6.1113                 6.1045
 IR Inten    --     12.3925                 9.2860                35.3828

                     46                     47                     48
                      A                      A                      A
 Frequencies --   3130.5067              3144.7659              3219.9600
 Red. masses --      1.0541                 1.0893                 1.1169
 Frc consts  --      6.0862                 6.3470                 6.8230
 IR Inten    --      9.7933                14.9339                 7.3444

                     49                     50                     51
                      A                      A                      A
 Frequencies --   3503.8054              3769.2883              3792.8907
 Red. masses --      1.1619                 1.0657                 1.0656
 Frc consts  --      8.4045                 8.9212                 9.0321
 IR Inten    --     70.6111                38.5881                28.8516

 - Thermochemistry -
 -------------------
 Temperature   298.150 Kelvin.  Pressure   1.00000 Atm.
 Atom     1 has atomic number  8 and mass  15.99491

 Molecular mass:   126.06808 amu.
 Principal axes and moments of inertia in atomic units:
                           1         2         3
     Eigenvalues --   488.787741960.072872102.21790
           X            0.99995  -0.00963   0.00182
           Y            0.00961   0.99993   0.00750
           Z           -0.00189  -0.00748   0.99997
 This molecule is an asymmetric top.
 Rotational symmetry number  1.
 Warning -- assumption of classical behavior for rotation
           may cause significant error
 Rotational temperatures (Kelvin)      0.17720     0.04419     0.04120
 Rotational constants (GHZ):           3.69228     0.92075     0.85849
 Zero-point vibrational energy     411308.0 (Joules/Mol)
                                   98.30497 (Kcal/Mol)
 Warning -- explicit consideration of  13 degrees of freedom as
           vibrations may cause significant error
 Vibrational temperatures:     82.01   137.31   166.90   219.40   327.29
          (Kelvin)            467.74   502.35   512.14   554.81   581.16
                              657.74   673.14   711.28   898.62   904.67
                              951.43  1082.82  1179.51  1270.94  1300.08
                             1359.46  1377.97  1410.23  1495.96  1513.34
                             1538.48  1567.25  1652.77  1719.46  1744.30
                             1818.88  1867.45  1888.30  1938.97  2013.07
                             2048.06  2071.41  2101.94  2145.70  2165.81
                             3211.48  4326.94  4356.37  4418.17  4421.77
                             4504.10  4524.61  4632.80  5041.19  5423.16
                             5457.12

 Zero-point correction=                           0.156659 (Hartree/Particle)
 Thermal correction to Energy=                    0.166465
 Thermal correction to Enthalpy=                  0.167409
 Thermal correction to Gibbs Free Energy=         0.121843
 Sum of electronic and zero-point Energies=           -422.971473
 Sum of electronic and thermal Energies=              -422.961667
 Sum of electronic and thermal Enthalpies=            -422.960723
 Sum of electronic and thermal Free Energies=         -423.006289

                     E (Thermal)             CV                S
                      KCal/Mol        Cal/Mol-Kelvin    Cal/Mol-Kelvin
 Total                  104.458             36.698             95.901
 Electronic               0.000              0.000              0.000
 Translational            0.889              2.981             40.409
 Rotational               0.889              2.981             29.089
 Vibrational            102.681             30.736             26.403
 Vibration     1          0.596              1.975              4.559
 Vibration     2          0.603              1.952              3.545
 Vibration     3          0.608              1.936              3.166
 Vibration     4          0.619              1.900              2.641
 Vibration     5          0.651              1.799              1.899
 Vibration     6          0.709              1.625              1.284
 Vibration     7          0.726              1.577              1.170
 Vibration     8          0.731              1.563              1.140
 Vibration     9          0.754              1.501              1.017
 Vibration    10          0.769              1.462              0.948
 Vibration    11          0.815              1.345              0.774
 Vibration    12          0.825              1.321              0.744
 Vibration    13          0.850              1.263              0.672

 Normal termination of Gaussian 09 at Tue Jan 28 14:03:44 2020.
