 Gaussian 09, Revision D.01,
 Gaussian 09:  ES64L-G09RevD.01 24-Apr-2013

 -----------------------------
 # b3lyp 6-31G(2df,p) opt Freq
 -----------------------------

 -----
 titel
 -----
 Symbolic Z-matrix:
 Charge =  0 Multiplicity = 1

 SCF Done:  E(RB3LYP) =  -423.154794166     A.U. after   13 cycles
 Optimization completed.
    -- Stationary point found.
 Normal termination of Gaussian 09 at Mon Jan 27 23:53:27 2020.

 ----------------------------------------------------------------------
 #N Geom=AllCheck Guess=TCheck SCRF=Check GenChk RB3LYP/6-31G(2df,p) Fr
 eq
 ----------------------------------------------------------------------

 Structure from the checkpoint file:  "/scratch/puck/g09_f4c510a6-389c-48f1-a4ec-c00c16fdd422/Gau-68290.chk"
 -----
 titel
 -----
 Charge =  0 Multiplicity = 1

                         Standard orientation:
 ---------------------------------------------------------------------
 Center     Atomic      Atomic             Coordinates (Angstroms)
 Number     Number       Type             X           Y           Z
 ---------------------------------------------------------------------
      1          8           0        3.071901   -0.377645    0.072800
      2          6           0        1.751695   -0.025506    0.371550
      3          6           0        0.872223    0.686495   -0.620127
      4          6           0       -0.224171    1.584136   -0.047484
      5          6           0       -1.252825    0.633123    0.585658
      6          8           0       -2.314222    0.275433   -0.332425
      7          6           0       -1.968100   -1.122540   -0.269659
      8          6           0       -0.703761   -0.824697    0.560860
      9          6           0        0.589176   -0.768204   -0.226839
     10          1           0        3.122964   -0.620435   -0.857139
     11          1           0        1.691683    0.276004    1.414912
     12          1           0        1.296457    0.921628   -1.591413
     13          1           0        0.172388    2.289828    0.692178
     14          1           0       -0.719562    2.168609   -0.828109
     15          1           0       -1.663699    1.001489    1.532771
     16          1           0       -2.734131   -1.707303    0.256259
     17          1           0       -1.807936   -1.554579   -1.265157
     18          1           0       -0.620759   -1.354554    1.512591
     19          1           0        0.815740   -1.579835   -0.913646
 ---------------------------------------------------------------------

 SCF Done:  E(RB3LYP) =  -423.154794166     A.U. after    1 cycles

 The electronic state is 1-A.
 Alpha  occ. eigenvalues --  -19.14472 -19.12884 -10.23666 -10.23276 -10.22795
 Alpha  occ. eigenvalues --  -10.19438 -10.19063 -10.19026 -10.18419  -1.03562
 Alpha  occ. eigenvalues --   -1.02931  -0.86883  -0.74265  -0.73848  -0.65708
 Alpha  occ. eigenvalues --   -0.61567  -0.57064  -0.54554  -0.51795  -0.50573
 Alpha  occ. eigenvalues --   -0.46134  -0.44868  -0.43211  -0.43051  -0.40055
 Alpha  occ. eigenvalues --   -0.38018  -0.36685  -0.36160  -0.34935  -0.32111
 Alpha  occ. eigenvalues --   -0.30395  -0.27041  -0.24655  -0.23715
 Alpha virt. eigenvalues --    0.07475   0.07621   0.09152   0.10226   0.11467
 Alpha virt. eigenvalues --    0.11703   0.14480   0.15626   0.16773   0.17439
 Alpha virt. eigenvalues --    0.17834   0.18248   0.19216   0.21096   0.22641

 Mulliken charges:
               1
     1  O   -0.438458
     2  C    0.139034
     3  C   -0.106582
     4  C   -0.259387
     5  C    0.140465
     6  O   -0.291732
     7  C   -0.081250
     8  C   -0.100366
     9  C   -0.111368
    10  H    0.282598
    11  H    0.101327
    12  H    0.081253
    13  H    0.099201
    14  H    0.119407
    15  H    0.071746
    16  H    0.095462
    17  H    0.097885
    18  H    0.078958
    19  H    0.081808
 Sum of Mulliken charges =   0.00000

 Dipole moment (field-independent basis, Debye):
    X=              0.3002    Y=             -0.7542    Z=             -0.4058  Tot=              0.9075
 Quadrupole moment (field-independent basis, Debye-Ang):
   XX=            -62.4254   YY=            -51.1991   ZZ=            -49.8936
   XY=              1.8929   XZ=             -6.1960   YZ=              1.9631

  Exact polarizability:  82.226   2.585  73.599  -2.092   2.203  66.564
 Approx polarizability: 109.504   1.319 108.366   0.572   2.361 103.826

                      1                      2                      3
                      A                      A                      A
 Frequencies --     87.1729               111.6518               176.0619
 Red. masses --      4.1043                 1.0421                 2.7356
 Frc consts  --      0.0184                 0.0077                 0.0500
 IR Inten    --      5.2407                87.5037                 0.4086

                      4                      5                      6
                      A                      A                      A
 Frequencies --    232.0235               288.5174               353.2989
 Red. masses --      3.8916                 3.9625                 3.4089
 Frc consts  --      0.1234                 0.1943                 0.2507
 IR Inten    --      2.1336                 8.7820                 3.1714

                      7                      8                      9
                      A                      A                      A
 Frequencies --    390.9905               451.0352               638.8426
 Red. masses --      2.5953                 2.7870                 4.0544
 Frc consts  --      0.2338                 0.3341                 0.9749
 IR Inten    --      3.0350                 1.7684                 1.4315

                     10                     11                     12
                      A                      A                      A
 Frequencies --    709.1179               796.7253               831.5716
 Red. masses --      4.4071                 2.4780                 2.3624
 Frc consts  --      1.3057                 0.9268                 0.9625
 IR Inten    --      1.5447                 1.1300                25.9699

                     13                     14                     15
                      A                      A                      A
 Frequencies --    834.0127               859.8640               897.6185
 Red. masses --      2.0303                 2.4782                 2.6073
 Frc consts  --      0.8320                 1.0796                 1.2377
 IR Inten    --      6.5797                 2.5414                 8.8238

                     16                     17                     18
                      A                      A                      A
 Frequencies --    908.8207               944.4135               990.0772
 Red. masses --      3.3883                 2.3334                 2.1196
 Frc consts  --      1.6489                 1.2262                 1.2242
 IR Inten    --     14.6348                 3.5409                 2.8579

                     19                     20                     21
                      A                      A                      A
 Frequencies --   1004.4491              1019.8551              1029.0311
 Red. masses --      1.8219                 2.4508                 3.1848
 Frc consts  --      1.0830                 1.5019                 1.9870
 IR Inten    --      3.7161                25.7029                64.9186

                     22                     23                     24
                      A                      A                      A
 Frequencies --   1066.8963              1084.0574              1086.7159
 Red. masses --      1.6045                 2.2999                 1.4581
 Frc consts  --      1.0761                 1.5924                 1.0145
 IR Inten    --      3.8541                50.8460                10.4974

                     25                     26                     27
                      A                      A                      A
 Frequencies --   1115.1034              1135.6072              1162.8499
 Red. masses --      1.8896                 1.6552                 1.2866
 Frc consts  --      1.3843                 1.2577                 1.0251
 IR Inten    --     52.4538                 9.2008                12.0116

                     28                     29                     30
                      A                      A                      A
 Frequencies --   1174.1990              1197.9112              1215.2844
 Red. masses --      1.4791                 1.3242                 1.8989
 Frc consts  --      1.2015                 1.1196                 1.6523
 IR Inten    --     19.6227                 6.0710                13.8975

                     31                     32                     33
                      A                      A                      A
 Frequencies --   1265.0032              1277.4889              1289.6349
 Red. masses --      1.4199                 1.4258                 1.4118
 Frc consts  --      1.3387                 1.3710                 1.3834
 IR Inten    --      3.3708                 1.9695                 1.7998

                     34                     35                     36
                      A                      A                      A
 Frequencies --   1313.6791              1335.7389              1355.5509
 Red. masses --      1.4798                 1.5626                 1.5546
 Frc consts  --      1.5046                 1.6426                 1.6831
 IR Inten    --      5.1082                 5.9796                 1.7618

                     37                     38                     39
                      A                      A                      A
 Frequencies --   1363.4806              1377.2264              1456.9032
 Red. masses --      1.4915                 1.4583                 1.8637
 Frc consts  --      1.6337                 1.6297                 2.3307
 IR Inten    --      8.9968                 5.7546                79.8509

                     40                     41                     42
                      A                      A                      A
 Frequencies --   1477.3793              1524.5954              3006.4057
 Red. masses --      1.1244                 1.1014                 1.0562
 Frc consts  --      1.4459                 1.5084                 5.6243
 IR Inten    --      8.5125                 0.4965                86.4096

                     43                     44                     45
                      A                      A                      A
 Frequencies --   3027.8018              3043.7827              3051.0840
 Red. masses --      1.0737                 1.0779                 1.1085
 Frc consts  --      5.7996                 5.8836                 6.0798
 IR Inten    --     17.1250                72.9604                26.7387

                     46                     47                     48
                      A                      A                      A
 Frequencies --   3082.1195              3092.0705              3135.2018
 Red. masses --      1.0882                 1.0987                 1.0909
 Frc consts  --      6.0903                 6.1891                 6.3180
 IR Inten    --     49.0958                12.4892                 8.8758

                     49                     50                     51
                      A                      A                      A
 Frequencies --   3139.5960              3159.1042              3821.7688
 Red. masses --      1.0874                 1.0904                 1.0659
 Frc consts  --      6.3150                 6.4114                 9.1725
 IR Inten    --     16.6633                21.8298                21.1490

 - Thermochemistry -
 -------------------
 Temperature   298.150 Kelvin.  Pressure   1.00000 Atm.
 Atom     1 has atomic number  8 and mass  15.99491

 Molecular mass:   126.06808 amu.
 Principal axes and moments of inertia in atomic units:
                           1         2         3
     Eigenvalues --   455.834931497.824701731.40771
           X            0.99984   0.01367  -0.01160
           Y           -0.01338   0.99959   0.02513
           Z            0.01194  -0.02497   0.99962
 This molecule is an asymmetric top.
 Rotational symmetry number  1.
 Warning -- assumption of classical behavior for rotation
           may cause significant error
 Rotational temperatures (Kelvin)      0.19001     0.05783     0.05003
 Rotational constants (GHZ):           3.95920     1.20491     1.04235
 Zero-point vibrational energy     421022.1 (Joules/Mol)
                                  100.62669 (Kcal/Mol)
 Warning -- explicit consideration of   8 degrees of freedom as
           vibrations may cause significant error
 Vibrational temperatures:    125.42   160.64   253.31   333.83   415.11
          (Kelvin)            508.32   562.55   648.94   919.15  1020.26
                             1146.31  1196.44  1199.96  1237.15  1291.47
                             1307.59  1358.80  1424.50  1445.18  1467.34
                             1480.54  1535.02  1559.71  1563.54  1604.38
                             1633.88  1673.08  1689.41  1723.52  1748.52
                             1820.06  1838.02  1855.49  1890.09  1921.83
                             1950.33  1961.74  1981.52  2096.16  2125.62
                             2193.55  4325.54  4356.33  4379.32  4389.82
                             4434.48  4448.79  4510.85  4517.17  4545.24
                             5498.67

 Zero-point correction=                           0.160359 (Hartree/Particle)
 Thermal correction to Energy=                    0.168268
 Thermal correction to Enthalpy=                  0.169212
 Thermal correction to Gibbs Free Energy=         0.127643
 Sum of electronic and zero-point Energies=           -422.994435
 Sum of electronic and thermal Energies=              -422.986526
 Sum of electronic and thermal Enthalpies=            -422.985582
 Sum of electronic and thermal Free Energies=         -423.027152

                     E (Thermal)             CV                S
                      KCal/Mol        Cal/Mol-Kelvin    Cal/Mol-Kelvin
 Total                  105.590             30.318             87.490
 Electronic               0.000              0.000              0.000
 Translational            0.889              2.981             40.409
 Rotational               0.889              2.981             28.560
 Vibrational            103.812             24.357             18.522
 Vibration     1          0.601              1.958              3.723
 Vibration     2          0.607              1.940              3.240
 Vibration     3          0.628              1.872              2.370
 Vibration     4          0.653              1.792              1.863
 Vibration     5          0.685              1.695              1.483
 Vibration     6          0.729              1.568              1.151
 Vibration     7          0.759              1.489              0.996
 Vibration     8          0.810              1.359              0.793

 Normal termination of Gaussian 09 at Tue Jan 28 00:37:56 2020.
