 Gaussian 09, Revision D.01,
 Gaussian 09:  ES64L-G09RevD.01 24-Apr-2013

 -----------------------------
 # b3lyp 6-31G(2df,p) opt Freq
 -----------------------------

 -----
 titel
 -----
 Symbolic Z-matrix:
 Charge =  0 Multiplicity = 1

 SCF Done:  E(RB3LYP) =  -423.184514020     A.U. after   14 cycles
 Optimization completed.
    -- Stationary point found.
 Normal termination of Gaussian 09 at Tue Jan 28 08:19:38 2020.

 ----------------------------------------------------------------------
 #N Geom=AllCheck Guess=TCheck SCRF=Check GenChk RB3LYP/6-31G(2df,p) Fr
 eq
 ----------------------------------------------------------------------

 Structure from the checkpoint file:  "/scratch/puck/g09_bac1f245-d841-40a2-a45b-5f207e2ba160/Gau-59930.chk"
 -----
 titel
 -----
 Charge =  0 Multiplicity = 1

                         Standard orientation:
 ---------------------------------------------------------------------
 Center     Atomic      Atomic             Coordinates (Angstroms)
 Number     Number       Type             X           Y           Z
 ---------------------------------------------------------------------
      1          6           0        2.994688   -0.815932   -0.383675
      2          6           0        1.583335   -1.059900    0.150218
      3          6           0        0.556901   -0.027195   -0.362921
      4          6           0        0.871852    1.337478    0.057841
      5          6           0        1.137751    2.448649    0.430636
      6          6           0       -0.858954   -0.382263    0.115181
      7          8           0       -1.117070   -1.114591    1.033983
      8          8           0       -1.780684    0.238170   -0.640253
      9          6           0       -3.143531    0.014163   -0.253454
     10          1           0        3.023072   -0.869425   -1.477960
     11          1           0        3.363874    0.170219   -0.087590
     12          1           0        3.687822   -1.568143    0.003932
     13          1           0        1.231326   -2.054194   -0.144260
     14          1           0        1.573169   -1.040886    1.243419
     15          1           0        0.533092   -0.048645   -1.460570
     16          1           0        1.369697    3.434827    0.748965
     17          1           0       -3.748400    0.585602   -0.957174
     18          1           0       -3.389991   -1.049018   -0.310299
     19          1           0       -3.313875    0.361029    0.768724
 ---------------------------------------------------------------------

 SCF Done:  E(RB3LYP) =  -423.184514020     A.U. after    1 cycles

 The electronic state is 1-A.
 Alpha  occ. eigenvalues --  -19.18763 -19.13092 -10.31012 -10.24005 -10.22458
 Alpha  occ. eigenvalues --  -10.18895 -10.18753 -10.17680 -10.17510  -1.10694
 Alpha  occ. eigenvalues --   -1.01923  -0.82644  -0.74869  -0.73525  -0.69313
 Alpha  occ. eigenvalues --   -0.60864  -0.57237  -0.53369  -0.51032  -0.49699
 Alpha  occ. eigenvalues --   -0.47602  -0.46785  -0.43260  -0.42595  -0.41370
 Alpha  occ. eigenvalues --   -0.38436  -0.36782  -0.35451  -0.35216  -0.34089
 Alpha  occ. eigenvalues --   -0.30588  -0.29332  -0.26912  -0.25884
 Alpha virt. eigenvalues --    0.00487   0.04775   0.06399   0.09970   0.11534
 Alpha virt. eigenvalues --    0.12569   0.12614   0.13683   0.15307   0.15754
 Alpha virt. eigenvalues --    0.16402   0.16769   0.17869   0.19006   0.22735

 Mulliken charges:
               1
     1  C   -0.396326
     2  C   -0.169931
     3  C   -0.263620
     4  C    0.348308
     5  C   -0.484807
     6  C    0.446645
     7  O   -0.352899
     8  O   -0.230497
     9  C   -0.242161
    10  H    0.112724
    11  H    0.132677
    12  H    0.116919
    13  H    0.107362
    14  H    0.125958
    15  H    0.126364
    16  H    0.200996
    17  H    0.136091
    18  H    0.141804
    19  H    0.144393
 Sum of Mulliken charges =   0.00000

 Dipole moment (field-independent basis, Debye):
    X=             -0.4644    Y=              0.5973    Z=             -1.2178  Tot=              1.4337
 Quadrupole moment (field-independent basis, Debye-Ang):
   XX=            -46.3898   YY=            -51.3365   ZZ=            -55.1226
   XY=             -0.8997   XZ=              1.9186   YZ=              4.1928

  Exact polarizability:  87.448   2.658  85.947   1.980   2.712  61.584
 Approx polarizability: 102.399   8.610 134.999   3.923   3.211 100.823

                      1                      2                      3
                      A                      A                      A
 Frequencies --     26.2536                89.5771               103.6397
 Red. masses --      5.2541                 2.2020                 2.3542
 Frc consts  --      0.0021                 0.0104                 0.0149
 IR Inten    --      1.3194                 0.2179                 0.5210

                      4                      5                      6
                      A                      A                      A
 Frequencies --    116.9988               153.6719               167.7605
 Red. masses --      1.2942                 3.3947                 2.3235
 Frc consts  --      0.0104                 0.0472                 0.0385
 IR Inten    --      0.0190                 1.0779                 2.0654

                      7                      8                      9
                      A                      A                      A
 Frequencies --    212.5327               258.7440               298.2375
 Red. masses --      2.7622                 1.4369                 3.7105
 Frc consts  --      0.0735                 0.0567                 0.1944
 IR Inten    --      2.1339                 1.5947                 8.8050

                     10                     11                     12
                      A                      A                      A
 Frequencies --    339.7791               399.0579               425.3120
 Red. masses --      3.9201                 5.1142                 7.1174
 Frc consts  --      0.2666                 0.4798                 0.7586
 IR Inten    --      4.9611                 7.6848                 3.2021

                     13                     14                     15
                      A                      A                      A
 Frequencies --    544.9753               623.2925               640.4780
 Red. masses --      3.5542                 1.2402                 1.2431
 Frc consts  --      0.6219                 0.2839                 0.3004
 IR Inten    --      2.8694                36.4331                38.1698

                     16                     17                     18
                      A                      A                      A
 Frequencies --    675.8470               771.8039               790.5207
 Red. masses --      4.5399                 1.3550                 6.4977
 Frc consts  --      1.2218                 0.4756                 2.3924
 IR Inten    --     14.5912                 3.2203                17.1447

                     19                     20                     21
                      A                      A                      A
 Frequencies --    870.8808               921.0743               968.6597
 Red. masses --      2.0335                 5.1593                 1.9426
 Frc consts  --      0.9087                 2.5789                 1.0739
 IR Inten    --      0.7478                 7.6394                 5.6411

                     22                     23                     24
                      A                      A                      A
 Frequencies --   1028.0789              1057.1777              1125.4178
 Red. masses --      4.0824                 2.2880                 1.7234
 Frc consts  --      2.5422                 1.5066                 1.2861
 IR Inten    --     22.2694                 0.3510                 1.0088

                     25                     26                     27
                      A                      A                      A
 Frequencies --   1130.9771              1178.4293              1198.2250
 Red. masses --      2.5554                 1.2848                 1.8723
 Frc consts  --      1.9258                 1.0512                 1.5838
 IR Inten    --     22.9524                 1.6766               127.1292

                     28                     29                     30
                      A                      A                      A
 Frequencies --   1219.5859              1268.5491              1312.5051
 Red. masses --      1.8631                 1.3258                 2.0194
 Frc consts  --      1.6327                 1.2570                 2.0496
 IR Inten    --    132.1412                 7.7237               162.8745

                     31                     32                     33
                      A                      A                      A
 Frequencies --   1339.0892              1368.8368              1415.2904
 Red. masses --      1.2604                 1.4789                 1.2428
 Frc consts  --      1.3316                 1.6326                 1.4667
 IR Inten    --      3.1550                13.8288                 2.4659

                     34                     35                     36
                      A                      A                      A
 Frequencies --   1472.2690              1481.6342              1484.4584
 Red. masses --      1.1963                 1.0468                 1.0666
 Frc consts  --      1.5278                 1.3539                 1.3847
 IR Inten    --     11.9985                 6.6086                 2.1846

                     37                     38                     39
                      A                      A                      A
 Frequencies --   1496.5297              1498.7667              1508.3621
 Red. masses --      1.0563                 1.0400                 1.0617
 Frc consts  --      1.3938                 1.3765                 1.4231
 IR Inten    --      8.1225                 5.1610                 3.3816

                     40                     41                     42
                      A                      A                      A
 Frequencies --   1826.9014              2234.6365              3024.3971
 Red. masses --     11.4992                 5.9263                 1.0809
 Frc consts  --     22.6125                17.4359                 5.8251
 IR Inten    --    206.1991                 1.2288                 6.3290

                     43                     44                     45
                      A                      A                      A
 Frequencies --   3035.4055              3053.3155              3054.3156
 Red. masses --      1.0375                 1.0304                 1.0624
 Frc consts  --      5.6321                 5.6599                 5.8393
 IR Inten    --     25.0641                25.1663                21.9791

                     46                     47                     48
                      A                      A                      A
 Frequencies --   3090.9610              3109.8420              3119.1846
 Red. masses --      1.0982                 1.1002                 1.1024
 Frc consts  --      6.1817                 6.2691                 6.3193
 IR Inten    --      3.6868                31.2696                28.8078

                     49                     50                     51
                      A                      A                      A
 Frequencies --   3128.6320              3162.0563              3504.2088
 Red. masses --      1.1057                 1.1060                 1.1620
 Frc consts  --      6.3767                 6.5155                 8.4073
 IR Inten    --     17.8176                14.1329                67.6436

 - Thermochemistry -
 -------------------
 Temperature   298.150 Kelvin.  Pressure   1.00000 Atm.
 Atom     1 has atomic number  6 and mass  12.00000

 Molecular mass:   126.06808 amu.
 Principal axes and moments of inertia in atomic units:
                           1         2         3
     Eigenvalues --   706.617831714.300002145.98384
           X            0.99968  -0.02536  -0.00213
           Y            0.02540   0.99938   0.02450
           Z            0.00150  -0.02454   0.99970
 This molecule is an asymmetric top.
 Rotational symmetry number  1.
 Warning -- assumption of classical behavior for rotation
           may cause significant error
 Rotational temperatures (Kelvin)      0.12258     0.05052     0.04036
 Rotational constants (GHZ):           2.55406     1.05276     0.84099
 Zero-point vibrational energy     408687.0 (Joules/Mol)
                                   97.67854 (Kcal/Mol)
 Warning -- explicit consideration of  13 degrees of freedom as
           vibrations may cause significant error
 Vibrational temperatures:     37.77   128.88   149.11   168.33   221.10
          (Kelvin)            241.37   305.79   372.27   429.10   488.87
                              574.15   611.93   784.10   896.78   921.50
                              972.39  1110.45  1137.38  1253.00  1325.22
                             1393.68  1479.17  1521.04  1619.22  1627.22
                             1695.49  1723.98  1754.71  1825.16  1888.40
                             1926.65  1969.45  2036.28  2118.26  2131.74
                             2135.80  2153.17  2156.39  2170.19  2628.50
                             3215.14  4351.43  4367.27  4393.03  4394.47
                             4447.20  4474.36  4487.81  4501.40  4549.49
                             5041.77

 Zero-point correction=                           0.155661 (Hartree/Particle)
 Thermal correction to Energy=                    0.166381
 Thermal correction to Enthalpy=                  0.167325
 Thermal correction to Gibbs Free Energy=         0.118661
 Sum of electronic and zero-point Energies=           -423.028853
 Sum of electronic and thermal Energies=              -423.018133
 Sum of electronic and thermal Enthalpies=            -423.017189
 Sum of electronic and thermal Free Energies=         -423.065853

                     E (Thermal)             CV                S
                      KCal/Mol        Cal/Mol-Kelvin    Cal/Mol-Kelvin
 Total                  104.406             36.989            102.421
 Electronic               0.000              0.000              0.000
 Translational            0.889              2.981             40.409
 Rotational               0.889              2.981             29.343
 Vibrational            102.628             31.027             32.670
 Vibration     1          0.593              1.985              6.094
 Vibration     2          0.602              1.957              3.669
 Vibration     3          0.605              1.946              3.385
 Vibration     4          0.608              1.935              3.149
 Vibration     5          0.619              1.899              2.626
 Vibration     6          0.624              1.882              2.460
 Vibration     7          0.644              1.822              2.022
 Vibration     8          0.668              1.748              1.670
 Vibration     9          0.691              1.677              1.427
 Vibration    10          0.720              1.596              1.213
 Vibration    11          0.765              1.472              0.966
 Vibration    12          0.787              1.415              0.874
 Vibration    13          0.900              1.151              0.555

 Optimization completed.
    -- Stationary point found.
 Normal termination of Gaussian 09 at Tue Jan 28 10:01:07 2020.
