 Gaussian 09, Revision D.01,
 Gaussian 09:  ES64L-G09RevD.01 24-Apr-2013

 -----------------------------
 # b3lyp 6-31G(2df,p) opt Freq
 -----------------------------

 -----
 titel
 -----
 Symbolic Z-matrix:
 Charge =  0 Multiplicity = 1

 SCF Done:  E(RB3LYP) =  -423.138191868     A.U. after   13 cycles
 Optimization completed.
    -- Stationary point found.
 Normal termination of Gaussian 09 at Tue Jan 28 03:22:08 2020.

 ----------------------------------------------------------------------
 #N Geom=AllCheck Guess=TCheck SCRF=Check GenChk RB3LYP/6-31G(2df,p) Fr
 eq
 ----------------------------------------------------------------------

 Structure from the checkpoint file:  "/scratch/puck/g09_d86683ad-0f5b-44c2-935a-d8cca1e7bd2d/Gau-46540.chk"
 -----
 titel
 -----
 Charge =  0 Multiplicity = 1

                         Standard orientation:
 ---------------------------------------------------------------------
 Center     Atomic      Atomic             Coordinates (Angstroms)
 Number     Number       Type             X           Y           Z
 ---------------------------------------------------------------------
      1          8           0        1.671513    1.615954   -0.249193
      2          6           0        1.507263    0.214832   -0.284244
      3          6           0        1.219238   -0.480246    1.092752
      4          6           0       -0.128640   -1.120558    0.712315
      5          8           0        0.184451   -1.675759   -0.611707
      6          6           0        0.229953   -0.272092   -1.019871
      7          6           0       -0.881216    0.002624   -0.006510
      8          6           0       -2.343544    0.121870   -0.240741
      9          6           0       -1.586180    1.237562    0.466829
     10          1           0        0.907021    1.988102    0.203261
     11          1           0        2.404280   -0.180279   -0.764511
     12          1           0        1.963152   -1.234404    1.356679
     13          1           0        1.149821    0.248483    1.906097
     14          1           0       -0.610212   -1.822097    1.393843
     15          1           0        0.137442   -0.097830   -2.091627
     16          1           0       -2.693293    0.310025   -1.250542
     17          1           0       -3.012085   -0.490589    0.355506
     18          1           0       -1.446031    2.166957   -0.077267
     19          1           0       -1.749046    1.366123    1.532577
 ---------------------------------------------------------------------

 SCF Done:  E(RB3LYP) =  -423.138191868     A.U. after    1 cycles

 The electronic state is 1-A.
 Alpha  occ. eigenvalues --  -19.13629 -19.13511 -10.24088 -10.23454 -10.23124
 Alpha  occ. eigenvalues --  -10.20674 -10.19903 -10.19534 -10.18244  -1.05236
 Alpha  occ. eigenvalues --   -1.01660  -0.86397  -0.77271  -0.70580  -0.66701
 Alpha  occ. eigenvalues --   -0.61516  -0.58753  -0.53682  -0.52728  -0.49294
 Alpha  occ. eigenvalues --   -0.49096  -0.45136  -0.43248  -0.42014  -0.38333
 Alpha  occ. eigenvalues --   -0.37866  -0.37039  -0.36386  -0.33129  -0.31115
 Alpha  occ. eigenvalues --   -0.30488  -0.30052  -0.27020  -0.23795
 Alpha virt. eigenvalues --    0.06928   0.08424   0.09539   0.10405   0.10454
 Alpha virt. eigenvalues --    0.13254   0.15066   0.15517   0.15955   0.16435
 Alpha virt. eigenvalues --    0.17533   0.19790   0.20592   0.21601   0.21748

 Mulliken charges:
               1
     1  O   -0.442765
     2  C    0.149063
     3  C   -0.267126
     4  C   -0.009497
     5  O   -0.299704
     6  C   -0.058506
     7  C    0.427965
     8  C   -0.358911
     9  C   -0.377229
    10  H    0.283782
    11  H    0.096153
    12  H    0.111936
    13  H    0.097271
    14  H    0.081696
    15  H    0.082428
    16  H    0.122101
    17  H    0.120170
    18  H    0.120966
    19  H    0.120208
 Sum of Mulliken charges =   0.00000

 Dipole moment (field-independent basis, Debye):
    X=             -1.6374    Y=              0.7392    Z=              1.2764  Tot=              2.2037
 Quadrupole moment (field-independent basis, Debye-Ang):
   XX=            -54.9925   YY=            -56.9399   ZZ=            -50.4423
   XY=             -3.0576   XZ=              0.3363   YZ=             -1.5288

  Exact polarizability:  81.324  -2.188  71.765   0.293  -1.149  69.742
 Approx polarizability: 108.918  -1.359 111.841  -1.693   1.335 106.240

                      1                      2                      3
                      A                      A                      A
 Frequencies --    142.5552               182.2454               228.9852
 Red. masses --      4.5942                 2.8218                 2.2932
 Frc consts  --      0.0550                 0.0552                 0.0708
 IR Inten    --      0.8874                 1.2358                 0.4965

                      4                      5                      6
                      A                      A                      A
 Frequencies --    279.4760               347.1609               380.1300
 Red. masses --      2.1275                 1.5497                 2.2983
 Frc consts  --      0.0979                 0.1100                 0.1957
 IR Inten    --     11.7387                23.4589                58.6935

                      7                      8                      9
                      A                      A                      A
 Frequencies --    439.4982               486.8928               565.6754
 Red. masses --      2.7971                 3.7496                 4.4411
 Frc consts  --      0.3183                 0.5237                 0.8373
 IR Inten    --      2.3279                 1.6998                 4.3390

                     10                     11                     12
                      A                      A                      A
 Frequencies --    623.5091               715.2050               778.6012
 Red. masses --      4.2767                 3.3103                 1.1052
 Frc consts  --      0.9796                 0.9976                 0.3947
 IR Inten    --      9.0613                 6.0724                 1.0962

                     13                     14                     15
                      A                      A                      A
 Frequencies --    825.9578               837.6987               869.1979
 Red. masses --      2.3258                 2.8353                 2.8868
 Frc consts  --      0.9349                 1.1723                 1.2850
 IR Inten    --     12.6196                11.1624                22.2789

                     16                     17                     18
                      A                      A                      A
 Frequencies --    905.6848               930.3079               938.7008
 Red. masses --      2.2956                 2.0270                 2.8380
 Frc consts  --      1.1094                 1.0336                 1.4734
 IR Inten    --     12.3699                10.5216                 7.0245

                     19                     20                     21
                      A                      A                      A
 Frequencies --    955.0717               966.3519               983.2293
 Red. masses --      1.6177                 2.3022                 3.2675
 Frc consts  --      0.8694                 1.2666                 1.8612
 IR Inten    --     17.6878                 7.3728                13.5539

                     22                     23                     24
                      A                      A                      A
 Frequencies --   1023.3113              1044.9469              1065.7747
 Red. masses --      3.0348                 1.4251                 2.1295
 Frc consts  --      1.8724                 0.9168                 1.4251
 IR Inten    --     10.9704                 7.7054                 2.8609

                     25                     26                     27
                      A                      A                      A
 Frequencies --   1083.1374              1086.7679              1127.6699
 Red. masses --      1.4744                 1.7048                 1.5235
 Frc consts  --      1.0191                 1.1863                 1.1414
 IR Inten    --      3.3746                10.9339               103.1872

                     28                     29                     30
                      A                      A                      A
 Frequencies --   1186.2671              1193.5709              1210.6303
 Red. masses --      1.2619                 1.5823                 1.4999
 Frc consts  --      1.0463                 1.3281                 1.2952
 IR Inten    --      0.2284                 3.8951                 3.4048

                     31                     32                     33
                      A                      A                      A
 Frequencies --   1228.5875              1240.2809              1268.9125
 Red. masses --      2.0122                 1.6797                 1.5822
 Frc consts  --      1.7895                 1.5224                 1.5010
 IR Inten    --      3.3236                 9.3099                 4.2514

                     34                     35                     36
                      A                      A                      A
 Frequencies --   1297.8659              1305.7143              1314.0508
 Red. masses --      1.4252                 1.6080                 1.4595
 Frc consts  --      1.4145                 1.6153                 1.4848
 IR Inten    --      7.1571                 4.4289                 4.1630

                     37                     38                     39
                      A                      A                      A
 Frequencies --   1425.4819              1431.8775              1462.7279
 Red. masses --      1.8845                 1.2413                 1.0922
 Frc consts  --      2.2561                 1.4995                 1.3768
 IR Inten    --      2.5665                59.8917                 2.1590

                     40                     41                     42
                      A                      A                      A
 Frequencies --   1484.7330              1514.8587              3062.0938
 Red. masses --      1.0999                 1.8905                 1.0608
 Frc consts  --      1.4286                 2.5561                 5.8605
 IR Inten    --      2.6123                 0.5479                21.6743

                     43                     44                     45
                      A                      A                      A
 Frequencies --   3097.7930              3118.7712              3119.1876
 Red. masses --      1.0892                 1.0751                 1.0740
 Frc consts  --      6.1581                 6.1613                 6.1566
 IR Inten    --     14.4896                16.3029                24.9309

                     46                     47                     48
                      A                      A                      A
 Frequencies --   3122.5619              3128.3069              3130.2641
 Red. masses --      1.0957                 1.0561                 1.0927
 Frc consts  --      6.2946                 6.0893                 6.3081
 IR Inten    --     47.8302                13.9585                23.9416

                     49                     50                     51
                      A                      A                      A
 Frequencies --   3198.3999              3215.0926              3811.5366
 Red. masses --      1.1172                 1.1157                 1.0653
 Frc consts  --      6.7337                 6.7952                 9.1184
 IR Inten    --      1.4137                12.2006                15.4215

 - Thermochemistry -
 -------------------
 Temperature   298.150 Kelvin.  Pressure   1.00000 Atm.
 Atom     1 has atomic number  8 and mass  15.99491

 Molecular mass:   126.06808 amu.
 Principal axes and moments of inertia in atomic units:
                           1         2         3
     Eigenvalues --   717.265151040.324201324.43035
           X            0.99869  -0.05000   0.01065
           Y            0.05021   0.99853  -0.02028
           Z           -0.00962   0.02079   0.99974
 This molecule is an asymmetric top.
 Rotational symmetry number  1.
 Warning -- assumption of classical behavior for rotation
           may cause significant error
 Rotational temperatures (Kelvin)      0.12076     0.08326     0.06540
 Rotational constants (GHZ):           2.51614     1.73479     1.36265
 Zero-point vibrational energy     420985.7 (Joules/Mol)
                                  100.61799 (Kcal/Mol)
 Warning -- explicit consideration of   9 degrees of freedom as
           vibrations may cause significant error
 Vibrational temperatures:    205.10   262.21   329.46   402.10   499.49
          (Kelvin)            546.92   632.34   700.53   813.88   897.09
                             1029.02  1120.23  1188.37  1205.26  1250.58
                             1303.08  1338.50  1350.58  1374.13  1390.36
                             1414.65  1472.31  1503.44  1533.41  1558.39
                             1563.61  1622.46  1706.77  1717.28  1741.82
                             1767.66  1784.49  1825.68  1867.34  1878.63
                             1890.62  2050.95  2060.15  2104.54  2136.20
                             2179.54  4405.66  4457.03  4487.21  4487.81
                             4492.66  4500.93  4503.75  4601.78  4625.80
                             5483.94

 Zero-point correction=                           0.160345 (Hartree/Particle)
 Thermal correction to Energy=                    0.167901
 Thermal correction to Enthalpy=                  0.168845
 Thermal correction to Gibbs Free Energy=         0.128702
 Sum of electronic and zero-point Energies=           -422.977847
 Sum of electronic and thermal Energies=              -422.970291
 Sum of electronic and thermal Enthalpies=            -422.969347
 Sum of electronic and thermal Free Energies=         -423.009490

                     E (Thermal)             CV                S
                      KCal/Mol        Cal/Mol-Kelvin    Cal/Mol-Kelvin
 Total                  105.359             30.814             84.488
 Electronic               0.000              0.000              0.000
 Translational            0.889              2.981             40.409
 Rotational               0.889              2.981             28.382
 Vibrational            103.582             24.853             15.697
 Vibration     1          0.616              1.911              2.769
 Vibration     2          0.630              1.864              2.305
 Vibration     3          0.652              1.797              1.887
 Vibration     4          0.680              1.712              1.537
 Vibration     5          0.725              1.581              1.179
 Vibration     6          0.750              1.513              1.039
 Vibration     7          0.800              1.384              0.828
 Vibration     8          0.843              1.279              0.692
 Vibration     9          0.922              1.106              0.513

 Optimization completed.
    -- Stationary point found.
 Normal termination of Gaussian 09 at Tue Jan 28 05:20:25 2020.
