 Gaussian 09, Revision D.01,
 Gaussian 09:  ES64L-G09RevD.01 24-Apr-2013

 -----------------------------
 # b3lyp 6-31G(2df,p) opt Freq
 -----------------------------

 -----
 titel
 -----
 Symbolic Z-matrix:
 Charge =  0 Multiplicity = 1

 SCF Done:  E(RB3LYP) =  -423.126356421     A.U. after   13 cycles
 Optimization completed.
    -- Stationary point found.
 Normal termination of Gaussian 09 at Mon Jan 27 12:14:57 2020.

 ----------------------------------------------------------------------
 #N Geom=AllCheck Guess=TCheck SCRF=Check GenChk RB3LYP/6-31G(2df,p) Fr
 eq
 ----------------------------------------------------------------------

 Structure from the checkpoint file:  "/scratch/puck/g09_a6a61a56-dcdd-47ae-8aa6-d8a71519936c/Gau-45184.chk"
 -----
 titel
 -----
 Charge =  0 Multiplicity = 1

                         Standard orientation:
 ---------------------------------------------------------------------
 Center     Atomic      Atomic             Coordinates (Angstroms)
 Number     Number       Type             X           Y           Z
 ---------------------------------------------------------------------
      1          6           0        2.518270   -0.480319   -0.113137
      2          6           0        1.854101    0.638342    0.712515
      3          6           0        0.564617    0.200536   -0.016130
      4          6           0       -0.351514    1.236867   -0.722130
      5          6           0       -1.509772    0.881545    0.253286
      6          6           0       -2.411690   -0.248172   -0.260905
      7          8           0       -1.457073   -1.256139    0.149920
      8          6           0       -0.642073   -0.281939    0.825344
      9          8           0        1.280738   -0.756323   -0.804048
     10          1           0        3.310785   -0.169956   -0.803385
     11          1           0        2.865973   -1.346848    0.461855
     12          1           0        1.856102    0.506167    1.796678
     13          1           0        2.189456    1.648870    0.471111
     14          1           0        0.012058    2.266239   -0.666669
     15          1           0       -0.556651    0.992211   -1.767946
     16          1           0       -1.948256    1.681361    0.846560
     17          1           0       -3.360541   -0.359453    0.280608
     18          1           0       -2.607014   -0.273158   -1.340042
     19          1           0       -0.482865   -0.526906    1.881198
 ---------------------------------------------------------------------

 SCF Done:  E(RB3LYP) =  -423.126356421     A.U. after    1 cycles

 The electronic state is 1-A.
 Alpha  occ. eigenvalues --  -19.13100 -19.13027 -10.23612 -10.23044 -10.22879
 Alpha  occ. eigenvalues --  -10.22792 -10.19391 -10.19044 -10.18333  -1.04584
 Alpha  occ. eigenvalues --   -1.02981  -0.81960  -0.74053  -0.71041  -0.65556
 Alpha  occ. eigenvalues --   -0.63925  -0.56158  -0.52227  -0.50325  -0.48905
 Alpha  occ. eigenvalues --   -0.48245  -0.46251  -0.44974  -0.41665  -0.39414
 Alpha  occ. eigenvalues --   -0.37790  -0.37505  -0.35959  -0.33508  -0.30877
 Alpha  occ. eigenvalues --   -0.29507  -0.28261  -0.25862  -0.22935
 Alpha virt. eigenvalues --    0.05355   0.09131   0.09409   0.10656   0.11933
 Alpha virt. eigenvalues --    0.12452   0.12963   0.14716   0.15550   0.16586
 Alpha virt. eigenvalues --    0.17642   0.18302   0.19719   0.20378   0.22077

 Mulliken charges:
               1
     1  C   -0.069987
     2  C   -0.358450
     3  C    0.470202
     4  C   -0.330633
     5  C   -0.082249
     6  C   -0.072417
     7  O   -0.283736
     8  C    0.034576
     9  O   -0.303487
    10  H    0.105024
    11  H    0.106292
    12  H    0.111306
    13  H    0.111025
    14  H    0.101218
    15  H    0.115927
    16  H    0.077476
    17  H    0.098316
    18  H    0.104240
    19  H    0.065358
 Sum of Mulliken charges =   0.00000

 Dipole moment (field-independent basis, Debye):
    X=              0.4129    Y=              2.6150    Z=              1.2197  Tot=              2.9149
 Quadrupole moment (field-independent basis, Debye-Ang):
   XX=            -47.7734   YY=            -56.1001   ZZ=            -52.6490
   XY=             -1.5623   XZ=              1.8289   YZ=             -1.2760

  Exact polarizability:  91.136  -1.232  67.096   2.005  -1.830  67.087
 Approx polarizability: 113.265  -1.432 102.461   2.969  -0.792 101.827

                      1                      2                      3
                      A                      A                      A
 Frequencies --     61.8140                82.9896               189.8042
 Red. masses --      3.1029                 2.2899                 5.6529
 Frc consts  --      0.0070                 0.0093                 0.1200
 IR Inten    --      0.7260                 2.3804                 0.4409

                      4                      5                      6
                      A                      A                      A
 Frequencies --    257.8132               341.9335               371.5253
 Red. masses --      2.4154                 3.4045                 2.0247
 Frc consts  --      0.0946                 0.2345                 0.1647
 IR Inten    --      1.2108                 0.8627                 0.4177

                      7                      8                      9
                      A                      A                      A
 Frequencies --    466.2639               532.7901               749.8261
 Red. masses --      3.1102                 5.0186                 2.4492
 Frc consts  --      0.3984                 0.8394                 0.8113
 IR Inten    --      1.0684                11.4532                 1.4779

                     10                     11                     12
                      A                      A                      A
 Frequencies --    771.0560               786.3626               829.2016
 Red. masses --      2.1390                 1.2996                 1.6966
 Frc consts  --      0.7493                 0.4735                 0.6873
 IR Inten    --      1.1246                 3.0268                 1.7106

                     13                     14                     15
                      A                      A                      A
 Frequencies --    863.3136               875.7596               907.9590
 Red. masses --      2.9464                 2.7191                 1.9474
 Frc consts  --      1.2939                 1.2287                 0.9459
 IR Inten    --     15.9445                 1.9793                 3.7391

                     16                     17                     18
                      A                      A                      A
 Frequencies --    929.3686               954.3287               976.7822
 Red. masses --      4.4968                 1.8908                 2.4663
 Frc consts  --      2.2884                 1.0146                 1.3864
 IR Inten    --      4.4836                21.3710                 2.2661

                     19                     20                     21
                      A                      A                      A
 Frequencies --   1002.1648              1018.6958              1028.4732
 Red. masses --      2.2314                 3.8463                 6.1381
 Frc consts  --      1.3204                 2.3517                 3.8254
 IR Inten    --     27.5947               141.3410                45.4945

                     22                     23                     24
                      A                      A                      A
 Frequencies --   1055.1581              1123.0215              1137.0371
 Red. masses --      3.1969                 1.9151                 1.8108
 Frc consts  --      2.0970                 1.4230                 1.3794
 IR Inten    --     22.7475                15.0526                 4.9191

                     25                     26                     27
                      A                      A                      A
 Frequencies --   1158.5771              1171.3082              1179.7442
 Red. masses --      1.2985                 1.5275                 2.0081
 Frc consts  --      1.0270                 1.2347                 1.6467
 IR Inten    --      2.1246                13.8992                 1.5938

                     28                     29                     30
                      A                      A                      A
 Frequencies --   1194.7241              1199.3933              1214.6135
 Red. masses --      1.7406                 1.6609                 1.4034
 Frc consts  --      1.4638                 1.4077                 1.2198
 IR Inten    --     22.8851                 2.1217                 2.1761

                     31                     32                     33
                      A                      A                      A
 Frequencies --   1233.2264              1257.5446              1263.5868
 Red. masses --      1.6007                 1.4594                 1.5346
 Frc consts  --      1.4343                 1.3598                 1.4436
 IR Inten    --      0.4495                 2.1554                19.8812

                     34                     35                     36
                      A                      A                      A
 Frequencies --   1300.4854              1331.2181              1352.5497
 Red. masses --      1.6334                 1.7684                 1.4217
 Frc consts  --      1.6277                 1.8465                 1.5323
 IR Inten    --      0.6856                10.6316                 1.8644

                     37                     38                     39
                      A                      A                      A
 Frequencies --   1360.4224              1466.8298              1486.6155
 Red. masses --      1.4603                 1.1048                 1.1041
 Frc consts  --      1.5924                 1.4005                 1.4377
 IR Inten    --      1.2304                 4.5838                 3.2122

                     40                     41                     42
                      A                      A                      A
 Frequencies --   1522.1951              1531.7906              3004.9041
 Red. masses --      1.1007                 1.1087                 1.0567
 Frc consts  --      1.5027                 1.5328                 5.6218
 IR Inten    --      1.1727                 1.6031               101.2375

                     43                     44                     45
                      A                      A                      A
 Frequencies --   3022.4703              3045.6562              3053.6081
 Red. masses --      1.0556                 1.0871                 1.1064
 Frc consts  --      5.6814                 5.9414                 6.0783
 IR Inten    --     85.5046                61.6749                27.3206

                     46                     47                     48
                      A                      A                      A
 Frequencies --   3056.6505              3063.8918              3070.7266
 Red. masses --      1.0615                 1.1107                 1.0594
 Frc consts  --      5.8436                 6.1433                 5.8857
 IR Inten    --     22.1912                33.2108                27.3876

                     49                     50                     51
                      A                      A                      A
 Frequencies --   3109.9624              3125.6636              3132.4116
 Red. masses --      1.1071                 1.1087                 1.0914
 Frc consts  --      6.3090                 6.3819                 6.3094
 IR Inten    --      8.9967                24.8792                36.3255

 - Thermochemistry -
 -------------------
 Temperature   298.150 Kelvin.  Pressure   1.00000 Atm.
 Atom     1 has atomic number  6 and mass  12.00000

 Molecular mass:   126.06808 amu.
 Principal axes and moments of inertia in atomic units:
                           1         2         3
     Eigenvalues --   475.394661364.890841504.78105
           X            0.99989  -0.00523   0.01395
           Y            0.00570   0.99940  -0.03407
           Z           -0.01376   0.03415   0.99932
 This molecule is an asymmetric top.
 Rotational symmetry number  1.
 Warning -- assumption of classical behavior for rotation
           may cause significant error
 Rotational temperatures (Kelvin)      0.18219     0.06346     0.05756
 Rotational constants (GHZ):           3.79630     1.32226     1.19934
 Zero-point vibrational energy     420034.1 (Joules/Mol)
                                  100.39055 (Kcal/Mol)
 Warning -- explicit consideration of   8 degrees of freedom as
           vibrations may cause significant error
 Vibrational temperatures:     88.94   119.40   273.09   370.94   491.97
          (Kelvin)            534.54   670.85   766.57  1078.83  1109.38
                             1131.40  1193.03  1242.11  1260.02  1306.35
                             1337.15  1373.06  1405.37  1441.89  1465.67
                             1479.74  1518.14  1615.78  1635.94  1666.93
                             1685.25  1697.39  1718.94  1725.66  1747.56
                             1774.34  1809.32  1818.02  1871.11  1915.32
                             1946.01  1957.34  2110.44  2138.91  2190.10
                             2203.90  4323.38  4348.66  4382.01  4393.46
                             4397.83  4408.25  4418.09  4474.54  4497.13
                             4506.84

 Zero-point correction=                           0.159983 (Hartree/Particle)
 Thermal correction to Energy=                    0.167629
 Thermal correction to Enthalpy=                  0.168573
 Thermal correction to Gibbs Free Energy=         0.127171
 Sum of electronic and zero-point Energies=           -422.966374
 Sum of electronic and thermal Energies=              -422.958727
 Sum of electronic and thermal Enthalpies=            -422.957783
 Sum of electronic and thermal Free Energies=         -422.999185

                     E (Thermal)             CV                S
                      KCal/Mol        Cal/Mol-Kelvin    Cal/Mol-Kelvin
 Total                  105.189             29.251             87.139
 Electronic               0.000              0.000              0.000
 Translational            0.889              2.981             40.409
 Rotational               0.889              2.981             28.370
 Vibrational            103.411             23.289             18.360
 Vibration     1          0.597              1.973              4.398
 Vibration     2          0.600              1.961              3.819
 Vibration     3          0.633              1.854              2.230
 Vibration     4          0.667              1.750              1.677
 Vibration     5          0.721              1.592              1.203
 Vibration     6          0.743              1.531              1.073
 Vibration     7          0.824              1.325              0.748
 Vibration     8          0.888              1.177              0.581

 Optimization completed.
    -- Stationary point found.
 Normal termination of Gaussian 09 at Mon Jan 27 12:58:53 2020.
