 Gaussian 09, Revision D.01,
 Gaussian 09:  ES64L-G09RevD.01 24-Apr-2013

 -----------------------------
 # b3lyp 6-31G(2df,p) opt Freq
 -----------------------------

 -----
 titel
 -----
 Symbolic Z-matrix:
 Charge =  0 Multiplicity = 1

 SCF Done:  E(RB3LYP) =  -423.177810670     A.U. after   14 cycles
 Optimization completed.
    -- Stationary point found.
 Normal termination of Gaussian 09 at Tue Jan 28 01:56:01 2020.

 ----------------------------------------------------------------------
 #N Geom=AllCheck Guess=TCheck SCRF=Check GenChk RB3LYP/6-31G(2df,p) Fr
 eq
 ----------------------------------------------------------------------

 Structure from the checkpoint file:  "/scratch/puck/g09_f71965fa-b91f-46f6-8911-8f624529d2ac/Gau-64348.chk"
 -----
 titel
 -----
 Charge =  0 Multiplicity = 1

                         Standard orientation:
 ---------------------------------------------------------------------
 Center     Atomic      Atomic             Coordinates (Angstroms)
 Number     Number       Type             X           Y           Z
 ---------------------------------------------------------------------
      1          6           0        2.770189   -0.755959   -0.583428
      2          6           0        1.826482    0.384460   -0.281779
      3          6           0        1.469468    0.740252    1.125398
      4          6           0        0.425478    0.090684    0.244929
      5          6           0       -0.311851   -1.257437    0.368219
      6          6           0       -1.523990   -0.636983   -0.394920
      7          8           0       -2.776574   -0.767564    0.227762
      8          6           0       -0.822998    0.735453   -0.265245
      9          8           0       -1.205073    1.865414   -0.414601
     10          1           0        2.578705   -1.184372   -1.573141
     11          1           0        3.809568   -0.410931   -0.564838
     12          1           0        2.673255   -1.558288    0.154553
     13          1           0        1.867098    1.214909   -0.982470
     14          1           0        1.878086    0.129192    1.924642
     15          1           0        1.304336    1.782116    1.379899
     16          1           0        0.153568   -2.121013   -0.110408
     17          1           0       -0.585317   -1.508654    1.395435
     18          1           0       -1.550359   -0.966442   -1.446455
     19          1           0       -3.272443    0.037860    0.038450
 ---------------------------------------------------------------------

 SCF Done:  E(RB3LYP) =  -423.177810670     A.U. after    1 cycles

 The electronic state is 1-A.
 Alpha  occ. eigenvalues --  -19.14410 -19.13703 -10.26280 -10.23798 -10.21143
 Alpha  occ. eigenvalues --  -10.20489 -10.19919 -10.19318 -10.19077  -1.04739
 Alpha  occ. eigenvalues --   -1.02335  -0.88631  -0.80763  -0.72133  -0.63555
 Alpha  occ. eigenvalues --   -0.62058  -0.58748  -0.52382  -0.51724  -0.48708
 Alpha  occ. eigenvalues --   -0.46649  -0.44618  -0.42709  -0.41604  -0.39571
 Alpha  occ. eigenvalues --   -0.39144  -0.38732  -0.36980  -0.36085  -0.33872
 Alpha  occ. eigenvalues --   -0.31065  -0.28548  -0.28222  -0.23216
 Alpha virt. eigenvalues --   -0.02691   0.08237   0.09546   0.10667   0.11394
 Alpha virt. eigenvalues --    0.12376   0.13616   0.14838   0.15384   0.16811
 Alpha virt. eigenvalues --    0.17464   0.18071   0.19524   0.20233   0.23334

 Mulliken charges:
               1
     1  C   -0.407257
     2  C   -0.046349
     3  C   -0.340426
     4  C    0.213260
     5  C   -0.357632
     6  C    0.041941
     7  O   -0.435134
     8  C    0.308552
     9  O   -0.330612
    10  H    0.123598
    11  H    0.127783
    12  H    0.122216
    13  H    0.105880
    14  H    0.121132
    15  H    0.134347
    16  H    0.108924
    17  H    0.122948
    18  H    0.090202
    19  H    0.296628
 Sum of Mulliken charges =   0.00000

 Dipole moment (field-independent basis, Debye):
    X=              2.0401    Y=             -1.2139    Z=             -0.2094  Tot=              2.3831
 Quadrupole moment (field-independent basis, Debye-Ang):
   XX=            -52.1112   YY=            -58.3437   ZZ=            -51.6365
   XY=             -1.0523   XZ=              1.0697   YZ=              1.7317

  Exact polarizability:  94.083  -2.083  74.891   1.672   0.759  65.291
 Approx polarizability: 124.090  -5.860 116.279   2.640  -2.018  99.712

                      1                      2                      3
                      A                      A                      A
 Frequencies --     52.4910               106.8425               139.4207
 Red. masses --      4.3944                 2.9467                 2.7528
 Frc consts  --      0.0071                 0.0198                 0.0315
 IR Inten    --      4.5219                10.0929                19.6727

                      4                      5                      6
                      A                      A                      A
 Frequencies --    175.2227               194.9679               249.3507
 Red. masses --      2.6677                 1.1845                 2.0084
 Frc consts  --      0.0483                 0.0265                 0.0736
 IR Inten    --     25.7737                 0.2293                17.4432

                      7                      8                      9
                      A                      A                      A
 Frequencies --    257.0657               336.6236               381.4615
 Red. masses --      2.4073                 2.7220                 2.7387
 Frc consts  --      0.0937                 0.1817                 0.2348
 IR Inten    --     46.2102                 5.1022                 2.6072

                     10                     11                     12
                      A                      A                      A
 Frequencies --    416.1916               521.1939               549.3663
 Red. masses --      2.1597                 3.2438                 3.1112
 Frc consts  --      0.2204                 0.5192                 0.5532
 IR Inten    --      0.2105                 1.1188                 4.7865

                     13                     14                     15
                      A                      A                      A
 Frequencies --    724.7002               732.0240               781.1927
 Red. masses --      4.5286                 4.1033                 2.4863
 Frc consts  --      1.4013                 1.2955                 0.8940
 IR Inten    --      6.7666                 0.5346                 2.2365

                     16                     17                     18
                      A                      A                      A
 Frequencies --    814.3624               888.2581               906.0128
 Red. masses --      2.1695                 2.0476                 1.6425
 Frc consts  --      0.8477                 0.9519                 0.7944
 IR Inten    --      2.1798                 6.4706                 2.3761

                     19                     20                     21
                      A                      A                      A
 Frequencies --    923.4008               967.3129              1021.5692
 Red. masses --      1.8334                 3.1479                 1.3476
 Frc consts  --      0.9210                 1.7354                 0.8286
 IR Inten    --      1.4037               129.6541                 0.7233

                     22                     23                     24
                      A                      A                      A
 Frequencies --   1039.2408              1070.1256              1105.9554
 Red. masses --      2.1371                 1.5755                 2.1208
 Frc consts  --      1.3599                 1.0630                 1.5283
 IR Inten    --      1.1400                 3.6112                37.3317

                     25                     26                     27
                      A                      A                      A
 Frequencies --   1120.0921              1127.6084              1160.4560
 Red. masses --      1.5803                 1.6535                 2.0539
 Frc consts  --      1.1681                 1.2387                 1.6297
 IR Inten    --     57.7746                 3.2789                17.3433

                     28                     29                     30
                      A                      A                      A
 Frequencies --   1187.0917              1196.0928              1220.5683
 Red. masses --      1.6898                 1.6301                 1.4853
 Frc consts  --      1.4030                 1.3740                 1.3038
 IR Inten    --     25.4667                18.2946                 3.3381

                     31                     32                     33
                      A                      A                      A
 Frequencies --   1250.3797              1314.5140              1340.3944
 Red. masses --      1.6158                 1.6550                 1.5022
 Frc consts  --      1.4884                 1.6850                 1.5901
 IR Inten    --      2.6277                52.8640                26.5986

                     34                     35                     36
                      A                      A                      A
 Frequencies --   1383.6373              1406.7027              1426.9620
 Red. masses --      1.5360                 1.3812                 1.6195
 Frc consts  --      1.7326                 1.6103                 1.9430
 IR Inten    --      8.2746                10.5141                13.8600

                     37                     38                     39
                      A                      A                      A
 Frequencies --   1477.3186              1482.6846              1491.8553
 Red. masses --      1.3364                 1.1029                 1.0711
 Frc consts  --      1.7185                 1.4286                 1.4046
 IR Inten    --     12.4861                 2.5501                 6.3705

                     40                     41                     42
                      A                      A                      A
 Frequencies --   1502.5235              1868.6848              2969.7129
 Red. masses --      1.1188                12.7699                 1.0820
 Frc consts  --      1.4881                26.2731                 5.6222
 IR Inten    --      7.5628               262.5143                39.3917

                     43                     44                     45
                      A                      A                      A
 Frequencies --   3031.5547              3072.1267              3094.6799
 Red. masses --      1.0353                 1.0578                 1.1013
 Frc consts  --      5.6057                 5.8820                 6.2141
 IR Inten    --     24.1306                17.5956                19.4276

                     46                     47                     48
                      A                      A                      A
 Frequencies --   3103.2879              3124.5028              3128.7021
 Red. masses --      1.0996                 1.0538                 1.1087
 Frc consts  --      6.2393                 6.0615                 6.3943
 IR Inten    --     15.0234                10.5015                12.7339

                     49                     50                     51
                      A                      A                      A
 Frequencies --   3142.5329              3215.1039              3793.1293
 Red. masses --      1.0889                 1.1170                 1.0660
 Frc consts  --      6.3356                 6.8029                 9.0369
 IR Inten    --     15.3066                 3.9800                32.1691

 - Thermochemistry -
 -------------------
 Temperature   298.150 Kelvin.  Pressure   1.00000 Atm.
 Atom     1 has atomic number  6 and mass  12.00000

 Molecular mass:   126.06808 amu.
 Principal axes and moments of inertia in atomic units:
                           1         2         3
     Eigenvalues --   605.184341558.932191861.80835
           X            0.99996  -0.00856  -0.00281
           Y            0.00865   0.99939   0.03383
           Z            0.00252  -0.03385   0.99942
 This molecule is an asymmetric top.
 Rotational symmetry number  1.
 Warning -- assumption of classical behavior for rotation
           may cause significant error
 Rotational temperatures (Kelvin)      0.14312     0.05556     0.04652
 Rotational constants (GHZ):           2.98213     1.15768     0.96935
 Zero-point vibrational energy     412635.4 (Joules/Mol)
                                   98.62223 (Kcal/Mol)
 Warning -- explicit consideration of  12 degrees of freedom as
           vibrations may cause significant error
 Vibrational temperatures:     75.52   153.72   200.60   252.11   280.52
          (Kelvin)            358.76   369.86   484.33   548.84   598.81
                              749.88   790.41  1042.68  1053.22  1123.96
                             1171.68  1278.00  1303.55  1328.57  1391.75
                             1469.81  1495.23  1539.67  1591.22  1611.56
                             1622.38  1669.64  1707.96  1720.91  1756.12
                             1799.02  1891.29  1928.53  1990.74  2023.93
                             2053.08  2125.53  2133.25  2146.44  2161.79
                             2688.62  4272.75  4361.73  4420.10  4452.55
                             4464.93  4495.46  4501.50  4521.40  4625.81
                             5457.46

 Zero-point correction=                           0.157165 (Hartree/Particle)
 Thermal correction to Energy=                    0.166613
 Thermal correction to Enthalpy=                  0.167557
 Thermal correction to Gibbs Free Energy=         0.122530
 Sum of electronic and zero-point Energies=           -423.020646
 Sum of electronic and thermal Energies=              -423.011197
 Sum of electronic and thermal Enthalpies=            -423.010253
 Sum of electronic and thermal Free Energies=         -423.055281

                     E (Thermal)             CV                S
                      KCal/Mol        Cal/Mol-Kelvin    Cal/Mol-Kelvin
 Total                  104.551             34.401             94.769
 Electronic               0.000              0.000              0.000
 Translational            0.889              2.981             40.409
 Rotational               0.889              2.981             28.953
 Vibrational            102.774             28.439             25.407
 Vibration     1          0.596              1.977              4.721
 Vibration     2          0.606              1.944              3.325
 Vibration     3          0.615              1.914              2.812
 Vibration     4          0.627              1.873              2.379
 Vibration     5          0.636              1.847              2.180
 Vibration     6          0.662              1.764              1.735
 Vibration     7          0.667              1.751              1.682
 Vibration     8          0.717              1.602              1.228
 Vibration     9          0.751              1.510              1.033
 Vibration    10          0.779              1.435              0.905
 Vibration    11          0.876              1.203              0.607
 Vibration    12          0.905              1.141              0.545

 Normal termination of Gaussian 09 at Tue Jan 28 02:39:29 2020.
