 Gaussian 09, Revision D.01,
 Gaussian 09:  ES64L-G09RevD.01 24-Apr-2013

 -----------------------------
 # b3lyp 6-31G(2df,p) opt Freq
 -----------------------------

 -----
 titel
 -----
 Symbolic Z-matrix:
 Charge =  0 Multiplicity = 1

 SCF Done:  E(RB3LYP) =  -423.126640407     A.U. after   14 cycles
 SCF Done:  E(RB3LYP) =  -423.126640757     A.U. after    8 cycles
 SCF Done:  E(RB3LYP) =  -423.126641263     A.U. after    8 cycles
 SCF Done:  E(RB3LYP) =  -423.126641440     A.U. after    8 cycles
 SCF Done:  E(RB3LYP) =  -423.126642516     A.U. after    8 cycles
 SCF Done:  E(RB3LYP) =  -423.126643300     A.U. after    8 cycles
 SCF Done:  E(RB3LYP) =  -423.126645171     A.U. after   10 cycles
 SCF Done:  E(RB3LYP) =  -423.126644845     A.U. after    8 cycles
 SCF Done:  E(RB3LYP) =  -423.126645015     A.U. after    7 cycles
 Optimization completed.
    -- Stationary point found.
 Normal termination of Gaussian 09 at Tue Jan 28 12:40:36 2020.

 ----------------------------------------------------------------------
 #N Geom=AllCheck Guess=TCheck SCRF=Check GenChk RB3LYP/6-31G(2df,p) Fr
 eq
 ----------------------------------------------------------------------

 Structure from the checkpoint file:  "/scratch/puck/g09_1fdad93a-53f6-49cb-934f-d103dbca3c53/Gau-1234.chk"
 -----
 titel
 -----
 Charge =  0 Multiplicity = 1

                         Standard orientation:
 ---------------------------------------------------------------------
 Center     Atomic      Atomic             Coordinates (Angstroms)
 Number     Number       Type             X           Y           Z
 ---------------------------------------------------------------------
      1          8           0        4.236183    0.618626   -0.031991
      2          6           0        2.821734    0.641026   -0.018995
      3          6           0        2.221194   -0.778139    0.047456
      4          6           0        0.765967   -0.768761    0.101913
      5          6           0       -0.437290   -0.710313    0.139343
      6          6           0       -1.886761   -0.659692    0.197345
      7          6           0       -2.544320    0.500026    0.997335
      8          6           0       -3.240408    0.834672   -0.334669
      9          8           0       -2.509745   -0.196490   -1.032341
     10          1           0        4.521465    0.260741   -0.878667
     11          1           0        2.532755    1.199860    0.875830
     12          1           0        2.408960    1.174359   -0.887178
     13          1           0        2.555090   -1.350398   -0.829579
     14          1           0        2.634949   -1.290083    0.924672
     15          1           0       -2.280899   -1.648273    0.470833
     16          1           0       -3.188286    0.193468    1.822138
     17          1           0       -1.833457    1.249595    1.344448
     18          1           0       -4.322219    0.652072   -0.355486
     19          1           0       -3.040558    1.828657   -0.750726
 ---------------------------------------------------------------------

 SCF Done:  E(RB3LYP) =  -423.126645015     A.U. after    1 cycles

 The electronic state is 1-A.
 Alpha  occ. eigenvalues --  -19.14109 -19.13208 -10.25443 -10.23493 -10.23148
 Alpha  occ. eigenvalues --  -10.20806 -10.19414 -10.18063 -10.17197  -1.03650
 Alpha  occ. eigenvalues --   -1.02282  -0.79624  -0.75848  -0.73256  -0.68428
 Alpha  occ. eigenvalues --   -0.63681  -0.57795  -0.51710  -0.51327  -0.49060
 Alpha  occ. eigenvalues --   -0.47672  -0.45698  -0.44752  -0.42259  -0.40903
 Alpha  occ. eigenvalues --   -0.39418  -0.37922  -0.35126  -0.33368  -0.31072
 Alpha  occ. eigenvalues --   -0.28404  -0.26419  -0.25313  -0.24490
 Alpha virt. eigenvalues --    0.02548   0.04638   0.07124   0.10245   0.11605
 Alpha virt. eigenvalues --    0.12604   0.12789   0.13217   0.14244   0.15409
 Alpha virt. eigenvalues --    0.16818   0.18254   0.20459   0.21112   0.21934

 Mulliken charges:
               1
     1  O   -0.408503
     2  C   -0.055323
     3  C   -0.359709
     4  C    0.043219
     5  C    0.114909
     6  C   -0.033894
     7  C   -0.283424
     8  C   -0.058701
     9  O   -0.279777
    10  H    0.284812
    11  H    0.123302
    12  H    0.104206
    13  H    0.122080
    14  H    0.139881
    15  H    0.100092
    16  H    0.114780
    17  H    0.121710
    18  H    0.101894
    19  H    0.108447
 Sum of Mulliken charges =   0.00000

 Dipole moment (field-independent basis, Debye):
    X=             -0.3333    Y=              0.1529    Z=              0.5068  Tot=              0.6256
 Quadrupole moment (field-independent basis, Debye-Ang):
   XX=            -50.8667   YY=            -52.4919   ZZ=            -53.4230
   XY=             -5.3511   XZ=            -10.1303   YZ=             -0.9695

  Exact polarizability: 119.255  -5.932  65.917  -2.508  -0.784  61.660
 Approx polarizability: 158.472  -7.326  92.986  -1.987   0.292  92.509

                      1                      2                      3
                      A                      A                      A
 Frequencies --     11.2012                49.8286                75.1644
 Red. masses --      2.4412                 3.1914                 2.6665
 Frc consts  --      0.0002                 0.0047                 0.0089
 IR Inten    --      4.7721                 0.8190                 4.0836

                      4                      5                      6
                      A                      A                      A
 Frequencies --     87.4541               138.7074               210.9283
 Red. masses --      3.0543                 3.9278                 3.9405
 Frc consts  --      0.0138                 0.0445                 0.1033
 IR Inten    --      0.8914                 2.6971                 0.3859

                      7                      8                      9
                      A                      A                      A
 Frequencies --    302.9260               333.8063               354.1139
 Red. masses --      1.1597                 3.3712                 5.6449
 Frc consts  --      0.0627                 0.2213                 0.4171
 IR Inten    --     96.2714                 8.0553                 7.7447

                     10                     11                     12
                      A                      A                      A
 Frequencies --    398.7441               519.8695               569.0129
 Red. masses --      4.4558                 5.7486                 7.4675
 Frc consts  --      0.4174                 0.9154                 1.4245
 IR Inten    --     17.8552                 1.4083                 1.9658

                     13                     14                     15
                      A                      A                      A
 Frequencies --    701.5800               777.6897               798.9055
 Red. masses --      2.3901                 1.1623                 1.2338
 Frc consts  --      0.6932                 0.4142                 0.4640
 IR Inten    --      2.2325                 1.7493                 0.8175

                     16                     17                     18
                      A                      A                      A
 Frequencies --    847.0228               934.2977               947.1189
 Red. masses --      4.2290                 2.6645                 3.1693
 Frc consts  --      1.7876                 1.3704                 1.6750
 IR Inten    --      4.6256                27.8059                22.2805

                     19                     20                     21
                      A                      A                      A
 Frequencies --   1006.3375              1009.9382              1030.0550
 Red. masses --      4.6129                 3.5926                 4.3190
 Frc consts  --      2.7524                 2.1590                 2.6999
 IR Inten    --     72.9886                13.4526                68.0560

                     22                     23                     24
                      A                      A                      A
 Frequencies --   1050.0642              1083.6191              1087.9937
 Red. masses --      1.8932                 4.1200                 2.1797
 Frc consts  --      1.2299                 2.8503                 1.5202
 IR Inten    --     77.5397                84.3640                 3.3024

                     25                     26                     27
                      A                      A                      A
 Frequencies --   1163.9174              1167.5139              1181.0398
 Red. masses --      1.1678                 1.1269                 2.3473
 Frc consts  --      0.9321                 0.9050                 1.9291
 IR Inten    --      0.3024                 7.3431                10.5115

                     28                     29                     30
                      A                      A                      A
 Frequencies --   1214.5204              1255.7708              1261.5364
 Red. masses --      1.2594                 1.4545                 1.2289
 Frc consts  --      1.0945                 1.3514                 1.1523
 IR Inten    --      0.7622                 3.4090                 0.7985

                     31                     32                     33
                      A                      A                      A
 Frequencies --   1292.8983              1311.0624              1352.7615
 Red. masses --      1.3652                 1.1917                 1.3946
 Frc consts  --      1.3445                 1.2069                 1.5036
 IR Inten    --      0.7754                16.6666                 2.3347

                     34                     35                     36
                      A                      A                      A
 Frequencies --   1369.0959              1396.0050              1411.2355
 Red. masses --      1.4540                 1.2751                 1.2483
 Frc consts  --      1.6058                 1.4641                 1.4648
 IR Inten    --     62.9886                17.6008                37.7263

                     37                     38                     39
                      A                      A                      A
 Frequencies --   1469.6201              1488.2721              1509.3491
 Red. masses --      1.0859                 1.1022                 1.0891
 Frc consts  --      1.3818                 1.4384                 1.4618
 IR Inten    --      1.6815                 3.3968                 0.5629

                     40                     41                     42
                      A                      A                      A
 Frequencies --   1531.8300              2359.1784              3001.3864
 Red. masses --      1.1073                11.9030                 1.0816
 Frc consts  --      1.5309                39.0326                 5.7409
 IR Inten    --      1.1802                17.0213                47.6912

                     43                     44                     45
                      A                      A                      A
 Frequencies --   3005.5519              3010.6579              3018.1458
 Red. masses --      1.0670                 1.0659                 1.0586
 Frc consts  --      5.6790                 5.6921                 5.6817
 IR Inten    --     25.9308                41.5681                79.3053

                     46                     47                     48
                      A                      A                      A
 Frequencies --   3056.4282              3060.0581              3090.8726
 Red. masses --      1.0924                 1.1092                 1.0593
 Frc consts  --      6.0128                 6.1198                 5.9624
 IR Inten    --      9.9193                36.0240                21.3479

                     49                     50                     51
                      A                      A                      A
 Frequencies --   3094.1766              3150.9512              3817.6141
 Red. masses --      1.0985                 1.1095                 1.0662
 Frc consts  --      6.1963                 6.4905                 9.1555
 IR Inten    --     31.2849                20.4647                23.6676

 - Thermochemistry -
 -------------------
 Temperature   298.150 Kelvin.  Pressure   1.00000 Atm.
 Atom     1 has atomic number  8 and mass  15.99491

 Molecular mass:   126.06808 amu.
 Principal axes and moments of inertia in atomic units:
                           1         2         3
     Eigenvalues --   372.105343331.802523410.69618
           X            0.99991  -0.00901  -0.01040
           Y            0.00876   0.99968  -0.02387
           Z            0.01061   0.02378   0.99966
 This molecule is an asymmetric top.
 Rotational symmetry number  1.
 Rotational temperatures (Kelvin)      0.23277     0.02600     0.02539
 Rotational constants (GHZ):           4.85008     0.54167     0.52914
 Zero-point vibrational energy     414911.8 (Joules/Mol)
                                   99.16629 (Kcal/Mol)
 Warning -- explicit consideration of  12 degrees of freedom as
           vibrations may cause significant error
 Vibrational temperatures:     16.12    71.69   108.14   125.83   199.57
          (Kelvin)            303.48   435.84   480.27   509.49   573.70
                              747.98   818.68  1009.42  1118.92  1149.45
                             1218.68  1344.24  1362.69  1447.89  1453.07
                             1482.02  1510.81  1559.08  1565.38  1674.62
                             1679.79  1699.25  1747.42  1806.77  1815.07
                             1860.19  1886.32  1946.32  1969.82  2008.54
                             2030.45  2114.45  2141.29  2171.61  2203.96
                             3394.33  4318.32  4324.31  4331.66  4342.43
                             4397.51  4402.74  4447.07  4451.82  4533.51
                             5492.69

 Zero-point correction=                           0.158032 (Hartree/Particle)
 Thermal correction to Energy=                    0.168013
 Thermal correction to Enthalpy=                  0.168957
 Thermal correction to Gibbs Free Energy=         0.119852
 Sum of electronic and zero-point Energies=           -422.968613
 Sum of electronic and thermal Energies=              -422.958632
 Sum of electronic and thermal Enthalpies=            -422.957688
 Sum of electronic and thermal Free Energies=         -423.006793

                     E (Thermal)             CV                S
                      KCal/Mol        Cal/Mol-Kelvin    Cal/Mol-Kelvin
 Total                  105.430             34.097            103.350
 Electronic               0.000              0.000              0.000
 Translational            0.889              2.981             40.409
 Rotational               0.889              2.981             29.826
 Vibrational            103.652             28.136             33.115
 Vibration     1          0.593              1.987              7.786
 Vibration     2          0.595              1.978              4.824
 Vibration     3          0.599              1.966              4.013
 Vibration     4          0.601              1.958              3.716
 Vibration     5          0.614              1.915              2.822
 Vibration     6          0.643              1.824              2.036
 Vibration     7          0.694              1.668              1.401
 Vibration     8          0.715              1.608              1.242
 Vibration     9          0.730              1.567              1.148
 Vibration    10          0.765              1.473              0.967
 Vibration    11          0.875              1.206              0.610
 Vibration    12          0.925              1.098              0.506

 Optimization completed on the basis of negligible forces.
    -- Stationary point found.
 Normal termination of Gaussian 09 at Tue Jan 28 13:14:49 2020.
