 Gaussian 09, Revision D.01,
 Gaussian 09:  ES64L-G09RevD.01 24-Apr-2013

 -----------------------------
 # b3lyp 6-31G(2df,p) opt Freq
 -----------------------------

 -----
 titel
 -----
 Symbolic Z-matrix:
 Charge =  0 Multiplicity = 1

 SCF Done:  E(RB3LYP) =  -423.157089941     A.U. after   14 cycles
 Optimization completed.
    -- Stationary point found.
 Normal termination of Gaussian 09 at Mon Jan 27 14:22:06 2020.

 ----------------------------------------------------------------------
 #N Geom=AllCheck Guess=TCheck SCRF=Check GenChk RB3LYP/6-31G(2df,p) Fr
 eq
 ----------------------------------------------------------------------

 Structure from the checkpoint file:  "/scratch/puck/g09_cf3da94b-2b63-45cf-a006-1668157e9900/Gau-49689.chk"
 -----
 titel
 -----
 Charge =  0 Multiplicity = 1

                         Standard orientation:
 ---------------------------------------------------------------------
 Center     Atomic      Atomic             Coordinates (Angstroms)
 Number     Number       Type             X           Y           Z
 ---------------------------------------------------------------------
      1          6           0       -0.738641    1.856677   -0.394792
      2          6           0        0.058835    0.617037    0.033334
      3          8           0        0.170383    0.561637    1.453501
      4          6           0       -0.665083   -0.683082   -0.367158
      5          6           0       -2.020386   -0.840719    0.287981
      6          8           0       -3.041026   -1.063684   -0.314321
      7          6           0        1.472158    0.670415   -0.615098
      8          6           0        2.342167   -0.438166   -0.248881
      9          6           0        3.059719   -1.356244    0.045460
     10          1           0       -1.724709    1.859422    0.076886
     11          1           0       -0.215928    2.773289   -0.097014
     12          1           0       -0.878401    1.888302   -1.479646
     13          1           0        0.570200    1.382398    1.760549
     14          1           0       -0.791283   -0.739433   -1.451547
     15          1           0       -0.037681   -1.523303   -0.042723
     16          1           0       -2.010950   -0.746772    1.393552
     17          1           0        1.362193    0.712902   -1.706056
     18          1           0        1.943315    1.618853   -0.321219
     19          1           0        3.695777   -2.164784    0.308697
 ---------------------------------------------------------------------

 SCF Done:  E(RB3LYP) =  -423.157089942     A.U. after    1 cycles

 The electronic state is 1-A.
 Alpha  occ. eigenvalues --  -19.15007 -19.13348 -10.26475 -10.26367 -10.21780
 Alpha  occ. eigenvalues --  -10.19103 -10.19093 -10.18747 -10.17701  -1.04070
 Alpha  occ. eigenvalues --   -1.03504  -0.82159  -0.76748  -0.72802  -0.70174
 Alpha  occ. eigenvalues --   -0.60838  -0.57148  -0.53967  -0.50093  -0.48425
 Alpha  occ. eigenvalues --   -0.47839  -0.45534  -0.44062  -0.42627  -0.41268
 Alpha  occ. eigenvalues --   -0.39307  -0.39092  -0.37803  -0.36120  -0.33708
 Alpha  occ. eigenvalues --   -0.29143  -0.27015  -0.26889  -0.24264
 Alpha virt. eigenvalues --   -0.01822   0.03672   0.04996   0.06905   0.10935
 Alpha virt. eigenvalues --    0.11439   0.12509   0.13410   0.14443   0.15504
 Alpha virt. eigenvalues --    0.16585   0.18291   0.18759   0.20386   0.21368

 Mulliken charges:
               1
     1  C   -0.424741
     2  C    0.311484
     3  O   -0.450900
     4  C   -0.279448
     5  C    0.149871
     6  O   -0.251568
     7  C   -0.397960
     8  C    0.318821
     9  C   -0.438583
    10  H    0.137761
    11  H    0.108344
    12  H    0.127305
    13  H    0.282082
    14  H    0.114767
    15  H    0.141039
    16  H    0.098168
    17  H    0.134727
    18  H    0.119852
    19  H    0.198980
 Sum of Mulliken charges =   0.00000

 Dipole moment (field-independent basis, Debye):
    X=              2.5955    Y=              2.1568    Z=              0.1399  Tot=              3.3775
 Quadrupole moment (field-independent basis, Debye-Ang):
   XX=            -63.3680   YY=            -48.0207   ZZ=            -53.0765
   XY=             -4.0185   XZ=             -0.9778   YZ=             -0.1110

  Exact polarizability:  91.546  -8.743  77.855   4.311  -2.609  64.863
 Approx polarizability: 125.511 -15.422 117.780  12.884  -5.900 101.565

                      1                      2                      3
                      A                      A                      A
 Frequencies --     46.0080                77.8512                88.3225
 Red. masses --      4.5052                 3.3475                 3.2054
 Frc consts  --      0.0056                 0.0120                 0.0147
 IR Inten    --      7.0939                 2.4424                 0.7618

                      4                      5                      6
                      A                      A                      A
 Frequencies --    138.6462               212.9084               247.8727
 Red. masses --      4.2054                 2.8402                 1.0480
 Frc consts  --      0.0476                 0.0759                 0.0379
 IR Inten    --      1.2632                 3.1102                 0.3901

                      7                      8                      9
                      A                      A                      A
 Frequencies --    268.5576               308.4101               317.8299
 Red. masses --      1.0668                 3.0293                 4.7482
 Frc consts  --      0.0453                 0.1698                 0.2826
 IR Inten    --     95.0752                 2.4575                 9.7222

                     10                     11                     12
                      A                      A                      A
 Frequencies --    353.5404               390.5377               393.0174
 Red. masses --      2.7326                 4.5642                 2.1929
 Frc consts  --      0.2012                 0.4101                 0.1996
 IR Inten    --      1.3582                 3.9529                 2.8608

                     13                     14                     15
                      A                      A                      A
 Frequencies --    455.4174               511.9182               605.3468
 Red. masses --      3.8766                 2.3615                 4.3406
 Frc consts  --      0.4737                 0.3646                 0.9372
 IR Inten    --     20.3443                 9.0144                 4.3674

                     16                     17                     18
                      A                      A                      A
 Frequencies --    621.2925               649.0530               737.5552
 Red. masses --      1.2062                 1.2333                 2.3636
 Frc consts  --      0.2743                 0.3061                 0.7576
 IR Inten    --     41.0777                43.5842                 0.4914

                     19                     20                     21
                      A                      A                      A
 Frequencies --    850.3618               890.0538               920.0822
 Red. masses --      2.4994                 1.9543                 2.1932
 Frc consts  --      1.0649                 0.9122                 1.0939
 IR Inten    --     17.0245                 0.5601                 6.3626

                     22                     23                     24
                      A                      A                      A
 Frequencies --    947.6991               984.9649              1010.9730
 Red. masses --      1.5805                 2.8311                 2.0679
 Frc consts  --      0.8364                 1.6183                 1.2452
 IR Inten    --      1.1718                 9.4406                 7.7041

                     25                     26                     27
                      A                      A                      A
 Frequencies --   1055.3772              1118.3938              1147.7429
 Red. masses --      2.4955                 1.7444                 2.1052
 Frc consts  --      1.6377                 1.2855                 1.6339
 IR Inten    --     23.8436                25.3129                30.1984

                     28                     29                     30
                      A                      A                      A
 Frequencies --   1182.3200              1211.6111              1268.5103
 Red. masses --      2.4234                 1.1218                 1.3967
 Frc consts  --      1.9960                 0.9703                 1.3242
 IR Inten    --     43.2994                23.7250                41.5026

                     31                     32                     33
                      A                      A                      A
 Frequencies --   1314.1938              1338.8876              1389.7801
 Red. masses --      1.4929                 1.6296                 1.7338
 Frc consts  --      1.5192                 1.7211                 1.9731
 IR Inten    --     11.7218                17.2607                35.0961

                     34                     35                     36
                      A                      A                      A
 Frequencies --   1412.3964              1422.6201              1453.1911
 Red. masses --      1.2493                 1.2033                 1.0937
 Frc consts  --      1.4683                 1.4348                 1.3608
 IR Inten    --     10.0859                 8.3072                 4.9397

                     37                     38                     39
                      A                      A                      A
 Frequencies --   1463.3687              1493.2166              1495.4557
 Red. masses --      1.0887                 1.0742                 1.0558
 Frc consts  --      1.3736                 1.4112                 1.3912
 IR Inten    --      1.8505                 4.3654                 1.8127

                     40                     41                     42
                      A                      A                      A
 Frequencies --   1825.3475              2239.3844              2924.3912
 Red. masses --      9.7596                 5.9252                 1.0837
 Frc consts  --     19.1589                17.5068                 5.4607
 IR Inten    --    179.9430                 0.6281                67.1376

                     43                     44                     45
                      A                      A                      A
 Frequencies --   3009.3450              3031.2069              3036.6950
 Red. masses --      1.0622                 1.0399                 1.0605
 Frc consts  --      5.6678                 5.6297                 5.7621
 IR Inten    --     17.4131                22.5714                 1.3495

                     46                     47                     48
                      A                      A                      A
 Frequencies --   3050.7804              3100.0785              3110.7884
 Red. masses --      1.0970                 1.0982                 1.0994
 Frc consts  --      6.0154                 6.2185                 6.2681
 IR Inten    --      8.7682                21.8255                 9.9740

                     49                     50                     51
                      A                      A                      A
 Frequencies --   3123.5760              3505.3014              3807.7161
 Red. masses --      1.1018                 1.1625                 1.0661
 Frc consts  --      6.3334                 8.4154                 9.1071
 IR Inten    --     17.3992                66.8590                16.0991

 - Thermochemistry -
 -------------------
 Temperature   298.150 Kelvin.  Pressure   1.00000 Atm.
 Atom     1 has atomic number  6 and mass  12.00000

 Molecular mass:   126.06808 amu.
 Principal axes and moments of inertia in atomic units:
                           1         2         3
     Eigenvalues --   708.489501783.637622080.59217
           X            0.99978  -0.02097  -0.00277
           Y            0.02087   0.99921  -0.03375
           Z            0.00347   0.03369   0.99943
 This molecule is an asymmetric top.
 Rotational symmetry number  1.
 Warning -- assumption of classical behavior for rotation
           may cause significant error
 Rotational temperatures (Kelvin)      0.12225     0.04856     0.04163
 Rotational constants (GHZ):           2.54731     1.01183     0.86742
 Zero-point vibrational energy     404097.9 (Joules/Mol)
                                   96.58172 (Kcal/Mol)
 Warning -- explicit consideration of  15 degrees of freedom as
           vibrations may cause significant error
 Vibrational temperatures:     66.20   112.01   127.08   199.48   306.33
          (Kelvin)            356.63   386.39   443.73   457.29   508.67
                              561.90   565.46   655.24   736.54   870.96
                              893.90   933.84  1061.18  1223.48  1280.59
                             1323.79  1363.53  1417.14  1454.56  1518.45
                             1609.12  1651.34  1701.09  1743.24  1825.10
                             1890.83  1926.36  1999.58  2032.12  2046.83
                             2090.82  2105.46  2148.40  2151.62  2626.26
                             3221.97  4207.54  4329.77  4361.23  4369.12
                             4389.39  4460.32  4475.73  4494.12  5043.34
                             5478.45

 Zero-point correction=                           0.153913 (Hartree/Particle)
 Thermal correction to Energy=                    0.164568
 Thermal correction to Enthalpy=                  0.165512
 Thermal correction to Gibbs Free Energy=         0.117756
 Sum of electronic and zero-point Energies=           -423.003177
 Sum of electronic and thermal Energies=              -422.992522
 Sum of electronic and thermal Enthalpies=            -422.991578
 Sum of electronic and thermal Free Energies=         -423.039334

                     E (Thermal)             CV                S
                      KCal/Mol        Cal/Mol-Kelvin    Cal/Mol-Kelvin
 Total                  103.268             38.301            100.512
 Electronic               0.000              0.000              0.000
 Translational            0.889              2.981             40.409
 Rotational               0.889              2.981             29.354
 Vibrational            101.491             32.339             30.750
 Vibration     1          0.595              1.979              4.982
 Vibration     2          0.599              1.964              3.944
 Vibration     3          0.601              1.957              3.697
 Vibration     4          0.614              1.915              2.822
 Vibration     5          0.644              1.821              2.019
 Vibration     6          0.661              1.766              1.746
 Vibration     7          0.673              1.731              1.605
 Vibration     8          0.698              1.658              1.371
 Vibration     9          0.704              1.640              1.321
 Vibration    10          0.730              1.568              1.150
 Vibration    11          0.758              1.490              0.998
 Vibration    12          0.760              1.485              0.989
 Vibration    13          0.814              1.349              0.780
 Vibration    14          0.867              1.224              0.629
 Vibration    15          0.964              1.020              0.441

 Optimization completed.
    -- Stationary point found.
 Normal termination of Gaussian 09 at Mon Jan 27 14:58:41 2020.
