 Gaussian 09, Revision D.01,
 Gaussian 09:  ES64L-G09RevD.01 24-Apr-2013

 -----------------------------
 # b3lyp 6-31G(2df,p) opt Freq
 -----------------------------

 -----
 titel
 -----
 Symbolic Z-matrix:
 Charge =  0 Multiplicity = 1

 SCF Done:  E(RB3LYP) =  -423.117923431     A.U. after   14 cycles
 Optimization completed.
    -- Stationary point found.
 Normal termination of Gaussian 09 at Mon Jan 27 15:52:47 2020.

 ----------------------------------------------------------------------
 #N Geom=AllCheck Guess=TCheck SCRF=Check GenChk RB3LYP/6-31G(2df,p) Fr
 eq
 ----------------------------------------------------------------------

 Structure from the checkpoint file:  "/scratch/puck/g09_106e44f4-7f41-4611-afe8-61adb933f6b3/Gau-143383.chk"
 -----
 titel
 -----
 Charge =  0 Multiplicity = 1

                         Standard orientation:
 ---------------------------------------------------------------------
 Center     Atomic      Atomic             Coordinates (Angstroms)
 Number     Number       Type             X           Y           Z
 ---------------------------------------------------------------------
      1          8           0       -1.837832    1.659188    0.094606
      2          6           0       -1.596866    0.339813   -0.394805
      3          6           0       -0.303383   -0.262471    0.185686
      4          6           0        0.925311    0.606666   -0.106376
      5          6           0        2.182532    0.034426    0.498917
      6          6           0        3.484434    0.101724   -0.174539
      7          8           0        2.737149   -1.115893   -0.149646
      8          6           0       -2.745490   -0.538204   -0.156234
      9          6           0       -3.681307   -1.251667    0.089981
     10          1           0       -2.178650    1.574902    0.992242
     11          1           0       -1.465934    0.468451   -1.476965
     12          1           0       -0.433803   -0.387500    1.268869
     13          1           0       -0.158927   -1.264854   -0.231551
     14          1           0        1.064005    0.698710   -1.190537
     15          1           0        0.756580    1.616555    0.283814
     16          1           0        2.184309   -0.039157    1.588937
     17          1           0        3.557890    0.585280   -1.148098
     18          1           0        4.402630    0.100686    0.411532
     19          1           0       -4.514018   -1.881148    0.286295
 ---------------------------------------------------------------------

 SCF Done:  E(RB3LYP) =  -423.117923431     A.U. after    1 cycles

 The electronic state is 1-A.
 Alpha  occ. eigenvalues --  -19.14747 -19.14617 -10.25975 -10.23760 -10.23212
 Alpha  occ. eigenvalues --  -10.18991 -10.18783 -10.18612 -10.18186  -1.06726
 Alpha  occ. eigenvalues --   -1.02874  -0.80331  -0.76077  -0.70848  -0.66313
 Alpha  occ. eigenvalues --   -0.62517  -0.58876  -0.55268  -0.50957  -0.49763
 Alpha  occ. eigenvalues --   -0.48052  -0.47613  -0.43616  -0.42241  -0.39349
 Alpha  occ. eigenvalues --   -0.37960  -0.36657  -0.35035  -0.34429  -0.30271
 Alpha  occ. eigenvalues --   -0.29210  -0.27535  -0.26712  -0.26485
 Alpha virt. eigenvalues --    0.03052   0.04856   0.09136   0.10551   0.10710
 Alpha virt. eigenvalues --    0.11537   0.12255   0.12691   0.13133   0.14832
 Alpha virt. eigenvalues --    0.16003   0.17054   0.18467   0.19104   0.22344

 Mulliken charges:
               1
     1  O   -0.417630
     2  C   -0.063876
     3  C   -0.186693
     4  C   -0.221717
     5  C    0.088839
     6  C   -0.180117
     7  O   -0.237696
     8  C    0.290772
     9  C   -0.434528
    10  H    0.285397
    11  H    0.119292
    12  H    0.096578
    13  H    0.127917
    14  H    0.101643
    15  H    0.116870
    16  H    0.088439
    17  H    0.112546
    18  H    0.113489
    19  H    0.200474
 Sum of Mulliken charges =   0.00000

 Dipole moment (field-independent basis, Debye):
    X=             -0.0634    Y=              0.6577    Z=              1.2072  Tot=              1.3762
 Quadrupole moment (field-independent basis, Debye-Ang):
   XX=            -49.0784   YY=            -57.5988   ZZ=            -50.1039
   XY=              8.3171   XZ=             -2.3614   YZ=              0.6923

  Exact polarizability: 104.705  12.376  68.537  -5.333  -2.010  62.585
 Approx polarizability: 129.225  21.555 111.381 -11.756  -3.281  96.775

                      1                      2                      3
                      A                      A                      A
 Frequencies --     54.6738                61.9239                95.4634
 Red. masses --      4.1055                 3.9636                 3.3236
 Frc consts  --      0.0072                 0.0090                 0.0178
 IR Inten    --      3.7867                 2.0389                 1.4936

                      4                      5                      6
                      A                      A                      A
 Frequencies --    130.9969               190.9800               222.3532
 Red. masses --      2.8851                 3.6893                 3.1652
 Frc consts  --      0.0292                 0.0793                 0.0922
 IR Inten    --      0.3816                 0.0937                 5.7298

                      7                      8                      9
                      A                      A                      A
 Frequencies --    263.9973               301.5012               384.1424
 Red. masses --      2.7574                 1.2781                 3.4691
 Frc consts  --      0.1132                 0.0685                 0.3016
 IR Inten    --     17.5186                90.7724                 0.8517

                     10                     11                     12
                      A                      A                      A
 Frequencies --    442.0481               456.5200               562.8149
 Red. masses --      3.3443                 2.7929                 4.2960
 Frc consts  --      0.3850                 0.3429                 0.8018
 IR Inten    --     13.9771                 2.8775                11.5501

                     13                     14                     15
                      A                      A                      A
 Frequencies --    572.4212               631.9456               672.9661
 Red. masses --      3.9318                 1.2198                 1.2470
 Frc consts  --      0.7591                 0.2870                 0.3327
 IR Inten    --      8.7570                45.6108                35.3386

                     16                     17                     18
                      A                      A                      A
 Frequencies --    758.5693               809.1577               852.3064
 Red. masses --      1.6784                 2.3292                 2.5820
 Frc consts  --      0.5690                 0.8985                 1.1051
 IR Inten    --      3.8870                11.0464                 2.5942

                     19                     20                     21
                      A                      A                      A
 Frequencies --    902.5947               947.9664               971.0186
 Red. masses --      2.5192                 3.6803                 1.9376
 Frc consts  --      1.2092                 1.9486                 1.0764
 IR Inten    --     49.4724                19.1316                 5.4617

                     22                     23                     24
                      A                      A                      A
 Frequencies --   1023.7677              1060.6299              1073.6993
 Red. masses --      2.5785                 1.9483                 2.7038
 Frc consts  --      1.5923                 1.2913                 1.8365
 IR Inten    --     14.3686                 6.1166                78.1767

                     25                     26                     27
                      A                      A                      A
 Frequencies --   1107.2481              1120.9439              1160.3202
 Red. masses --      1.8446                 1.7121                 1.3707
 Frc consts  --      1.3324                 1.2675                 1.0873
 IR Inten    --     10.9645                 8.4328                 0.7198

                     28                     29                     30
                      A                      A                      A
 Frequencies --   1169.3388              1207.0018              1253.0544
 Red. masses --      1.3190                 1.5004                 1.2466
 Frc consts  --      1.0626                 1.2879                 1.1533
 IR Inten    --      6.5784                15.1062                 5.6747

                     31                     32                     33
                      A                      A                      A
 Frequencies --   1277.9671              1296.0819              1321.1477
 Red. masses --      1.3576                 1.5357                 1.2292
 Frc consts  --      1.3063                 1.5199                 1.2641
 IR Inten    --      8.1381                 5.5536                 0.3883

                     34                     35                     36
                      A                      A                      A
 Frequencies --   1341.4493              1382.8193              1418.8008
 Red. masses --      1.2646                 1.4617                 1.2357
 Frc consts  --      1.3408                 1.6468                 1.4656
 IR Inten    --      3.5764                 5.6268                54.8919

                     37                     38                     39
                      A                      A                      A
 Frequencies --   1449.6565              1471.8683              1489.8076
 Red. masses --      1.6793                 1.0933                 1.1046
 Frc consts  --      2.0793                 1.3955                 1.4445
 IR Inten    --     13.3969                 1.7794                 4.4632

                     40                     41                     42
                      A                      A                      A
 Frequencies --   1531.5943              2232.8613              3020.0290
 Red. masses --      1.3734                 5.9075                 1.0684
 Frc consts  --      1.8981                17.3532                 5.7412
 IR Inten    --      3.6882                 0.8811                 1.4523

                     43                     44                     45
                      A                      A                      A
 Frequencies --   3031.2163              3037.9394              3070.0343
 Red. masses --      1.0700                 1.0690                 1.0939
 Frc consts  --      5.7923                 5.8127                 6.0745
 IR Inten    --      2.9913                40.3832                 3.9365

                     46                     47                     48
                      A                      A                      A
 Frequencies --   3079.7660              3083.4769              3095.3472
 Red. masses --      1.0585                 1.0838                 1.0997
 Frc consts  --      5.9152                 6.0711                 6.2077
 IR Inten    --     29.4348                 7.7885                52.2331

                     49                     50                     51
                      A                      A                      A
 Frequencies --   3166.1890              3503.0031              3803.8076
 Red. masses --      1.1193                 1.1625                 1.0661
 Frc consts  --      6.6111                 8.4046                 9.0888
 IR Inten    --     30.6372                66.5591                23.8113

 - Thermochemistry -
 -------------------
 Temperature   298.150 Kelvin.  Pressure   1.00000 Atm.
 Atom     1 has atomic number  8 and mass  15.99491

 Molecular mass:   126.06808 amu.
 Principal axes and moments of inertia in atomic units:
                           1         2         3
     Eigenvalues --   434.021152697.909283009.45176
           X            0.99989   0.01430  -0.00239
           Y           -0.01433   0.99984  -0.01071
           Z            0.00224   0.01075   0.99994
 This molecule is an asymmetric top.
 Rotational symmetry number  1.
 Warning -- assumption of classical behavior for rotation
           may cause significant error
 Rotational temperatures (Kelvin)      0.19956     0.03210     0.02878
 Rotational constants (GHZ):           4.15819     0.66894     0.59969
 Zero-point vibrational energy     410123.1 (Joules/Mol)
                                   98.02177 (Kcal/Mol)
 Warning -- explicit consideration of  13 degrees of freedom as
           vibrations may cause significant error
 Vibrational temperatures:     78.66    89.09   137.35   188.48   274.78
          (Kelvin)            319.92   379.83   433.79   552.69   636.01
                              656.83   809.76   823.59   909.23   968.25
                             1091.41  1164.20  1226.28  1298.63  1363.91
                             1397.08  1472.97  1526.01  1544.81  1593.08
                             1612.79  1669.44  1682.42  1736.60  1802.86
                             1838.71  1864.77  1900.83  1930.04  1989.57
                             2041.34  2085.73  2117.69  2143.50  2203.62
                             3212.59  4345.14  4361.24  4370.91  4417.09
                             4431.09  4436.43  4453.51  4555.43  5040.03
                             5472.82

 Zero-point correction=                           0.156208 (Hartree/Particle)
 Thermal correction to Energy=                    0.166218
 Thermal correction to Enthalpy=                  0.167162
 Thermal correction to Gibbs Free Energy=         0.120210
 Sum of electronic and zero-point Energies=           -422.961716
 Sum of electronic and thermal Energies=              -422.951705
 Sum of electronic and thermal Enthalpies=            -422.950761
 Sum of electronic and thermal Free Energies=         -422.997714

                     E (Thermal)             CV                S
                      KCal/Mol        Cal/Mol-Kelvin    Cal/Mol-Kelvin
 Total                  104.303             35.850             98.820
 Electronic               0.000              0.000              0.000
 Translational            0.889              2.981             40.409
 Rotational               0.889              2.981             29.645
 Vibrational            102.526             29.889             28.767
 Vibration     1          0.596              1.976              4.641
 Vibration     2          0.597              1.972              4.395
 Vibration     3          0.603              1.952              3.545
 Vibration     4          0.612              1.922              2.931
 Vibration     5          0.634              1.852              2.218
 Vibration     6          0.648              1.807              1.940
 Vibration     7          0.671              1.739              1.635
 Vibration     8          0.693              1.671              1.409
 Vibration     9          0.753              1.504              1.023
 Vibration    10          0.802              1.378              0.820
 Vibration    11          0.815              1.346              0.776
 Vibration    12          0.919              1.112              0.518
 Vibration    13          0.929              1.091              0.500

 Normal termination of Gaussian 09 at Mon Jan 27 16:29:13 2020.
