 Gaussian 09, Revision D.01,
 Gaussian 09:  ES64L-G09RevD.01 24-Apr-2013

 -----------------------------
 # b3lyp 6-31G(2df,p) opt Freq
 -----------------------------

 -----
 titel
 -----
 Symbolic Z-matrix:
 Charge =  0 Multiplicity = 1

 SCF Done:  E(RB3LYP) =  -423.181147606     A.U. after   14 cycles
 Optimization completed.
    -- Stationary point found.
 Normal termination of Gaussian 09 at Mon Jan 27 22:57:34 2020.

 ----------------------------------------------------------------------
 #N Geom=AllCheck Guess=TCheck SCRF=Check GenChk RB3LYP/6-31G(2df,p) Fr
 eq
 ----------------------------------------------------------------------

 Structure from the checkpoint file:  "/scratch/puck/g09_9c4cd824-939c-4ad2-973a-4745bf7e97fe/Gau-191708.chk"
 -----
 titel
 -----
 Charge =  0 Multiplicity = 1

                         Standard orientation:
 ---------------------------------------------------------------------
 Center     Atomic      Atomic             Coordinates (Angstroms)
 Number     Number       Type             X           Y           Z
 ---------------------------------------------------------------------
      1          8           0        0.850963    2.116081    0.052765
      2          6           0        0.228589    0.929240   -0.408852
      3          6           0        1.297804   -0.108060   -0.777004
      4          6           0        1.771824   -0.596111    0.623010
      5          6           0        0.328817   -1.172476    0.688005
      6          6           0        0.462088   -1.418043   -0.843240
      7          6           0       -0.519033    0.138007    0.721177
      8          6           0       -1.983414   -0.122492    0.490613
      9          8           0       -2.547008   -0.028303   -0.573650
     10          1           0        0.175162    2.793748    0.148775
     11          1           0       -0.446405    1.134941   -1.247182
     12          1           0        1.995038    0.180944   -1.562500
     13          1           0        2.524878   -1.384708    0.557668
     14          1           0        2.065387    0.158970    1.354981
     15          1           0        0.046941   -1.961297    1.386625
     16          1           0        1.078227   -2.290710   -1.069341
     17          1           0       -0.447056   -1.425384   -1.449279
     18          1           0       -0.398142    0.639550    1.688689
     19          1           0       -2.545716   -0.448672    1.396399
 ---------------------------------------------------------------------

 SCF Done:  E(RB3LYP) =  -423.181147606     A.U. after    1 cycles

 The electronic state is 1-A.
 Alpha  occ. eigenvalues --  -19.14217 -19.13864 -10.27120 -10.23238 -10.20532
 Alpha  occ. eigenvalues --  -10.19462 -10.19068 -10.18560 -10.18500  -1.04786
 Alpha  occ. eigenvalues --   -1.02170  -0.89085  -0.74703  -0.69616  -0.66347
 Alpha  occ. eigenvalues --   -0.61236  -0.54805  -0.54414  -0.51493  -0.50481
 Alpha  occ. eigenvalues --   -0.47415  -0.46752  -0.43562  -0.39769  -0.38512
 Alpha  occ. eigenvalues --   -0.37950  -0.36989  -0.35055  -0.33283  -0.32274
 Alpha  occ. eigenvalues --   -0.31832  -0.30663  -0.27043  -0.24703
 Alpha virt. eigenvalues --   -0.02569   0.07616   0.09859   0.11014   0.13143
 Alpha virt. eigenvalues --    0.13549   0.14395   0.15658   0.16363   0.17852
 Alpha virt. eigenvalues --    0.18056   0.18562   0.19603   0.20165   0.22116

 Mulliken charges:
               1
     1  O   -0.445007
     2  C    0.116108
     3  C   -0.029371
     4  C   -0.228001
     5  C   -0.036943
     6  C   -0.241762
     7  C   -0.107743
     8  C    0.123084
     9  O   -0.249095
    10  H    0.284024
    11  H    0.091022
    12  H    0.069087
    13  H    0.098146
    14  H    0.108547
    15  H    0.066906
    16  H    0.101763
    17  H    0.116824
    18  H    0.085139
    19  H    0.077272
 Sum of Mulliken charges =   0.00000

 Dipole moment (field-independent basis, Debye):
    X=              0.5455    Y=             -0.2170    Z=              1.5047  Tot=              1.6152
 Quadrupole moment (field-independent basis, Debye-Ang):
   XX=            -59.9142   YY=            -49.7308   ZZ=            -52.4832
   XY=             -3.9708   XZ=             -4.5351   YZ=              0.1233

  Exact polarizability:  81.891  -1.607  72.928  -0.446  -0.328  70.935
 Approx polarizability: 116.224  -1.132 105.594   6.041  -0.922 114.551

                      1                      2                      3
                      A                      A                      A
 Frequencies --     65.2112               156.2348               198.9008
 Red. masses --      4.7514                 3.1367                 5.4529
 Frc consts  --      0.0119                 0.0451                 0.1271
 IR Inten    --      8.1116                 1.1919                 5.1713

                      4                      5                      6
                      A                      A                      A
 Frequencies --    244.8435               266.1457               338.8758
 Red. masses --      1.9443                 1.2872                 3.4413
 Frc consts  --      0.0687                 0.0537                 0.2328
 IR Inten    --     10.1264                91.1933                 4.3706

                      7                      8                      9
                      A                      A                      A
 Frequencies --    410.0290               478.5990               529.9698
 Red. masses --      3.7653                 2.3811                 2.7197
 Frc consts  --      0.3730                 0.3213                 0.4501
 IR Inten    --      1.3167                 2.6461                 3.0429

                     10                     11                     12
                      A                      A                      A
 Frequencies --    634.0082               693.8205               806.9630
 Red. masses --      3.4064                 4.4051                 3.5735
 Frc consts  --      0.8067                 1.2494                 1.3711
 IR Inten    --      7.6948                15.4058                 2.0400

                     13                     14                     15
                      A                      A                      A
 Frequencies --    851.5143               853.7545               857.5426
 Red. masses --      2.2401                 2.2162                 2.8177
 Frc consts  --      0.9570                 0.9518                 1.2208
 IR Inten    --      2.1853                 1.3756                 3.5422

                     16                     17                     18
                      A                      A                      A
 Frequencies --    888.8705               935.7768               972.8654
 Red. masses --      2.3630                 2.0029                 2.0007
 Frc consts  --      1.1000                 1.0334                 1.1157
 IR Inten    --      0.5308                 8.3997                12.0716

                     19                     20                     21
                      A                      A                      A
 Frequencies --    989.3200              1014.3632              1029.6102
 Red. masses --      1.8381                 1.9739                 1.6525
 Frc consts  --      1.0600                 1.1967                 1.0322
 IR Inten    --      2.2762                30.9075                16.8640

                     22                     23                     24
                      A                      A                      A
 Frequencies --   1048.7590              1061.5349              1088.2331
 Red. masses --      2.1900                 1.5793                 1.2700
 Frc consts  --      1.4192                 1.0485                 0.8861
 IR Inten    --     37.9298                 7.2182                 3.7146

                     25                     26                     27
                      A                      A                      A
 Frequencies --   1100.4179              1122.0666              1140.7086
 Red. masses --      1.4247                 1.7373                 2.2473
 Frc consts  --      1.0165                 1.2887                 1.7229
 IR Inten    --      0.9018                 1.2405                35.9856

                     28                     29                     30
                      A                      A                      A
 Frequencies --   1205.7347              1216.0281              1237.4698
 Red. masses --      1.5286                 1.2684                 1.4107
 Frc consts  --      1.3093                 1.1051                 1.2728
 IR Inten    --     15.0549                13.7846                 2.5405

                     31                     32                     33
                      A                      A                      A
 Frequencies --   1255.8827              1271.4693              1285.6413
 Red. masses --      1.5795                 1.4023                 1.5744
 Frc consts  --      1.4678                 1.3357                 1.5332
 IR Inten    --      4.6818                28.7534                13.8089

                     34                     35                     36
                      A                      A                      A
 Frequencies --   1307.1911              1312.6387              1358.8415
 Red. masses --      1.4281                 1.5530                 1.6986
 Frc consts  --      1.4378                 1.5765                 1.8479
 IR Inten    --      5.3344                 3.2131                39.1744

                     37                     38                     39
                      A                      A                      A
 Frequencies --   1425.3857              1439.0398              1486.5866
 Red. masses --      1.2244                 1.3854                 1.0925
 Frc consts  --      1.4657                 1.6903                 1.4224
 IR Inten    --      5.9916                 6.8436                 2.8496

                     40                     41                     42
                      A                      A                      A
 Frequencies --   1518.6594              1811.8982              2859.8696
 Red. masses --      1.1260                10.0355                 1.0823
 Frc consts  --      1.5301                19.4114                 5.2156
 IR Inten    --      3.3241               134.4282               140.9221

                     43                     44                     45
                      A                      A                      A
 Frequencies --   3043.1065              3046.9855              3066.1783
 Red. masses --      1.0843                 1.0849                 1.0558
 Frc consts  --      5.9158                 5.9344                 5.8485
 IR Inten    --     13.9968                23.1916                38.6626

                     46                     47                     48
                      A                      A                      A
 Frequencies --   3069.2669              3105.8693              3125.4967
 Red. masses --      1.0571                 1.0891                 1.0954
 Frc consts  --      5.8671                 6.1902                 6.3046
 IR Inten    --     15.6128                51.7785                26.6481

                     49                     50                     51
                      A                      A                      A
 Frequencies --   3128.2648              3131.3498              3825.8306
 Red. masses --      1.1066                 1.1078                 1.0664
 Frc consts  --      6.3801                 6.4001                 9.1967
 IR Inten    --     18.2786                36.1305                23.9309

 - Thermochemistry -
 -------------------
 Temperature   298.150 Kelvin.  Pressure   1.00000 Atm.
 Atom     1 has atomic number  8 and mass  15.99491

 Molecular mass:   126.06808 amu.
 Principal axes and moments of inertia in atomic units:
                           1         2         3
     Eigenvalues --   746.280331107.097071433.69580
           X            0.99914  -0.03852  -0.01531
           Y            0.03860   0.99924   0.00483
           Z            0.01511  -0.00542   0.99987
 This molecule is an asymmetric top.
 Rotational symmetry number  1.
 Warning -- assumption of classical behavior for rotation
           may cause significant error
 Rotational temperatures (Kelvin)      0.11606     0.07824     0.06041
 Rotational constants (GHZ):           2.41832     1.63016     1.25880
 Zero-point vibrational energy     420568.9 (Joules/Mol)
                                  100.51837 (Kcal/Mol)
 Warning -- explicit consideration of   9 degrees of freedom as
           vibrations may cause significant error
 Vibrational temperatures:     93.82   224.79   286.17   352.27   382.92
          (Kelvin)            487.57   589.94   688.60   762.51   912.20
                              998.25  1161.04  1225.14  1228.36  1233.81
                             1278.88  1346.37  1399.73  1423.41  1459.44
                             1481.38  1508.93  1527.31  1565.72  1583.25
                             1614.40  1641.22  1734.78  1749.59  1780.44
                             1806.93  1829.36  1849.75  1880.75  1888.59
                             1955.07  2050.81  2070.45  2138.86  2185.01
                             2606.91  4114.71  4378.35  4383.93  4411.54
                             4415.98  4468.65  4496.89  4500.87  4505.31
                             5504.51

 Zero-point correction=                           0.160186 (Hartree/Particle)
 Thermal correction to Energy=                    0.168162
 Thermal correction to Enthalpy=                  0.169106
 Thermal correction to Gibbs Free Energy=         0.127478
 Sum of electronic and zero-point Energies=           -423.020961
 Sum of electronic and thermal Energies=              -423.012986
 Sum of electronic and thermal Enthalpies=            -423.012042
 Sum of electronic and thermal Free Energies=         -423.053670

                     E (Thermal)             CV                S
                      KCal/Mol        Cal/Mol-Kelvin    Cal/Mol-Kelvin
 Total                  105.523             30.872             87.613
 Electronic               0.000              0.000              0.000
 Translational            0.889              2.981             40.409
 Rotational               0.889              2.981             28.562
 Vibrational            103.746             24.911             18.643
 Vibration     1          0.597              1.971              4.293
 Vibration     2          0.620              1.896              2.595
 Vibration     3          0.637              1.841              2.143
 Vibration     4          0.660              1.771              1.767
 Vibration     5          0.672              1.735              1.621
 Vibration     6          0.719              1.598              1.217
 Vibration     7          0.774              1.448              0.927
 Vibration     8          0.835              1.298              0.714
 Vibration     9          0.885              1.184              0.587

 Optimization completed.
    -- Stationary point found.
 Normal termination of Gaussian 09 at Mon Jan 27 23:42:48 2020.
