 Gaussian 09, Revision D.01,
 Gaussian 09:  ES64L-G09RevD.01 24-Apr-2013

 -----------------------------
 # b3lyp 6-31G(2df,p) opt Freq
 -----------------------------

 -----
 titel
 -----
 Symbolic Z-matrix:
 Charge =  0 Multiplicity = 1

 SCF Done:  E(RB3LYP) =  -423.182641352     A.U. after   15 cycles
 SCF Done:  E(RB3LYP) =  -423.182641128     A.U. after    8 cycles
 SCF Done:  E(RB3LYP) =  -423.182641489     A.U. after    7 cycles
 SCF Done:  E(RB3LYP) =  -423.182641784     A.U. after    8 cycles
 SCF Done:  E(RB3LYP) =  -423.182642153     A.U. after    8 cycles
 SCF Done:  E(RB3LYP) =  -423.182642223     A.U. after    7 cycles
 SCF Done:  E(RB3LYP) =  -423.182642314     A.U. after    8 cycles
 Optimization completed.
    -- Stationary point found.
 Normal termination of Gaussian 09 at Mon Jan 27 14:59:30 2020.

 ----------------------------------------------------------------------
 #N Geom=AllCheck Guess=TCheck SCRF=Check GenChk RB3LYP/6-31G(2df,p) Fr
 eq
 ----------------------------------------------------------------------

 Structure from the checkpoint file:  "/scratch/puck/g09_4e5a5bb7-c2e5-4d11-8fb4-a098279eb743/Gau-4098.chk"
 -----
 titel
 -----
 Charge =  0 Multiplicity = 1

                         Standard orientation:
 ---------------------------------------------------------------------
 Center     Atomic      Atomic             Coordinates (Angstroms)
 Number     Number       Type             X           Y           Z
 ---------------------------------------------------------------------
      1          6           0        4.300100   -0.579984    0.075856
      2          6           0        2.902762   -0.188782    0.020711
      3          6           0        1.746762    0.156050   -0.027178
      4          6           0        0.354925    0.540271   -0.080063
      5          8           0        0.021707    1.698758   -0.267466
      6          6           0       -0.651349   -0.581438    0.121041
      7          6           0       -2.083034   -0.196027   -0.288307
      8          6           0       -3.056519   -1.350141   -0.085480
      9          8           0       -2.555082    0.897303    0.477938
     10          1           0        4.785369   -0.149503    0.958609
     11          1           0        4.412413   -1.667880    0.123026
     12          1           0        4.838886   -0.218023   -0.806399
     13          1           0       -0.303569   -1.467551   -0.423417
     14          1           0       -0.632478   -0.848629    1.187542
     15          1           0       -2.065007    0.069639   -1.358943
     16          1           0       -2.769906   -2.220097   -0.684294
     17          1           0       -3.084987   -1.643764    0.968897
     18          1           0       -4.063146   -1.040393   -0.377970
     19          1           0       -1.932465    1.618015    0.309698
 ---------------------------------------------------------------------

 SCF Done:  E(RB3LYP) =  -423.182642314     A.U. after    1 cycles

 The electronic state is 1-A.
 Alpha  occ. eigenvalues --  -19.14488 -19.11393 -10.29509 -10.22995 -10.22593
 Alpha  occ. eigenvalues --  -10.21455 -10.19369 -10.19185 -10.17041  -1.05393
 Alpha  occ. eigenvalues --   -1.00051  -0.80720  -0.78377  -0.74066  -0.70743
 Alpha  occ. eigenvalues --   -0.62767  -0.57607  -0.50761  -0.49839  -0.47746
 Alpha  occ. eigenvalues --   -0.45936  -0.45121  -0.44845  -0.44040  -0.42335
 Alpha  occ. eigenvalues --   -0.38367  -0.37714  -0.36954  -0.35595  -0.32364
 Alpha  occ. eigenvalues --   -0.28660  -0.28250  -0.26476  -0.25309
 Alpha virt. eigenvalues --   -0.05800   0.03380   0.08655   0.09290   0.09604
 Alpha virt. eigenvalues --    0.13018   0.13371   0.15978   0.16122   0.16626
 Alpha virt. eigenvalues --    0.18143   0.18544   0.18874   0.20145   0.22275

 Mulliken charges:
               1
     1  C   -0.505588
     2  C    0.190615
     3  C   -0.032487
     4  C    0.203143
     5  O   -0.320701
     6  C   -0.309627
     7  C    0.137465
     8  C   -0.389951
     9  O   -0.442951
    10  H    0.167144
    11  H    0.159789
    12  H    0.166647
    13  H    0.119857
    14  H    0.139393
    15  H    0.069662
    16  H    0.107124
    17  H    0.119918
    18  H    0.126780
    19  H    0.293766
 Sum of Mulliken charges =   0.00000

 Dipole moment (field-independent basis, Debye):
    X=              3.6128    Y=             -2.8845    Z=             -0.3025  Tot=              4.6329
 Quadrupole moment (field-independent basis, Debye-Ang):
   XX=            -44.7440   YY=            -55.7164   ZZ=            -52.9846
   XY=             -0.3493   XZ=              2.7318   YZ=              0.3706

  Exact polarizability: 123.768  -8.346  72.080   1.442  -0.966  57.058
 Approx polarizability: 163.035 -25.804 115.795   2.111  -3.087  87.392

 ******    1 imaginary frequencies (negative Signs) ******

                      1                      2                      3
                      A                      A                      A
 Frequencies --    -11.6832                33.7689                72.6880
 Red. masses --      1.0266                 3.9184                 3.8569
 Frc consts  --      0.0001                 0.0026                 0.0120
 IR Inten    --      0.2574                 0.8779                 0.7746

                      4                      5                      6
                      A                      A                      A
 Frequencies --    114.3476               149.3257               209.7052
 Red. masses --      3.5618                 4.0063                 2.7794
 Frc consts  --      0.0274                 0.0526                 0.0720
 IR Inten    --      2.0350                 2.7101                 4.4765

                      7                      8                      9
                      A                      A                      A
 Frequencies --    225.7180               283.6896               334.5795
 Red. masses --      1.2239                 4.3294                 3.5961
 Frc consts  --      0.0367                 0.2053                 0.2372
 IR Inten    --      2.7270                 2.0011                 2.7798

                     10                     11                     12
                      A                      A                      A
 Frequencies --    368.3568               382.9927               456.1765
 Red. masses --      4.5674                 4.0353                 2.1502
 Frc consts  --      0.3651                 0.3487                 0.2636
 IR Inten    --      9.9822                 2.4355                 5.2095

                     13                     14                     15
                      A                      A                      A
 Frequencies --    469.2169               577.6961               594.3752
 Red. masses --      2.9610                 3.0044                 1.4417
 Frc consts  --      0.3841                 0.5908                 0.3001
 IR Inten    --      3.0452                25.3823                88.8336

                     16                     17                     18
                      A                      A                      A
 Frequencies --    604.0960               788.0210               854.5654
 Red. masses --      2.7987                 4.9210                 2.7100
 Frc consts  --      0.6018                 1.8004                 1.1660
 IR Inten    --     40.8168                17.9475                 3.0347

                     19                     20                     21
                      A                      A                      A
 Frequencies --    914.2285               943.3003               992.8850
 Red. masses --      1.8195                 2.1610                 2.9591
 Frc consts  --      0.8960                 1.1329                 1.7187
 IR Inten    --      2.8744                14.5327                59.4670

                     22                     23                     24
                      A                      A                      A
 Frequencies --   1043.0915              1054.5332              1060.8511
 Red. masses --      1.4402                 1.4130                 2.2913
 Frc consts  --      0.9233                 0.9258                 1.5193
 IR Inten    --      3.1979                 0.6245                43.0896

                     25                     26                     27
                      A                      A                      A
 Frequencies --   1093.8479              1158.1047              1198.8367
 Red. masses --      1.8149                 2.5700                 3.0999
 Frc consts  --      1.2794                 2.0308                 2.6249
 IR Inten    --      8.4203                 7.4934               179.6028

                     28                     29                     30
                      A                      A                      A
 Frequencies --   1220.0652              1309.4523              1345.5027
 Red. masses --      1.3011                 1.1815                 1.9171
 Frc consts  --      1.1411                 1.1936                 2.0449
 IR Inten    --      8.7262                79.4155                49.1796

                     31                     32                     33
                      A                      A                      A
 Frequencies --   1385.8093              1401.5428              1409.3473
 Red. masses --      1.2467                 1.2551                 1.2416
 Frc consts  --      1.4107                 1.4526                 1.4530
 IR Inten    --     19.7898                13.8952                 3.8080

                     34                     35                     36
                      A                      A                      A
 Frequencies --   1427.5516              1456.1129              1468.7929
 Red. masses --      1.1153                 1.5179                 1.0404
 Frc consts  --      1.3391                 1.8962                 1.3225
 IR Inten    --     21.6535                88.1915                 8.3375

                     37                     38                     39
                      A                      A                      A
 Frequencies --   1472.5812              1482.9432              1500.3107
 Red. masses --      1.0401                 1.0628                 1.0518
 Frc consts  --      1.3288                 1.3771                 1.3950
 IR Inten    --      6.6071                 5.8594                 1.6615

                     40                     41                     42
                      A                      A                      A
 Frequencies --   1734.6320              2338.5326              2956.5627
 Red. masses --     10.9749                11.9074                 1.0821
 Frc consts  --     19.4566                38.3668                 5.5731
 IR Inten    --    194.9129               172.0673                47.1035

                     43                     44                     45
                      A                      A                      A
 Frequencies --   3019.1834              3033.3618              3039.5868
 Red. masses --      1.0625                 1.0345                 1.0356
 Frc consts  --      5.7064                 5.6084                 5.6375
 IR Inten    --     10.6439                12.4337                16.7952

                     46                     47                     48
                      A                      A                      A
 Frequencies --   3067.2260              3097.4775              3101.6420
 Red. masses --      1.0966                 1.0995                 1.1011
 Frc consts  --      6.0785                 6.2152                 6.2408
 IR Inten    --      9.5027                 3.2560                 5.5942

                     49                     50                     51
                      A                      A                      A
 Frequencies --   3111.1914              3122.5663              3744.5424
 Red. masses --      1.1016                 1.1015                 1.0650
 Frc consts  --      6.2822                 6.3281                 8.7983
 IR Inten    --     29.1560                21.5746               119.4137

 - Thermochemistry -
 -------------------
 Temperature   298.150 Kelvin.  Pressure   1.00000 Atm.
 Atom     1 has atomic number  6 and mass  12.00000

 Molecular mass:   126.06808 amu.
 Principal axes and moments of inertia in atomic units:
                           1         2         3
     Eigenvalues --   440.436092701.870303050.01078
           X            0.99997   0.00636   0.00442
           Y           -0.00637   0.99998   0.00194
           Z           -0.00441  -0.00197   0.99999
 This molecule is an asymmetric top.
 Rotational symmetry number  1.
 Warning -- assumption of classical behavior for rotation
           may cause significant error
 Rotational temperatures (Kelvin)      0.19665     0.03206     0.02840
 Rotational constants (GHZ):           4.09762     0.66796     0.59172
    1 imaginary frequencies ignored.
 Zero-point vibrational energy     408079.2 (Joules/Mol)
                                   97.53327 (Kcal/Mol)
 Warning -- explicit consideration of  15 degrees of freedom as
           vibrations may cause significant error
 Vibrational temperatures:     48.59   104.58   164.52   214.85   301.72
          (Kelvin)            324.76   408.17   481.38   529.98   551.04
                              656.34   675.10   831.17   855.17   869.16
                             1133.79  1229.53  1315.37  1357.20  1428.54
                             1500.77  1517.24  1526.33  1573.80  1666.25
                             1724.86  1755.40  1884.01  1935.88  1993.87
                             2016.50  2027.73  2053.93  2095.02  2113.26
                             2118.71  2133.62  2158.61  2495.75  3364.62
                             4253.83  4343.93  4364.33  4373.28  4413.05
                             4456.57  4462.57  4476.30  4492.67  5387.55

 Zero-point correction=                           0.155429 (Hartree/Particle)
 Thermal correction to Energy=                    0.165353
 Thermal correction to Enthalpy=                  0.166297
 Thermal correction to Gibbs Free Energy=         0.119401
 Sum of electronic and zero-point Energies=           -423.027213
 Sum of electronic and thermal Energies=              -423.017290
 Sum of electronic and thermal Enthalpies=            -423.016345
 Sum of electronic and thermal Free Energies=         -423.063242

                     E (Thermal)             CV                S
                      KCal/Mol        Cal/Mol-Kelvin    Cal/Mol-Kelvin
 Total                  103.760             35.107             98.701
 Electronic               0.000              0.000              0.000
 Translational            0.889              2.981             40.409
 Rotational               0.889              2.981             29.674
 Vibrational            101.983             29.146             28.618
 Vibration     1          0.594              1.983              5.595
 Vibration     2          0.599              1.967              4.079
 Vibration     3          0.607              1.938              3.194
 Vibration     4          0.618              1.903              2.681
 Vibration     5          0.642              1.826              2.046
 Vibration     6          0.650              1.802              1.913
 Vibration     7          0.682              1.704              1.511
 Vibration     8          0.716              1.606              1.238
 Vibration     9          0.741              1.537              1.087
 Vibration    10          0.752              1.506              1.027
 Vibration    11          0.814              1.347              0.777
 Vibration    12          0.826              1.318              0.740
 Vibration    13          0.934              1.080              0.490
 Vibration    14          0.952              1.044              0.459
 Vibration    15          0.963              1.023              0.443

 Normal termination of Gaussian 09 at Mon Jan 27 16:24:06 2020.
