 Gaussian 09, Revision D.01,
 Gaussian 09:  ES64L-G09RevD.01 24-Apr-2013

 -----------------------------
 # b3lyp 6-31G(2df,p) opt Freq
 -----------------------------

 -----
 titel
 -----
 Symbolic Z-matrix:
 Charge =  0 Multiplicity = 1

 SCF Done:  E(RB3LYP) =  -423.188999121     A.U. after   14 cycles
 Optimization completed.
    -- Stationary point found.
 Normal termination of Gaussian 09 at Mon Jan 27 17:12:07 2020.

 ----------------------------------------------------------------------
 #N Geom=AllCheck Guess=TCheck SCRF=Check GenChk RB3LYP/6-31G(2df,p) Fr
 eq
 ----------------------------------------------------------------------

 Structure from the checkpoint file:  "/scratch/puck/g09_236ce40c-e148-488c-bfc8-2ad0dbe6b1ae/Gau-112233.chk"
 -----
 titel
 -----
 Charge =  0 Multiplicity = 1

                         Standard orientation:
 ---------------------------------------------------------------------
 Center     Atomic      Atomic             Coordinates (Angstroms)
 Number     Number       Type             X           Y           Z
 ---------------------------------------------------------------------
      1          6           0       -2.158397   -0.995271    0.137040
      2          6           0       -0.740099   -0.462323    0.130339
      3          6           0       -0.000902   -0.074041    1.460135
      4          6           0        0.762830    1.009827    0.641709
      5          8           0        1.858789    0.474520   -0.097203
      6          6           0        1.703066   -0.905564   -0.430065
      7          6           0        0.243704   -1.296399   -0.738752
      8          6           0       -0.487827    1.005643   -0.271683
      9          8           0       -1.098484    1.817194   -0.903649
     10          1           0       -2.818651   -0.348780    0.723197
     11          1           0       -2.558127   -1.040567   -0.881433
     12          1           0       -2.201077   -2.004408    0.561182
     13          1           0       -0.679823    0.389776    2.180611
     14          1           0        0.593036   -0.841097    1.959572
     15          1           0        1.100807    1.931363    1.116881
     16          1           0        2.353194   -1.082971   -1.290902
     17          1           0        2.082349   -1.523877    0.395163
     18          1           0        0.006137   -1.139217   -1.796624
     19          1           0        0.105452   -2.365169   -0.533170
 ---------------------------------------------------------------------

 SCF Done:  E(RB3LYP) =  -423.188999121     A.U. after    1 cycles

 The electronic state is 1-A.
 Alpha  occ. eigenvalues --  -19.15016 -19.13989 -10.26256 -10.24201 -10.23835
 Alpha  occ. eigenvalues --  -10.21002 -10.20074 -10.19854 -10.18502  -1.05314
 Alpha  occ. eigenvalues --   -1.03673  -0.85780  -0.77870  -0.72269  -0.66034
 Alpha  occ. eigenvalues --   -0.62163  -0.60564  -0.51090  -0.49881  -0.46849
 Alpha  occ. eigenvalues --   -0.46286  -0.45682  -0.44676  -0.41872  -0.40139
 Alpha  occ. eigenvalues --   -0.39232  -0.38870  -0.38407  -0.36739  -0.35304
 Alpha  occ. eigenvalues --   -0.32505  -0.30389  -0.27749  -0.22216
 Alpha virt. eigenvalues --   -0.01885   0.07435   0.10487   0.11188   0.11767
 Alpha virt. eigenvalues --    0.12496   0.12910   0.15834   0.16354   0.17028
 Alpha virt. eigenvalues --    0.17631   0.18401   0.18864   0.20283   0.21009

 Mulliken charges:
               1
     1  C   -0.478607
     2  C    0.179454
     3  C   -0.314759
     4  C    0.003035
     5  O   -0.274924
     6  C   -0.074926
     7  C   -0.269007
     8  C    0.407364
     9  O   -0.321690
    10  H    0.123802
    11  H    0.132754
    12  H    0.117252
    13  H    0.114570
    14  H    0.112619
    15  H    0.096721
    16  H    0.117605
    17  H    0.101231
    18  H    0.122138
    19  H    0.105368
 Sum of Mulliken charges =   0.00000

 Dipole moment (field-independent basis, Debye):
    X=              0.1351    Y=             -2.8906    Z=              1.5266  Tot=              3.2717
 Quadrupole moment (field-independent basis, Debye-Ang):
   XX=            -56.3843   YY=            -55.3176   ZZ=            -52.1265
   XY=              0.6980   XZ=             -1.8909   YZ=              4.1969

  Exact polarizability:  78.379  -1.784  76.979   0.964   1.140  69.349
 Approx polarizability: 109.481  -6.194 116.539   3.784  -4.340 106.683

                      1                      2                      3
                      A                      A                      A
 Frequencies --    125.0553               178.9545               197.3259
 Red. masses --      4.6887                 1.1815                 1.9983
 Frc consts  --      0.0432                 0.0223                 0.0458
 IR Inten    --      2.0458                 0.7191                 0.2652

                      4                      5                      6
                      A                      A                      A
 Frequencies --    236.4269               252.5006               302.4573
 Red. masses --      4.9373                 2.2958                 2.5736
 Frc consts  --      0.1626                 0.0862                 0.1387
 IR Inten    --      4.5631                 3.5673                 0.6083

                      7                      8                      9
                      A                      A                      A
 Frequencies --    394.3900               426.4125               491.3708
 Red. masses --      4.4819                 2.4763                 2.8887
 Frc consts  --      0.4107                 0.2653                 0.4109
 IR Inten    --      3.3250                 0.3612                 3.0322

                     10                     11                     12
                      A                      A                      A
 Frequencies --    556.2871               663.5766               711.4764
 Red. masses --      3.5344                 3.5060                 2.9860
 Frc consts  --      0.6444                 0.9096                 0.8906
 IR Inten    --      0.3816                 1.9266                 1.7981

                     13                     14                     15
                      A                      A                      A
 Frequencies --    778.4842               816.9626               825.1266
 Red. masses --      2.2408                 3.0006                 3.9769
 Frc consts  --      0.8001                 1.1799                 1.5953
 IR Inten    --      4.4849                 1.2071                 4.0357

                     16                     17                     18
                      A                      A                      A
 Frequencies --    880.3243               892.5082               929.8873
 Red. masses --      2.3657                 2.2884                 2.2890
 Frc consts  --      1.0802                 1.0740                 1.1661
 IR Inten    --     20.6782                 9.7987                15.9507

                     19                     20                     21
                      A                      A                      A
 Frequencies --    975.3879              1011.4304              1031.8285
 Red. masses --      1.9530                 1.5348                 2.0588
 Frc consts  --      1.0947                 0.9251                 1.2914
 IR Inten    --      6.1716                10.5778                10.5411

                     22                     23                     24
                      A                      A                      A
 Frequencies --   1050.9313              1068.1278              1137.0398
 Red. masses --      2.3073                 1.9691                 2.0031
 Frc consts  --      1.5014                 1.3236                 1.5258
 IR Inten    --     19.7964                 6.5435                13.3658

                     25                     26                     27
                      A                      A                      A
 Frequencies --   1155.9797              1193.7960              1213.8660
 Red. masses --      2.0747                 1.9495                 2.1588
 Frc consts  --      1.6335                 1.6369                 1.8742
 IR Inten    --     54.3601                12.3475                 0.7566

                     28                     29                     30
                      A                      A                      A
 Frequencies --   1216.4244              1244.3552              1265.4334
 Red. masses --      2.1441                 1.6572                 1.2753
 Frc consts  --      1.8693                 1.5119                 1.2032
 IR Inten    --      3.9756                 0.4613                 1.2955

                     31                     32                     33
                      A                      A                      A
 Frequencies --   1296.0430              1337.5011              1365.5866
 Red. masses --      1.4789                 1.3127                 1.7739
 Frc consts  --      1.4636                 1.3835                 1.9490
 IR Inten    --      8.7499                 6.2295                 1.0606

                     34                     35                     36
                      A                      A                      A
 Frequencies --   1404.9718              1411.1086              1482.7147
 Red. masses --      1.2699                 1.2522                 1.1016
 Frc consts  --      1.4769                 1.4691                 1.4269
 IR Inten    --      4.2548                 2.3962                 2.2799

                     37                     38                     39
                      A                      A                      A
 Frequencies --   1487.7395              1490.1373              1495.4924
 Red. masses --      1.0705                 1.0478                 1.0703
 Frc consts  --      1.3960                 1.3709                 1.4104
 IR Inten    --      3.2799                 4.7823                 4.0138

                     40                     41                     42
                      A                      A                      A
 Frequencies --   1525.5096              1890.7111              3001.3952
 Red. masses --      1.0850                12.3519                 1.0720
 Frc consts  --      1.4876                26.0157                 5.6898
 IR Inten    --      1.5498               243.4982                43.5949

                     43                     44                     45
                      A                      A                      A
 Frequencies --   3027.2286              3032.0090              3069.9541
 Red. masses --      1.0576                 1.0384                 1.0597
 Frc consts  --      5.7103                 5.6242                 5.8845
 IR Inten    --     21.3252                34.8867                16.3098

                     46                     47                     48
                      A                      A                      A
 Frequencies --   3070.7035              3091.9660              3099.1860
 Red. masses --      1.0995                 1.0959                 1.1009
 Frc consts  --      6.1081                 6.1727                 6.2299
 IR Inten    --     16.0875                33.3924                18.9239

                     49                     50                     51
                      A                      A                      A
 Frequencies --   3106.9914              3114.8736              3131.1196
 Red. masses --      1.1013                 1.0903                 1.1068
 Frc consts  --      6.2640                 6.2326                 6.3933
 IR Inten    --     16.6238                32.4370                16.4305

 - Thermochemistry -
 -------------------
 Temperature   298.150 Kelvin.  Pressure   1.00000 Atm.
 Atom     1 has atomic number  6 and mass  12.00000

 Molecular mass:   126.06808 amu.
 Principal axes and moments of inertia in atomic units:
                           1         2         3
     Eigenvalues --   770.070281015.762521283.33414
           X            0.99845   0.05356  -0.01518
           Y           -0.05250   0.99661   0.06334
           Z            0.01852  -0.06245   0.99788
 This molecule is an asymmetric top.
 Rotational symmetry number  1.
 Warning -- assumption of classical behavior for rotation
           may cause significant error
 Rotational temperatures (Kelvin)      0.11248     0.08527     0.06749
 Rotational constants (GHZ):           2.34361     1.77674     1.40629
 Zero-point vibrational energy     419632.5 (Joules/Mol)
                                  100.29457 (Kcal/Mol)
 Warning -- explicit consideration of  10 degrees of freedom as
           vibrations may cause significant error
 Vibrational temperatures:    179.93   257.48   283.91   340.17   363.29
          (Kelvin)            435.17   567.44   613.51   706.97   800.37
                              954.74  1023.65  1120.06  1175.43  1187.17
                             1266.59  1284.12  1337.90  1403.36  1455.22
                             1484.57  1512.05  1536.80  1635.94  1663.19
                             1717.60  1746.48  1750.16  1790.35  1820.67
                             1864.71  1924.36  1964.77  2021.44  2030.27
                             2133.29  2140.52  2143.97  2151.68  2194.87
                             2720.31  4318.33  4355.50  4362.38  4416.97
                             4418.05  4448.64  4459.03  4470.26  4481.60
                             4504.98

 Zero-point correction=                           0.159830 (Hartree/Particle)
 Thermal correction to Energy=                    0.167913
 Thermal correction to Enthalpy=                  0.168857
 Thermal correction to Gibbs Free Energy=         0.127575
 Sum of electronic and zero-point Energies=           -423.029170
 Sum of electronic and thermal Energies=              -423.021086
 Sum of electronic and thermal Enthalpies=            -423.020142
 Sum of electronic and thermal Free Energies=         -423.061425

                     E (Thermal)             CV                S
                      KCal/Mol        Cal/Mol-Kelvin    Cal/Mol-Kelvin
 Total                  105.367             31.410             86.886
 Electronic               0.000              0.000              0.000
 Translational            0.889              2.981             40.409
 Rotational               0.889              2.981             28.397
 Vibrational            103.589             25.449             18.080
 Vibration     1          0.610              1.928              3.021
 Vibration     2          0.629              1.868              2.339
 Vibration     3          0.637              1.844              2.158
 Vibration     4          0.655              1.785              1.830
 Vibration     5          0.664              1.759              1.713
 Vibration     6          0.694              1.669              1.403
 Vibration     7          0.761              1.482              0.984
 Vibration     8          0.788              1.413              0.870
 Vibration     9          0.847              1.269              0.680
 Vibration    10          0.912              1.126              0.531

 Normal termination of Gaussian 09 at Mon Jan 27 17:55:04 2020.
