 Gaussian 09, Revision D.01,
 Gaussian 09:  ES64L-G09RevD.01 24-Apr-2013

 -----------------------------
 # b3lyp 6-31G(2df,p) opt Freq
 -----------------------------

 -----
 titel
 -----
 Symbolic Z-matrix:
 Charge =  0 Multiplicity = 1

 SCF Done:  E(RB3LYP) =  -423.182246635     A.U. after   14 cycles
 Optimization completed.
    -- Stationary point found.
 Normal termination of Gaussian 09 at Tue Jan 28 00:39:13 2020.

 ----------------------------------------------------------------------
 #N Geom=AllCheck Guess=TCheck SCRF=Check GenChk RB3LYP/6-31G(2df,p) Fr
 eq
 ----------------------------------------------------------------------

 Structure from the checkpoint file:  "/scratch/puck/g09_746de53d-366a-4fc8-a398-c4ba29836737/Gau-107601.chk"
 -----
 titel
 -----
 Charge =  0 Multiplicity = 1

                         Standard orientation:
 ---------------------------------------------------------------------
 Center     Atomic      Atomic             Coordinates (Angstroms)
 Number     Number       Type             X           Y           Z
 ---------------------------------------------------------------------
      1          6           0        2.813914   -0.040178   -0.297542
      2          6           0        1.366599   -0.180921    0.075030
      3          6           0        0.682991   -1.315927   -0.109538
      4          6           0       -0.736626   -1.443259    0.293250
      5          8           0       -1.749421   -0.933201   -0.620660
      6          6           0       -1.499568   -0.227428    0.601047
      7          6           0       -0.802782    1.131407    0.408433
      8          8           0       -1.021939    1.614061   -0.903168
      9          6           0        0.704797    1.028909    0.705503
     10          1           0        3.411671    0.268697    0.569794
     11          1           0        3.228789   -0.973807   -0.686262
     12          1           0        2.944930    0.740632   -1.057161
     13          1           0        1.162121   -2.185827   -0.550831
     14          1           0       -1.035501   -2.384525    0.752472
     15          1           0       -2.319641   -0.269784    1.315304
     16          1           0       -1.246907    1.858874    1.098211
     17          1           0       -1.200545    0.830120   -1.442127
     18          1           0        1.176020    1.947681    0.341324
     19          1           0        0.873989    1.005448    1.792804
 ---------------------------------------------------------------------

 SCF Done:  E(RB3LYP) =  -423.182246635     A.U. after    1 cycles

 The electronic state is 1-A.
 Alpha  occ. eigenvalues --  -19.15854 -19.12200 -10.24245 -10.23873 -10.23513
 Alpha  occ. eigenvalues --  -10.20256 -10.18657 -10.18623 -10.18147  -1.07504
 Alpha  occ. eigenvalues --   -1.00589  -0.82751  -0.74585  -0.72527  -0.67415
 Alpha  occ. eigenvalues --   -0.62419  -0.59864  -0.53026  -0.51949  -0.48106
 Alpha  occ. eigenvalues --   -0.46158  -0.44378  -0.43822  -0.42584  -0.40094
 Alpha  occ. eigenvalues --   -0.38926  -0.38702  -0.36328  -0.35161  -0.32934
 Alpha  occ. eigenvalues --   -0.30350  -0.27978  -0.26211  -0.24219
 Alpha virt. eigenvalues --   -0.00131   0.08388   0.09081   0.10899   0.11841
 Alpha virt. eigenvalues --    0.13740   0.14346   0.15464   0.16445   0.16711
 Alpha virt. eigenvalues --    0.17084   0.18609   0.19382   0.21716   0.22879

 Mulliken charges:
               1
     1  C   -0.482750
     2  C    0.324289
     3  C   -0.184903
     4  C    0.024264
     5  O   -0.267211
     6  C   -0.013610
     7  C    0.100506
     8  O   -0.439914
     9  C   -0.323944
    10  H    0.127984
    11  H    0.123014
    12  H    0.136193
    13  H    0.086533
    14  H    0.097952
    15  H    0.098130
    16  H    0.077462
    17  H    0.292771
    18  H    0.115701
    19  H    0.107534
 Sum of Mulliken charges =   0.00000

 Dipole moment (field-independent basis, Debye):
    X=              1.5642    Y=             -1.0063    Z=              1.9115  Tot=              2.6671
 Quadrupole moment (field-independent basis, Debye-Ang):
   XX=            -52.7869   YY=            -54.5862   ZZ=            -52.5076
   XY=              0.8378   XZ=             -3.6205   YZ=              1.6402

  Exact polarizability:  87.078   4.568  81.383  -3.527   4.046  61.359
 Approx polarizability: 117.961  11.667 126.883   1.534   8.015  98.879

                      1                      2                      3
                      A                      A                      A
 Frequencies --     77.9094               132.6671               201.8176
 Red. masses --      3.9252                 3.2506                 1.0999
 Frc consts  --      0.0140                 0.0337                 0.0264
 IR Inten    --      1.1558                 1.5076                 0.0312

                      4                      5                      6
                      A                      A                      A
 Frequencies --    295.4954               327.2602               356.3384
 Red. masses --      3.8861                 2.5272                 2.9448
 Frc consts  --      0.1999                 0.1595                 0.2203
 IR Inten    --      5.4835                 0.2193                 4.5902

                      7                      8                      9
                      A                      A                      A
 Frequencies --    416.8907               443.0572               455.9958
 Red. masses --      3.1931                 4.6414                 1.2518
 Frc consts  --      0.3270                 0.5368                 0.1534
 IR Inten    --      2.6146                 0.3963                48.0773

                     10                     11                     12
                      A                      A                      A
 Frequencies --    492.2834               561.6401               668.0094
 Red. masses --      2.2009                 3.9542                 3.7916
 Frc consts  --      0.3143                 0.7349                 0.9969
 IR Inten    --     14.6834                10.1217                20.8946

                     13                     14                     15
                      A                      A                      A
 Frequencies --    727.0950               769.1701               819.3795
 Red. masses --      4.8887                 3.1483                 3.3203
 Frc consts  --      1.5227                 1.0974                 1.3134
 IR Inten    --      6.5125                 7.3543                 1.5097

                     16                     17                     18
                      A                      A                      A
 Frequencies --    858.6861               874.1968               900.1362
 Red. masses --      2.3050                 2.0028                 2.4623
 Frc consts  --      1.0014                 0.9018                 1.1755
 IR Inten    --      3.6679                33.6610                 5.4068

                     19                     20                     21
                      A                      A                      A
 Frequencies --    942.8305               994.0881              1014.6660
 Red. masses --      2.4615                 2.8859                 1.5073
 Frc consts  --      1.2892                 1.6803                 0.9143
 IR Inten    --     21.4589                19.7542                 5.4224

                     22                     23                     24
                      A                      A                      A
 Frequencies --   1055.0738              1069.3836              1092.8821
 Red. masses --      1.7812                 1.5807                 1.6036
 Frc consts  --      1.1682                 1.0650                 1.1285
 IR Inten    --     22.2026                 9.4126                 0.7576

                     25                     26                     27
                      A                      A                      A
 Frequencies --   1104.4786              1151.7993              1185.2217
 Red. masses --      2.9491                 1.3661                 2.1748
 Frc consts  --      2.1196                 1.0678                 1.8000
 IR Inten    --     52.2765                 2.5266                 5.5144

                     28                     29                     30
                      A                      A                      A
 Frequencies --   1227.1832              1281.5479              1295.4223
 Red. masses --      1.1854                 1.2575                 1.6712
 Frc consts  --      1.0518                 1.2168                 1.6524
 IR Inten    --     21.9102                 8.4525                 6.8672

                     31                     32                     33
                      A                      A                      A
 Frequencies --   1316.4252              1338.1325              1375.0284
 Red. masses --      1.4915                 1.3146                 1.4392
 Frc consts  --      1.5229                 1.3869                 1.6032
 IR Inten    --     10.5731                 0.6137                 7.0312

                     34                     35                     36
                      A                      A                      A
 Frequencies --   1401.8474              1411.0211              1444.9883
 Red. masses --      1.5272                 1.2934                 1.5443
 Frc consts  --      1.7682                 1.5172                 1.8998
 IR Inten    --      2.0766                 1.4835                53.1899

                     37                     38                     39
                      A                      A                      A
 Frequencies --   1462.3408              1463.4751              1477.5220
 Red. masses --      1.4461                 1.5297                 1.0485
 Frc consts  --      1.8220                 1.9304                 1.3486
 IR Inten    --     21.6687                34.1100                 6.4129

                     40                     41                     42
                      A                      A                      A
 Frequencies --   1487.4862              1724.1289              2998.1534
 Red. masses --      1.0659                 6.8584                 1.0691
 Frc consts  --      1.3896                12.0120                 5.6619
 IR Inten    --      6.2477                19.2828                16.0752

                     43                     44                     45
                      A                      A                      A
 Frequencies --   3017.9853              3033.8021              3066.5141
 Red. masses --      1.0382                 1.0856                 1.0981
 Frc consts  --      5.5714                 5.8872                 6.0837
 IR Inten    --     25.5684                50.4785                13.3366

                     46                     47                     48
                      A                      A                      A
 Frequencies --   3074.1079              3113.9583              3116.6499
 Red. masses --      1.0910                 1.0998                 1.0858
 Frc consts  --      6.0744                 6.2836                 6.2143
 IR Inten    --     17.2464                22.6459                12.2532

                     49                     50                     51
                      A                      A                      A
 Frequencies --   3129.6279              3161.7479              3729.4192
 Red. masses --      1.0917                 1.0904                 1.0650
 Frc consts  --      6.3001                 6.4225                 8.7270
 IR Inten    --     49.5417                18.9447                50.8964

 - Thermochemistry -
 -------------------
 Temperature   298.150 Kelvin.  Pressure   1.00000 Atm.
 Atom     1 has atomic number  6 and mass  12.00000

 Molecular mass:   126.06808 amu.
 Principal axes and moments of inertia in atomic units:
                           1         2         3
     Eigenvalues --   701.957481158.709491540.48554
           X            0.99973   0.00411  -0.02277
           Y           -0.00360   0.99974   0.02232
           Z            0.02286  -0.02223   0.99949
 This molecule is an asymmetric top.
 Rotational symmetry number  1.
 Warning -- assumption of classical behavior for rotation
           may cause significant error
 Rotational temperatures (Kelvin)      0.12339     0.07475     0.05623
 Rotational constants (GHZ):           2.57101     1.55754     1.17154
 Zero-point vibrational energy     419512.2 (Joules/Mol)
                                  100.26583 (Kcal/Mol)
 Warning -- explicit consideration of  11 degrees of freedom as
           vibrations may cause significant error
 Vibrational temperatures:    112.09   190.88   290.37   425.15   470.85
          (Kelvin)            512.69   599.81   637.46   656.08   708.29
                              808.07   961.12  1046.13  1106.66  1178.90
                             1235.46  1257.77  1295.09  1356.52  1430.27
                             1459.88  1518.01  1538.60  1572.41  1589.10
                             1657.18  1705.27  1765.64  1843.86  1863.82
                             1894.04  1925.27  1978.36  2016.94  2030.14
                             2079.01  2103.98  2105.61  2125.82  2140.16
                             2480.63  4313.67  4342.20  4364.96  4412.02
                             4422.95  4480.29  4484.16  4502.83  4549.04
                             5365.80

 Zero-point correction=                           0.159784 (Hartree/Particle)
 Thermal correction to Energy=                    0.167969
 Thermal correction to Enthalpy=                  0.168913
 Thermal correction to Gibbs Free Energy=         0.127108
 Sum of electronic and zero-point Energies=           -423.022463
 Sum of electronic and thermal Energies=              -423.014278
 Sum of electronic and thermal Enthalpies=            -423.013333
 Sum of electronic and thermal Free Energies=         -423.055139

                     E (Thermal)             CV                S
                      KCal/Mol        Cal/Mol-Kelvin    Cal/Mol-Kelvin
 Total                  105.402             32.051             87.986
 Electronic               0.000              0.000              0.000
 Translational            0.889              2.981             40.409
 Rotational               0.889              2.981             28.618
 Vibrational            103.625             26.090             18.960
 Vibration     1          0.599              1.964              3.943
 Vibration     2          0.613              1.921              2.907
 Vibration     3          0.639              1.837              2.116
 Vibration     4          0.690              1.682              1.442
 Vibration     5          0.711              1.621              1.274
 Vibration     6          0.732              1.562              1.138
 Vibration     7          0.780              1.434              0.903
 Vibration     8          0.803              1.376              0.817
 Vibration     9          0.814              1.348              0.778
 Vibration    10          0.848              1.267              0.678
 Vibration    11          0.917              1.114              0.521

 Optimization completed.
    -- Stationary point found.
 Normal termination of Gaussian 09 at Tue Jan 28 01:23:55 2020.
