 Gaussian 09, Revision D.01,
 Gaussian 09:  ES64L-G09RevD.01 24-Apr-2013

 -----------------------------
 # b3lyp 6-31G(2df,p) opt Freq
 -----------------------------

 -----
 titel
 -----
 Symbolic Z-matrix:
 Charge =  0 Multiplicity = 1

 SCF Done:  E(RB3LYP) =  -423.149556917     A.U. after   12 cycles
 Optimization completed.
    -- Stationary point found.
 Normal termination of Gaussian 09 at Mon Jan 27 12:17:39 2020.

 ----------------------------------------------------------------------
 #N Geom=AllCheck Guess=TCheck SCRF=Check GenChk RB3LYP/6-31G(2df,p) Fr
 eq
 ----------------------------------------------------------------------

 Structure from the checkpoint file:  "/scratch/puck/g09_79e3071e-7671-43fa-9c38-9b32571fcb3e/Gau-35300.chk"
 -----
 titel
 -----
 Charge =  0 Multiplicity = 1

                         Standard orientation:
 ---------------------------------------------------------------------
 Center     Atomic      Atomic             Coordinates (Angstroms)
 Number     Number       Type             X           Y           Z
 ---------------------------------------------------------------------
      1          6           0       -1.487632   -0.921171    0.734574
      2          6           0       -1.388201   -0.968515   -0.835682
      3          6           0       -0.206772    0.029231   -0.756531
      4          6           0       -0.526901    1.534295   -0.586485
      5          8           0       -0.479115    1.404937    0.866764
      6          6           0       -0.220649   -0.015061    0.760599
      7          6           0        1.167983   -0.474872    1.168042
      8          6           0        1.971917   -0.196939   -0.135968
      9          8           0        1.052127   -0.354123   -1.234440
     10          1           0       -2.370103   -0.408574    1.120643
     11          1           0       -1.388814   -1.886789    1.235018
     12          1           0       -1.061933   -1.936766   -1.219377
     13          1           0       -2.270048   -0.642185   -1.391209
     14          1           0        0.246470    2.213671   -0.962534
     15          1           0       -1.510784    1.867815   -0.936977
     16          1           0        1.568223    0.071828    2.024982
     17          1           0        1.170326   -1.543587    1.401887
     18          1           0        2.373162    0.825985   -0.122948
     19          1           0        2.800934   -0.889712   -0.299373
 ---------------------------------------------------------------------

 SCF Done:  E(RB3LYP) =  -423.149556917     A.U. after    1 cycles

 The electronic state is 1-A.
 Alpha  occ. eigenvalues --  -19.14445 -19.13410 -10.23240 -10.22901 -10.22624
 Alpha  occ. eigenvalues --  -10.22575 -10.18985 -10.18863 -10.18821  -1.05758
 Alpha  occ. eigenvalues --   -1.01790  -0.82357  -0.77074  -0.69541  -0.66606
 Alpha  occ. eigenvalues --   -0.62607  -0.60082  -0.51387  -0.50287  -0.49789
 Alpha  occ. eigenvalues --   -0.46794  -0.44357  -0.43782  -0.41895  -0.40249
 Alpha  occ. eigenvalues --   -0.38512  -0.38261  -0.35322  -0.33978  -0.33607
 Alpha  occ. eigenvalues --   -0.31665  -0.26252  -0.25247  -0.24531
 Alpha virt. eigenvalues --    0.05889   0.08321   0.10209   0.11725   0.11800
 Alpha virt. eigenvalues --    0.13010   0.13793   0.15698   0.16082   0.16783
 Alpha virt. eigenvalues --    0.18412   0.18573   0.19559   0.20673   0.22646

 Mulliken charges:
               1
     1  C   -0.301802
     2  C   -0.299079
     3  C    0.334424
     4  C   -0.155557
     5  O   -0.343637
     6  C    0.391223
     7  C   -0.320767
     8  C   -0.096247
     9  O   -0.308293
    10  H    0.117254
    11  H    0.105377
    12  H    0.116234
    13  H    0.102952
    14  H    0.108344
    15  H    0.100864
    16  H    0.119075
    17  H    0.108847
    18  H    0.107272
    19  H    0.113515
 Sum of Mulliken charges =   0.00000

 Dipole moment (field-independent basis, Debye):
    X=              0.0699    Y=             -0.8942    Z=              0.1817  Tot=              0.9152
 Quadrupole moment (field-independent basis, Debye-Ang):
   XX=            -50.0982   YY=            -53.2390   ZZ=            -56.0481
   XY=              0.6658   XZ=              3.3452   YZ=             -3.9674

  Exact polarizability:  80.164   0.649  72.522   3.115  -4.000  66.792
 Approx polarizability: 107.961  -0.763 106.015   2.479  -2.090 102.917

                      1                      2                      3
                      A                      A                      A
 Frequencies --    125.1321               186.9511               291.3384
 Red. masses --      2.3229                 2.2112                 1.9294
 Frc consts  --      0.0214                 0.0455                 0.0965
 IR Inten    --      2.6577                 1.4880                 2.1874

                      4                      5                      6
                      A                      A                      A
 Frequencies --    311.1740               350.4999               382.9879
 Red. masses --      2.2275                 3.6400                 3.3694
 Frc consts  --      0.1271                 0.2635                 0.2912
 IR Inten    --      0.9839                 3.1659                 6.4426

                      7                      8                      9
                      A                      A                      A
 Frequencies --    530.5865               609.7988               645.5365
 Red. masses --      3.5338                 2.9617                 4.5138
 Frc consts  --      0.5861                 0.6489                 1.1082
 IR Inten    --      9.5641                 2.8209                 1.7748

                     10                     11                     12
                      A                      A                      A
 Frequencies --    689.7687               726.7872               741.4423
 Red. masses --      2.5508                 2.8144                 1.4096
 Frc consts  --      0.7150                 0.8759                 0.4566
 IR Inten    --      0.5785                 3.2140                 0.7943

                     13                     14                     15
                      A                      A                      A
 Frequencies --    833.4186               872.3621               896.9326
 Red. masses --      2.1401                 2.3515                 2.0684
 Frc consts  --      0.8758                 1.0544                 0.9804
 IR Inten    --      9.5065                 4.1915                 4.1076

                     16                     17                     18
                      A                      A                      A
 Frequencies --    913.6720               918.7835               967.2047
 Red. masses --      2.6040                 2.5283                 4.6697
 Frc consts  --      1.2808                 1.2575                 2.5738
 IR Inten    --      4.0064                 5.0657                36.9488

                     19                     20                     21
                      A                      A                      A
 Frequencies --    983.7060               985.3875              1015.6204
 Red. masses --      2.4054                 1.9996                 5.3116
 Frc consts  --      1.3714                 1.1440                 3.2280
 IR Inten    --     17.2109                39.3132                40.3951

                     22                     23                     24
                      A                      A                      A
 Frequencies --   1027.6071              1140.4046              1142.9267
 Red. masses --      2.1747                 2.4263                 1.2221
 Frc consts  --      1.3530                 1.8591                 0.9406
 IR Inten    --     23.6588                 8.5686                 1.2202

                     25                     26                     27
                      A                      A                      A
 Frequencies --   1153.6726              1187.9918              1208.0797
 Red. masses --      2.3506                 2.0363                 1.4892
 Frc consts  --      1.8433                 1.6933                 1.2805
 IR Inten    --      7.2817                 2.6643                 5.0887

                     28                     29                     30
                      A                      A                      A
 Frequencies --   1223.6308              1235.7528              1244.9590
 Red. masses --      1.7833                 1.3197                 1.5540
 Frc consts  --      1.5732                 1.1874                 1.4191
 IR Inten    --     12.6616                 3.4836                24.6604

                     31                     32                     33
                      A                      A                      A
 Frequencies --   1249.6366              1273.4110              1286.0558
 Red. masses --      1.6530                 2.3543                 2.0189
 Frc consts  --      1.5208                 2.2493                 1.9673
 IR Inten    --     23.5114                45.8004                 2.0350

                     34                     35                     36
                      A                      A                      A
 Frequencies --   1318.1077              1340.5337              1383.1753
 Red. masses --      1.5269                 1.5986                 1.4457
 Frc consts  --      1.5630                 1.6925                 1.6296
 IR Inten    --      0.6857                 5.4594                 5.1786

                     37                     38                     39
                      A                      A                      A
 Frequencies --   1461.8195              1467.9915              1478.0591
 Red. masses --      1.0849                 1.1020                 1.1165
 Frc consts  --      1.3660                 1.3992                 1.4371
 IR Inten    --      1.1640                 4.7261                 4.7929

                     40                     41                     42
                      A                      A                      A
 Frequencies --   1508.3927              1520.7902              3009.2961
 Red. masses --      1.1043                 1.0917                 1.0688
 Frc consts  --      1.4804                 1.4877                 5.7029
 IR Inten    --      1.2366                 0.4642                45.2878

                     43                     44                     45
                      A                      A                      A
 Frequencies --   3020.5082              3061.7332              3069.0770
 Red. masses --      1.0554                 1.0614                 1.0593
 Frc consts  --      5.6731                 5.8625                 5.8786
 IR Inten    --     67.1526                10.6834                33.4243

                     46                     47                     48
                      A                      A                      A
 Frequencies --   3073.5796              3074.4887              3100.7952
 Red. masses --      1.1029                 1.0674                 1.0949
 Frc consts  --      6.1387                 5.9445                 6.2025
 IR Inten    --     15.3367                51.3296                29.0197

                     49                     50                     51
                      A                      A                      A
 Frequencies --   3119.9366              3123.3490              3140.1284
 Red. masses --      1.1049                 1.1086                 1.1076
 Frc consts  --      6.3370                 6.3717                 6.4347
 IR Inten    --     14.6552                 2.1327                27.7390

 - Thermochemistry -
 -------------------
 Temperature   298.150 Kelvin.  Pressure   1.00000 Atm.
 Atom     1 has atomic number  6 and mass  12.00000

 Molecular mass:   126.06808 amu.
 Principal axes and moments of inertia in atomic units:
                           1         2         3
     Eigenvalues --   736.73197 963.388951006.91634
           X            0.99653   0.07227   0.04140
           Y           -0.04458   0.88270  -0.46782
           Z           -0.07036   0.46435   0.88285
 This molecule is an asymmetric top.
 Rotational symmetry number  1.
 Warning -- assumption of classical behavior for rotation
           may cause significant error
 Rotational temperatures (Kelvin)      0.11756     0.08991     0.08602
 Rotational constants (GHZ):           2.44966     1.87333     1.79234
 Zero-point vibrational energy     422431.2 (Joules/Mol)
                                  100.96348 (Kcal/Mol)
 Warning -- explicit consideration of   8 degrees of freedom as
           vibrations may cause significant error
 Vibrational temperatures:    180.04   268.98   419.17   447.71   504.29
          (Kelvin)            551.03   763.39   877.36   928.78   992.42
                             1045.68  1066.77  1199.10  1255.13  1290.48
                             1314.57  1321.92  1391.59  1415.33  1417.75
                             1461.25  1478.50  1640.79  1644.41  1659.88
                             1709.25  1738.16  1760.53  1777.97  1791.22
                             1797.95  1832.15  1850.35  1896.46  1928.73
                             1990.08  2103.23  2112.11  2126.59  2170.24
                             2188.08  4329.70  4345.83  4405.15  4415.71
                             4422.19  4423.50  4461.35  4488.89  4493.80
                             4517.94

 Zero-point correction=                           0.160896 (Hartree/Particle)
 Thermal correction to Energy=                    0.168037
 Thermal correction to Enthalpy=                  0.168981
 Thermal correction to Gibbs Free Energy=         0.129641
 Sum of electronic and zero-point Energies=           -422.988661
 Sum of electronic and thermal Energies=              -422.981520
 Sum of electronic and thermal Enthalpies=            -422.980576
 Sum of electronic and thermal Free Energies=         -423.019916

                     E (Thermal)             CV                S
                      KCal/Mol        Cal/Mol-Kelvin    Cal/Mol-Kelvin
 Total                  105.445             29.147             82.798
 Electronic               0.000              0.000              0.000
 Translational            0.889              2.981             40.409
 Rotational               0.889              2.981             28.060
 Vibrational            103.667             23.186             14.330
 Vibration     1          0.610              1.928              3.020
 Vibration     2          0.632              1.858              2.258
 Vibration     3          0.687              1.690              1.466
 Vibration     4          0.700              1.652              1.356
 Vibration     5          0.727              1.574              1.164
 Vibration     6          0.752              1.506              1.027
 Vibration     7          0.886              1.182              0.586
 Vibration     8          0.969              1.011              0.433

 Optimization completed.
    -- Stationary point found.
 Normal termination of Gaussian 09 at Mon Jan 27 13:06:59 2020.
