 Gaussian 09, Revision D.01,
 Gaussian 09:  ES64L-G09RevD.01 24-Apr-2013

 -----------------------------
 # b3lyp 6-31G(2df,p) opt Freq
 -----------------------------

 -----
 titel
 -----
 Symbolic Z-matrix:
 Charge =  0 Multiplicity = 1

 SCF Done:  E(RB3LYP) =  -423.046604193     A.U. after   13 cycles
 SCF Done:  E(RB3LYP) =  -423.046604415     A.U. after    6 cycles
 Optimization completed.
    -- Stationary point found.
 Normal termination of Gaussian 09 at Tue Jan 28 02:59:51 2020.

 ----------------------------------------------------------------------
 #N Geom=AllCheck Guess=TCheck SCRF=Check GenChk RB3LYP/6-31G(2df,p) Fr
 eq
 ----------------------------------------------------------------------

 Structure from the checkpoint file:  "/scratch/puck/g09_66615542-70d6-4816-827c-c4dc455dbe5e/Gau-67037.chk"
 -----
 titel
 -----
 Charge =  0 Multiplicity = 1

                         Standard orientation:
 ---------------------------------------------------------------------
 Center     Atomic      Atomic             Coordinates (Angstroms)
 Number     Number       Type             X           Y           Z
 ---------------------------------------------------------------------
      1          6           0       -2.600158   -0.020521   -0.138514
      2          6           0       -1.204494   -0.555466   -0.340321
      3          8           0       -0.636651   -1.107960    0.933487
      4          6           0        0.596389   -0.515255    0.532158
      5          6           0        1.421203   -1.130982   -0.646090
      6          6           0        1.528135    0.393446   -0.778704
      7          6           0        1.797144    0.434516    0.814442
      8          6           0       -0.005032    0.498984   -0.406198
      9          8           0       -0.397235    1.737643    0.143900
     10          1           0       -2.995177    0.362344   -1.086223
     11          1           0       -3.256354   -0.827089    0.202853
     12          1           0       -2.603064    0.782618    0.598121
     13          1           0       -1.185297   -1.334943   -1.105643
     14          1           0        2.333550   -1.656600   -0.360648
     15          1           0        0.880997   -1.662396   -1.429274
     16          1           0        2.097847    0.953972   -1.522818
     17          1           0        2.741874   -0.007643    1.140516
     18          1           0        1.571516    1.373990    1.311718
     19          1           0       -0.513930    2.349956   -0.588343
 ---------------------------------------------------------------------

 SCF Done:  E(RB3LYP) =  -423.046604415     A.U. after    1 cycles

 The electronic state is 1-A.
 Alpha  occ. eigenvalues --  -19.14314 -19.13419 -10.24488 -10.24130 -10.23031
 Alpha  occ. eigenvalues --  -10.21989 -10.19903 -10.18496 -10.17463  -1.05014
 Alpha  occ. eigenvalues --   -1.01224  -0.89655  -0.75243  -0.67669  -0.67175
 Alpha  occ. eigenvalues --   -0.60789  -0.59187  -0.54370  -0.49760  -0.47997
 Alpha  occ. eigenvalues --   -0.46865  -0.44344  -0.42176  -0.40761  -0.39299
 Alpha  occ. eigenvalues --   -0.38097  -0.35402  -0.34988  -0.34215  -0.32976
 Alpha  occ. eigenvalues --   -0.31855  -0.27289  -0.24429  -0.23409
 Alpha virt. eigenvalues --    0.06887   0.07433   0.08277   0.11012   0.12541
 Alpha virt. eigenvalues --    0.13140   0.13632   0.14537   0.14988   0.17592
 Alpha virt. eigenvalues --    0.18077   0.18296   0.19498   0.20061   0.21810

 Mulliken charges:
               1
     1  C   -0.411194
     2  C    0.044720
     3  O   -0.373604
     4  C    0.389772
     5  C   -0.279853
     6  C   -0.143646
     7  C   -0.309225
     8  C    0.266863
     9  O   -0.447803
    10  H    0.110894
    11  H    0.127798
    12  H    0.145213
    13  H    0.089903
    14  H    0.098288
    15  H    0.097945
    16  H    0.078732
    17  H    0.098574
    18  H    0.130188
    19  H    0.286436
 Sum of Mulliken charges =   0.00000

 Dipole moment (field-independent basis, Debye):
    X=              0.4930    Y=              1.0764    Z=             -2.4430  Tot=              2.7148
 Quadrupole moment (field-independent basis, Debye-Ang):
   XX=            -50.2261   YY=            -52.3849   ZZ=            -54.0703
   XY=             -0.8226   XZ=              2.5333   YZ=             -0.6408

  Exact polarizability:  92.907   0.467  71.934   2.291   1.944  64.340
 Approx polarizability: 124.365   2.928 110.816   1.089  -1.138 105.638

                      1                      2                      3
                      A                      A                      A
 Frequencies --    166.4014               205.5368               229.6461
 Red. masses --      2.7905                 1.1329                 1.2212
 Frc consts  --      0.0455                 0.0282                 0.0379
 IR Inten    --      8.7856                10.3908                55.6364

                      4                      5                      6
                      A                      A                      A
 Frequencies --    269.9532               317.2389               350.7641
 Red. masses --      2.3598                 2.8188                 5.0075
 Frc consts  --      0.1013                 0.1671                 0.3630
 IR Inten    --      5.4959                 5.5550                 1.7125

                      7                      8                      9
                      A                      A                      A
 Frequencies --    399.5182               456.6691               525.3554
 Red. masses --      4.5444                 3.7449                 2.7427
 Frc consts  --      0.4274                 0.4601                 0.4460
 IR Inten    --     15.0796                 0.9424                 4.6092

                     10                     11                     12
                      A                      A                      A
 Frequencies --    534.4404               568.7242               647.3175
 Red. masses --      4.0777                 2.2906                 3.9617
 Frc consts  --      0.6862                 0.4365                 0.9781
 IR Inten    --      2.5395                 2.5546                 7.4001

                     13                     14                     15
                      A                      A                      A
 Frequencies --    731.6602               773.0125               792.6414
 Red. masses --      4.0159                 3.6625                 4.0156
 Frc consts  --      1.2666                 1.2894                 1.4865
 IR Inten    --     20.5778                38.0145                10.1177

                     16                     17                     18
                      A                      A                      A
 Frequencies --    850.7068               886.4209               946.1419
 Red. masses --      3.7085                 3.5801                 1.9454
 Frc consts  --      1.5813                 1.6574                 1.0261
 IR Inten    --      5.2352                 6.7201                 5.6793

                     19                     20                     21
                      A                      A                      A
 Frequencies --    955.6772               970.2703               996.6520
 Red. masses --      1.7995                 1.4798                 1.6733
 Frc consts  --      0.9683                 0.8208                 0.9793
 IR Inten    --     10.9809                 4.4475                38.4522

                     22                     23                     24
                      A                      A                      A
 Frequencies --   1022.3681              1045.9784              1056.1359
 Red. masses --      1.6671                 1.7633                 1.2830
 Frc consts  --      1.0267                 1.1366                 0.8432
 IR Inten    --      7.6134                25.9996                 7.2617

                     25                     26                     27
                      A                      A                      A
 Frequencies --   1076.3942              1129.9076              1136.5233
 Red. masses --      1.6398                 1.7691                 2.3925
 Frc consts  --      1.1194                 1.3307                 1.8208
 IR Inten    --      1.4210                20.1121                22.9258

                     28                     29                     30
                      A                      A                      A
 Frequencies --   1157.5882              1173.6965              1193.2975
 Red. masses --      1.8851                 1.8400                 1.6109
 Frc consts  --      1.4883                 1.4934                 1.3515
 IR Inten    --     19.3358                 4.3945                61.0861

                     31                     32                     33
                      A                      A                      A
 Frequencies --   1207.2205              1219.6076              1235.4807
 Red. masses --      2.1250                 2.4301                 1.8843
 Frc consts  --      1.8247                 2.1296                 1.6946
 IR Inten    --     10.2277                35.1675                40.7324

                     34                     35                     36
                      A                      A                      A
 Frequencies --   1260.8204              1352.8013              1375.0648
 Red. masses --      1.5420                 1.8928                 1.3802
 Frc consts  --      1.4442                 2.0409                 1.5376
 IR Inten    --     39.8359                10.8744                 4.3913

                     37                     38                     39
                      A                      A                      A
 Frequencies --   1402.2905              1479.0805              1484.8475
 Red. masses --      1.3439                 1.0537                 1.0967
 Frc consts  --      1.5571                 1.3582                 1.4247
 IR Inten    --      8.4428                 3.0093                 1.7944

                     40                     41                     42
                      A                      A                      A
 Frequencies --   1493.9261              1531.5591              3040.5309
 Red. masses --      1.0507                 1.1570                 1.0394
 Frc consts  --      1.3816                 1.5990                 5.6613
 IR Inten    --      3.8816                 7.8912                18.9791

                     43                     44                     45
                      A                      A                      A
 Frequencies --   3072.1663              3072.9708              3082.3845
 Red. masses --      1.0694                 1.0648                 1.0750
 Frc consts  --      5.9465                 5.9241                 6.0179
 IR Inten    --     31.4170                15.7392                55.9082

                     46                     47                     48
                      A                      A                      A
 Frequencies --   3093.8639              3105.1062              3147.1022
 Red. masses --      1.0832                 1.0997                 1.1101
 Frc consts  --      6.1089                 6.2472                 6.4778
 IR Inten    --     60.8003                16.3582                28.7481

                     49                     50                     51
                      A                      A                      A
 Frequencies --   3158.2104              3184.2442              3826.7256
 Red. masses --      1.0988                 1.1047                 1.0667
 Frc consts  --      6.4571                 6.5996                 9.2030
 IR Inten    --     11.8490                10.9148                38.9315

 - Thermochemistry -
 -------------------
 Temperature   298.150 Kelvin.  Pressure   1.00000 Atm.
 Atom     1 has atomic number  6 and mass  12.00000

 Molecular mass:   126.06808 amu.
 Principal axes and moments of inertia in atomic units:
                           1         2         3
     Eigenvalues --   594.955841085.145671308.76954
           X            0.99987  -0.00997   0.01237
           Y            0.00931   0.99860   0.05214
           Z           -0.01287  -0.05202   0.99856
 This molecule is an asymmetric top.
 Rotational symmetry number  1.
 Warning -- assumption of classical behavior for rotation
           may cause significant error
 Rotational temperatures (Kelvin)      0.14558     0.07982     0.06618
 Rotational constants (GHZ):           3.03340     1.66313     1.37896
 Zero-point vibrational energy     415060.2 (Joules/Mol)
                                   99.20176 (Kcal/Mol)
 Warning -- explicit consideration of  11 degrees of freedom as
           vibrations may cause significant error
 Vibrational temperatures:    239.41   295.72   330.41   388.40   456.44
          (Kelvin)            504.67   574.82   657.04   755.87   768.94
                              818.27   931.34  1052.69  1112.19  1140.43
                             1223.98  1275.36  1361.29  1375.00  1396.00
                             1433.96  1470.96  1504.93  1519.54  1548.69
                             1625.68  1635.20  1665.51  1688.69  1716.89
                             1736.92  1754.74  1777.58  1814.04  1946.38
                             1978.41  2017.58  2128.06  2136.36  2149.42
                             2203.57  4374.64  4420.16  4421.31  4434.86
                             4451.37  4467.55  4527.97  4543.95  4581.41
                             5505.80

 Zero-point correction=                           0.158088 (Hartree/Particle)
 Thermal correction to Energy=                    0.165992
 Thermal correction to Enthalpy=                  0.166936
 Thermal correction to Gibbs Free Energy=         0.126444
 Sum of electronic and zero-point Energies=           -422.888516
 Sum of electronic and thermal Energies=              -422.880612
 Sum of electronic and thermal Enthalpies=            -422.879668
 Sum of electronic and thermal Free Energies=         -422.920160

                     E (Thermal)             CV                S
                      KCal/Mol        Cal/Mol-Kelvin    Cal/Mol-Kelvin
 Total                  104.162             32.380             85.222
 Electronic               0.000              0.000              0.000
 Translational            0.889              2.981             40.409
 Rotational               0.889              2.981             28.226
 Vibrational            102.384             26.418             16.588
 Vibration     1          0.624              1.884              2.476
 Vibration     2          0.640              1.832              2.083
 Vibration     3          0.652              1.796              1.882
 Vibration     4          0.674              1.729              1.597
 Vibration     5          0.704              1.641              1.324
 Vibration     6          0.728              1.574              1.163
 Vibration     7          0.766              1.471              0.964
 Vibration     8          0.815              1.346              0.776
 Vibration     9          0.880              1.194              0.598
 Vibration    10          0.889              1.174              0.577
 Vibration    11          0.925              1.099              0.507

 Normal termination of Gaussian 09 at Tue Jan 28 03:48:00 2020.
