 Gaussian 09, Revision D.01,
 Gaussian 09:  ES64L-G09RevD.01 24-Apr-2013

 -----------------------------
 # b3lyp 6-31G(2df,p) opt Freq
 -----------------------------

 -----
 titel
 -----
 Symbolic Z-matrix:
 Charge =  0 Multiplicity = 1

 SCF Done:  E(RB3LYP) =  -423.186925824     A.U. after   13 cycles
 SCF Done:  E(RB3LYP) =  -423.186925876     A.U. after    6 cycles
 Optimization completed.
    -- Stationary point found.
 Normal termination of Gaussian 09 at Mon Jan 27 22:08:29 2020.

 ----------------------------------------------------------------------
 #N Geom=AllCheck Guess=TCheck SCRF=Check GenChk RB3LYP/6-31G(2df,p) Fr
 eq
 ----------------------------------------------------------------------

 Structure from the checkpoint file:  "/scratch/puck/g09_ade4972d-b64e-4e02-9c30-77b7687d9d53/Gau-53248.chk"
 -----
 titel
 -----
 Charge =  0 Multiplicity = 1

                         Standard orientation:
 ---------------------------------------------------------------------
 Center     Atomic      Atomic             Coordinates (Angstroms)
 Number     Number       Type             X           Y           Z
 ---------------------------------------------------------------------
      1          6           0        2.360712    1.339588    0.225874
      2          6           0        1.313728    0.311760   -0.054551
      3          6           0        0.023166    0.459101   -0.336583
      4          6           0       -1.048135    1.492994   -0.224656
      5          8           0       -2.224311    0.742459    0.141602
      6          6           0       -1.868006   -0.608667    0.463335
      7          6           0       -0.646695   -0.882761   -0.426914
      8          8           0        0.315708   -1.819568    0.020408
      9          6           0        1.595911   -1.179162    0.018418
     10          1           0        3.146533    1.327928   -0.540154
     11          1           0        1.938296    2.347439    0.252095
     12          1           0        2.856197    1.147226    1.185544
     13          1           0       -0.821273    2.250634    0.538540
     14          1           0       -1.265851    2.016793   -1.164451
     15          1           0       -1.582063   -0.719595    1.520197
     16          1           0       -2.743367   -1.229510    0.257939
     17          1           0       -0.980783   -1.133528   -1.447710
     18          1           0        2.205174   -1.540853   -0.827770
     19          1           0        2.131875   -1.446778    0.940152
 ---------------------------------------------------------------------

 SCF Done:  E(RB3LYP) =  -423.186925876     A.U. after    1 cycles

 The electronic state is 1-A.
 Alpha  occ. eigenvalues --  -19.13813 -19.13611 -10.23561 -10.23321 -10.22919
 Alpha  occ. eigenvalues --  -10.22334 -10.19694 -10.19444 -10.18425  -1.04191
 Alpha  occ. eigenvalues --   -1.02251  -0.81455  -0.76061  -0.73138  -0.69379
 Alpha  occ. eigenvalues --   -0.62333  -0.58639  -0.54246  -0.50517  -0.47467
 Alpha  occ. eigenvalues --   -0.46231  -0.44456  -0.44287  -0.42536  -0.41278
 Alpha  occ. eigenvalues --   -0.40398  -0.39480  -0.37733  -0.35286  -0.31887
 Alpha  occ. eigenvalues --   -0.31003  -0.26827  -0.24752  -0.23314
 Alpha virt. eigenvalues --    0.00902   0.08273   0.09888   0.11460   0.11877
 Alpha virt. eigenvalues --    0.13480   0.15009   0.15280   0.15625   0.16582
 Alpha virt. eigenvalues --    0.17434   0.18975   0.19665   0.21129   0.22470

 Mulliken charges:
               1
     1  C   -0.497054
     2  C    0.121539
     3  C    0.178080
     4  C   -0.166421
     5  O   -0.275668
     6  C   -0.096481
     7  C    0.050995
     8  O   -0.278682
     9  C   -0.152157
    10  H    0.135500
    11  H    0.129740
    12  H    0.131338
    13  H    0.109014
    14  H    0.114451
    15  H    0.095513
    16  H    0.109122
    17  H    0.080927
    18  H    0.100643
    19  H    0.109600
 Sum of Mulliken charges =   0.00000

 Dipole moment (field-independent basis, Debye):
    X=              1.9889    Y=              1.1051    Z=             -0.2372  Tot=              2.2877
 Quadrupole moment (field-independent basis, Debye-Ang):
   XX=            -53.2600   YY=            -54.9255   ZZ=            -52.3394
   XY=              2.9370   XZ=              1.0314   YZ=             -0.0541

  Exact polarizability:  99.038   0.642  76.315   4.452  -0.672  60.419
 Approx polarizability: 141.502  -2.814 107.104  10.194  -2.281  93.028

                      1                      2                      3
                      A                      A                      A
 Frequencies --    101.6005               153.3388               167.1253
 Red. masses --      3.1961                 1.0545                 2.5912
 Frc consts  --      0.0194                 0.0146                 0.0426
 IR Inten    --      0.0300                 0.3192                 4.6802

                      4                      5                      6
                      A                      A                      A
 Frequencies --    183.0432               215.6845               286.2151
 Red. masses --      2.5938                 2.4008                 2.7938
 Frc consts  --      0.0512                 0.0658                 0.1348
 IR Inten    --      6.8448                 0.8999                 0.3192

                      7                      8                      9
                      A                      A                      A
 Frequencies --    400.8139               451.3488               572.7607
 Red. masses --      3.0156                 2.9729                 4.0762
 Frc consts  --      0.2854                 0.3568                 0.7879
 IR Inten    --      3.2362                 0.3206                 1.7489

                     10                     11                     12
                      A                      A                      A
 Frequencies --    603.6652               646.1651               687.3154
 Red. masses --      5.6614                 2.9178                 6.6333
 Frc consts  --      1.2155                 0.7178                 1.8462
 IR Inten    --      0.9072                 2.8469                 6.7869

                     13                     14                     15
                      A                      A                      A
 Frequencies --    830.7148               905.1564               921.1478
 Red. masses --      3.4260                 4.4785                 2.1769
 Frc consts  --      1.3930                 2.1619                 1.0883
 IR Inten    --      6.8480                18.9263                15.4599

                     16                     17                     18
                      A                      A                      A
 Frequencies --    958.7915               968.2627              1003.6716
 Red. masses --      1.6646                 2.0339                 2.6901
 Frc consts  --      0.9016                 1.1235                 1.5966
 IR Inten    --      5.2892                19.0393                 8.9753

                     19                     20                     21
                      A                      A                      A
 Frequencies --   1018.2482              1057.6974              1087.2301
 Red. masses --      1.7522                 6.9466                 1.8071
 Frc consts  --      1.0704                 4.5787                 1.2586
 IR Inten    --     14.6007                79.9983                 3.6157

                     22                     23                     24
                      A                      A                      A
 Frequencies --   1095.3857              1109.4884              1132.4196
 Red. masses --      2.5984                 3.4551                 2.6230
 Frc consts  --      1.8369                 2.5058                 1.9818
 IR Inten    --      3.4789                49.3074                24.5007

                     25                     26                     27
                      A                      A                      A
 Frequencies --   1173.8837              1197.6004              1210.1750
 Red. masses --      2.3727                 1.1355                 1.3226
 Frc consts  --      1.9264                 0.9595                 1.1412
 IR Inten    --      2.9535                 1.9489                 2.4280

                     28                     29                     30
                      A                      A                      A
 Frequencies --   1211.2534              1261.0610              1300.0743
 Red. masses --      1.1448                 1.9447                 1.9231
 Frc consts  --      0.9896                 1.8221                 1.9151
 IR Inten    --      4.3277                 8.2407                 5.7971

                     31                     32                     33
                      A                      A                      A
 Frequencies --   1322.4496              1366.6624              1373.0334
 Red. masses --      1.3281                 1.3580                 1.5509
 Frc consts  --      1.3685                 1.4945                 1.7227
 IR Inten    --      1.4438                21.6528                 1.8774

                     34                     35                     36
                      A                      A                      A
 Frequencies --   1394.9728              1415.9396              1479.2861
 Red. masses --      1.4432                 1.2948                 1.0458
 Frc consts  --      1.6546                 1.5295                 1.3484
 IR Inten    --      1.5251                 2.4338                 6.8192

                     37                     38                     39
                      A                      A                      A
 Frequencies --   1488.4942              1507.2625              1517.1328
 Red. masses --      1.0518                 1.0861                 1.0937
 Frc consts  --      1.3730                 1.4537                 1.4832
 IR Inten    --      5.8154                 0.2214                 1.2136

                     40                     41                     42
                      A                      A                      A
 Frequencies --   1517.7828              1785.1199              2954.1019
 Red. masses --      1.0867                 9.5077                 1.0727
 Frc consts  --      1.4750                17.8509                 5.5156
 IR Inten    --      0.9368                 6.2158                76.6972

                     43                     44                     45
                      A                      A                      A
 Frequencies --   2959.2613              2994.3282              3002.3140
 Red. masses --      1.0791                 1.0661                 1.0608
 Frc consts  --      5.5676                 5.6320                 5.6336
 IR Inten    --     59.0525                76.2150                37.3625

                     46                     47                     48
                      A                      A                      A
 Frequencies --   3014.8454              3020.6266              3030.8710
 Red. masses --      1.0864                 1.0417                 1.1045
 Frc consts  --      5.8180                 5.6001                 5.9777
 IR Inten    --     32.2694                45.7567                36.4136

                     49                     50                     51
                      A                      A                      A
 Frequencies --   3066.8901              3100.1354              3113.2631
 Red. masses --      1.0985                 1.0970                 1.0991
 Frc consts  --      6.0874                 6.2120                 6.2767
 IR Inten    --     16.6810                42.0359                15.8996

 - Thermochemistry -
 -------------------
 Temperature   298.150 Kelvin.  Pressure   1.00000 Atm.
 Atom     1 has atomic number  6 and mass  12.00000

 Molecular mass:   126.06808 amu.
 Principal axes and moments of inertia in atomic units:
                           1         2         3
     Eigenvalues --   666.858151146.971801690.86970
           X            0.99870   0.05058   0.00600
           Y           -0.05060   0.99872   0.00196
           Z           -0.00589  -0.00226   0.99998
 This molecule is an asymmetric top.
 Rotational symmetry number  1.
 Warning -- assumption of classical behavior for rotation
           may cause significant error
 Rotational temperatures (Kelvin)      0.12988     0.07552     0.05122
 Rotational constants (GHZ):           2.70633     1.57348     1.06734
 Zero-point vibrational energy     420703.4 (Joules/Mol)
                                  100.55052 (Kcal/Mol)
 Warning -- explicit consideration of  10 degrees of freedom as
           vibrations may cause significant error
 Vibrational temperatures:    146.18   220.62   240.46   263.36   310.32
          (Kelvin)            411.80   576.68   649.39   824.07   868.54
                              929.69   988.89  1195.21  1302.32  1325.32
                             1379.49  1393.11  1444.06  1465.03  1521.79
                             1564.28  1576.01  1596.30  1629.30  1688.95
                             1723.08  1741.17  1742.72  1814.38  1870.51
                             1902.71  1966.32  1975.49  2007.05  2037.22
                             2128.36  2141.61  2168.61  2182.81  2183.75
                             2568.39  4250.29  4257.71  4308.17  4319.65
                             4337.68  4346.00  4360.74  4412.57  4460.40
                             4479.29

 Zero-point correction=                           0.160237 (Hartree/Particle)
 Thermal correction to Energy=                    0.168389
 Thermal correction to Enthalpy=                  0.169333
 Thermal correction to Gibbs Free Energy=         0.127374
 Sum of electronic and zero-point Energies=           -423.026688
 Sum of electronic and thermal Energies=              -423.018537
 Sum of electronic and thermal Enthalpies=            -423.017593
 Sum of electronic and thermal Free Energies=         -423.059552

                     E (Thermal)             CV                S
                      KCal/Mol        Cal/Mol-Kelvin    Cal/Mol-Kelvin
 Total                  105.666             30.476             88.311
 Electronic               0.000              0.000              0.000
 Translational            0.889              2.981             40.409
 Rotational               0.889              2.981             28.649
 Vibrational            103.888             24.515             19.253
 Vibration     1          0.604              1.948              3.423
 Vibration     2          0.619              1.899              2.630
 Vibration     3          0.624              1.883              2.468
 Vibration     4          0.631              1.863              2.297
 Vibration     5          0.645              1.817              1.995
 Vibration     6          0.684              1.699              1.496
 Vibration     7          0.767              1.468              0.960
 Vibration     8          0.810              1.358              0.792
 Vibration     9          0.929              1.090              0.499
 Vibration    10          0.962              1.024              0.443

 Normal termination of Gaussian 09 at Mon Jan 27 22:56:26 2020.
