 Gaussian 09, Revision D.01,
 Gaussian 09:  ES64L-G09RevD.01 24-Apr-2013

 -----------------------------
 # b3lyp 6-31G(2df,p) opt Freq
 -----------------------------

 -----
 titel
 -----
 Symbolic Z-matrix:
 Charge =  0 Multiplicity = 1

 SCF Done:  E(RB3LYP) =  -423.116553579     A.U. after   13 cycles
 Optimization completed.
    -- Stationary point found.
 Normal termination of Gaussian 09 at Mon Jan 27 22:06:42 2020.

 ----------------------------------------------------------------------
 #N Geom=AllCheck Guess=TCheck SCRF=Check GenChk RB3LYP/6-31G(2df,p) Fr
 eq
 ----------------------------------------------------------------------

 Structure from the checkpoint file:  "/scratch/puck/g09_5fa49bb2-1efe-44a8-aa26-694354e42ea6/Gau-116813.chk"
 -----
 titel
 -----
 Charge =  0 Multiplicity = 1

                         Standard orientation:
 ---------------------------------------------------------------------
 Center     Atomic      Atomic             Coordinates (Angstroms)
 Number     Number       Type             X           Y           Z
 ---------------------------------------------------------------------
      1          6           0        0.083171    1.977490    0.942776
      2          6           0        0.047144    0.787943    0.025169
      3          6           0        1.204803    0.133245   -0.766796
      4          8           0        2.276505   -0.427403   -0.053371
      5          6           0       -0.008510   -0.748262   -1.127893
      6          6           0       -0.980050    0.477762   -1.126788
      7          6           0       -1.983447   -0.200992   -0.162726
      8          6           0       -0.586308   -0.614953    0.329921
      9          8           0       -0.210110   -1.353951    1.447888
     10          1           0        0.807665    1.816910    1.748134
     11          1           0        0.380934    2.882288    0.401921
     12          1           0       -0.893722    2.164701    1.401905
     13          1           0        1.640136    0.726325   -1.577759
     14          1           0        1.899333   -0.932474    0.678671
     15          1           0       -0.079075   -1.622323   -1.777637
     16          1           0       -1.189549    1.117180   -1.980991
     17          1           0       -2.568643    0.455056    0.489007
     18          1           0       -2.614628   -0.987231   -0.590475
     19          1           0       -0.574419   -2.242992    1.369118
 ---------------------------------------------------------------------

 SCF Done:  E(RB3LYP) =  -423.116553579     A.U. after    1 cycles

 The electronic state is 1-A.
 Alpha  occ. eigenvalues --  -19.16089 -19.12358 -10.24827 -10.22442 -10.20182
 Alpha  occ. eigenvalues --  -10.19614 -10.18939 -10.18695 -10.17570  -1.04530
 Alpha  occ. eigenvalues --   -1.00939  -0.92955  -0.74023  -0.72242  -0.63429
 Alpha  occ. eigenvalues --   -0.60987  -0.60335  -0.54353  -0.51579  -0.46700
 Alpha  occ. eigenvalues --   -0.45372  -0.44872  -0.42738  -0.40558  -0.39513
 Alpha  occ. eigenvalues --   -0.38080  -0.37623  -0.35992  -0.32452  -0.30870
 Alpha  occ. eigenvalues --   -0.30001  -0.27863  -0.26028  -0.24423
 Alpha virt. eigenvalues --    0.06502   0.10591   0.11504   0.12413   0.12722
 Alpha virt. eigenvalues --    0.13577   0.14503   0.15153   0.15587   0.16348
 Alpha virt. eigenvalues --    0.17421   0.18482   0.20781   0.21091   0.22079

 Mulliken charges:
               1
     1  C   -0.528420
     2  C    0.268362
     3  C    0.101761
     4  O   -0.458281
     5  C   -0.165743
     6  C   -0.098477
     7  C   -0.335919
     8  C    0.341176
     9  O   -0.483418
    10  H    0.132482
    11  H    0.121129
    12  H    0.119941
    13  H    0.073704
    14  H    0.285747
    15  H    0.067028
    16  H    0.082690
    17  H    0.099357
    18  H    0.089489
    19  H    0.287394
 Sum of Mulliken charges =   0.00000

 Dipole moment (field-independent basis, Debye):
    X=             -2.2719    Y=             -0.7873    Z=             -0.1989  Tot=              2.4127
 Quadrupole moment (field-independent basis, Debye-Ang):
   XX=            -58.6836   YY=            -47.1042   ZZ=            -53.4269
   XY=              1.9178   XZ=              0.4993   YZ=             -1.7137

  Exact polarizability:  78.270   1.832  76.027   0.320   0.558  71.598
 Approx polarizability: 112.788   1.043 111.188   1.344  -2.671 110.406

                      1                      2                      3
                      A                      A                      A
 Frequencies --    170.8280               188.0117               198.4935
 Red. masses --      3.8917                 1.3437                 2.9701
 Frc consts  --      0.0669                 0.0280                 0.0689
 IR Inten    --      1.6686                 0.6501                 2.1520

                      4                      5                      6
                      A                      A                      A
 Frequencies --    209.8093               282.1691               315.1081
 Red. masses --      2.1895                 2.0973                 1.3581
 Frc consts  --      0.0568                 0.0984                 0.0795
 IR Inten    --      1.0412                 8.6823                51.5743

                      7                      8                      9
                      A                      A                      A
 Frequencies --    394.9723               438.1878               479.5614
 Red. masses --      3.8023                 2.4831                 1.3679
 Frc consts  --      0.3495                 0.2809                 0.1853
 IR Inten    --     16.9495                 4.7450                37.7811

                     10                     11                     12
                      A                      A                      A
 Frequencies --    524.0045               531.8277               667.7347
 Red. masses --      1.9421                 3.3452                 4.0927
 Frc consts  --      0.3142                 0.5575                 1.0751
 IR Inten    --     45.4948                15.3501                11.0776

                     13                     14                     15
                      A                      A                      A
 Frequencies --    678.8957               712.5504               791.8116
 Red. masses --      3.6434                 3.7941                 3.3440
 Frc consts  --      0.9894                 1.1350                 1.2353
 IR Inten    --      2.5975                 1.0803                 5.7072

                     16                     17                     18
                      A                      A                      A
 Frequencies --    865.4332               876.3618               891.4324
 Red. masses --      1.9542                 2.3883                 1.8932
 Frc consts  --      0.8624                 1.0807                 0.8864
 IR Inten    --      3.0664                 0.9908                 4.9409

                     19                     20                     21
                      A                      A                      A
 Frequencies --    923.6272               946.4453              1001.8561
 Red. masses --      2.3754                 1.7330                 1.4077
 Frc consts  --      1.1939                 0.9146                 0.8325
 IR Inten    --      3.4666                 4.6518                 6.6380

                     22                     23                     24
                      A                      A                      A
 Frequencies --   1030.6665              1068.8318              1081.8206
 Red. masses --      2.2144                 1.4134                 2.0440
 Frc consts  --      1.3859                 0.9514                 1.4094
 IR Inten    --     16.7578                 8.5437                10.0385

                     25                     26                     27
                      A                      A                      A
 Frequencies --   1093.9318              1125.2453              1135.4847
 Red. masses --      2.0652                 1.7373                 1.6198
 Frc consts  --      1.4561                 1.2960                 1.2304
 IR Inten    --    107.6704                 0.8408                10.8290

                     28                     29                     30
                      A                      A                      A
 Frequencies --   1162.2519              1191.4617              1204.9577
 Red. masses --      2.2230                 1.8056                 1.8027
 Frc consts  --      1.7693                 1.5102                 1.5421
 IR Inten    --     16.9889                69.3544                11.0354

                     31                     32                     33
                      A                      A                      A
 Frequencies --   1231.4176              1266.3440              1271.1926
 Red. masses --      1.9019                 2.0037                 2.1472
 Frc consts  --      1.6992                 1.8932                 2.0443
 IR Inten    --     26.9473                11.4224               120.6749

                     34                     35                     36
                      A                      A                      A
 Frequencies --   1310.2157              1321.5518              1382.4961
 Red. masses --      2.6392                 1.6033                 2.0730
 Frc consts  --      2.6694                 1.6498                 2.3344
 IR Inten    --     22.0405                30.7125                 6.3030

                     37                     38                     39
                      A                      A                      A
 Frequencies --   1411.3852              1466.4938              1484.8676
 Red. masses --      1.4755                 1.3602                 1.0474
 Frc consts  --      1.7318                 1.7234                 1.3606
 IR Inten    --      6.1685                96.5169                 7.8406

                     40                     41                     42
                      A                      A                      A
 Frequencies --   1493.0124              1513.5659              3028.1209
 Red. masses --      1.0619                 1.1715                 1.0356
 Frc consts  --      1.3947                 1.5812                 5.5946
 IR Inten    --      8.6239                 5.6489                27.7066

                     43                     44                     45
                      A                      A                      A
 Frequencies --   3038.2622              3061.2452              3093.7275
 Red. masses --      1.0548                 1.0857                 1.1020
 Frc consts  --      5.7368                 5.9945                 6.2143
 IR Inten    --     51.3004                50.3132                23.4576

                     46                     47                     48
                      A                      A                      A
 Frequencies --   3097.3858              3098.8708              3101.9222
 Red. masses --      1.1061                 1.1024                 1.0908
 Frc consts  --      6.2525                 6.2372                 6.1841
 IR Inten    --     25.8539                23.0505                46.8062

                     49                     50                     51
                      A                      A                      A
 Frequencies --   3147.0191              3767.8929              3796.9633
 Red. masses --      1.0927                 1.0655                 1.0658
 Frc consts  --      6.3759                 8.9129                 9.0528
 IR Inten    --     28.6136                37.7704                28.0957

 - Thermochemistry -
 -------------------
 Temperature   298.150 Kelvin.  Pressure   1.00000 Atm.
 Atom     1 has atomic number  6 and mass  12.00000

 Molecular mass:   126.06808 amu.
 Principal axes and moments of inertia in atomic units:
                           1         2         3
     Eigenvalues --   822.879241028.102871131.88876
           X            0.99965   0.02263   0.01374
           Y           -0.02431   0.99012   0.13807
           Z           -0.01048  -0.13835   0.99033
 This molecule is an asymmetric top.
 Rotational symmetry number  1.
 Warning -- assumption of classical behavior for rotation
           may cause significant error
 Rotational temperatures (Kelvin)      0.10526     0.08425     0.07652
 Rotational constants (GHZ):           2.19320     1.75541     1.59445
 Zero-point vibrational energy     416107.4 (Joules/Mol)
                                   99.45206 (Kcal/Mol)
 Warning -- explicit consideration of  11 degrees of freedom as
           vibrations may cause significant error
 Vibrational temperatures:    245.78   270.51   285.59   301.87   405.98
          (Kelvin)            453.37   568.28   630.45   689.98   753.92
                              765.18   960.72   976.78  1025.20  1139.24
                             1245.16  1260.89  1282.57  1328.89  1361.72
                             1441.45  1482.90  1537.81  1556.50  1573.92
                             1618.98  1633.71  1672.22  1714.25  1733.66
                             1771.73  1821.98  1828.96  1885.11  1901.42
                             1989.10  2030.67  2109.95  2136.39  2148.11
                             2177.68  4356.79  4371.38  4404.44  4451.18
                             4456.44  4458.58  4462.97  4527.85  5421.15
                             5462.98

 Zero-point correction=                           0.158487 (Hartree/Particle)
 Thermal correction to Energy=                    0.166748
 Thermal correction to Enthalpy=                  0.167692
 Thermal correction to Gibbs Free Energy=         0.126389
 Sum of electronic and zero-point Energies=           -422.958067
 Sum of electronic and thermal Energies=              -422.949805
 Sum of electronic and thermal Enthalpies=            -422.948861
 Sum of electronic and thermal Free Energies=         -422.990164

                     E (Thermal)             CV                S
                      KCal/Mol        Cal/Mol-Kelvin    Cal/Mol-Kelvin
 Total                  104.636             33.072             86.930
 Electronic               0.000              0.000              0.000
 Translational            0.889              2.981             40.409
 Rotational               0.889              2.981             28.351
 Vibrational            102.859             27.111             18.171
 Vibration     1          0.626              1.878              2.426
 Vibration     2          0.633              1.856              2.247
 Vibration     3          0.637              1.842              2.147
 Vibration     4          0.642              1.826              2.045
 Vibration     5          0.681              1.707              1.520
 Vibration     6          0.702              1.645              1.335
 Vibration     7          0.762              1.481              0.981
 Vibration     8          0.798              1.387              0.832
 Vibration     9          0.836              1.295              0.711
 Vibration    10          0.879              1.197              0.601
 Vibration    11          0.887              1.180              0.583

 Optimization completed.
    -- Stationary point found.
 Normal termination of Gaussian 09 at Mon Jan 27 23:04:34 2020.
