 Gaussian 09, Revision D.01,
 Gaussian 09:  ES64L-G09RevD.01 24-Apr-2013

 -----------------------------
 # b3lyp 6-31G(2df,p) opt Freq
 -----------------------------

 -----
 titel
 -----
 Symbolic Z-matrix:
 Charge =  0 Multiplicity = 1

 SCF Done:  E(RB3LYP) =  -423.139620192     A.U. after   14 cycles
 Optimization completed.
    -- Stationary point found.
 Normal termination of Gaussian 09 at Tue Jan 28 12:07:01 2020.

 ----------------------------------------------------------------------
 #N Geom=AllCheck Guess=TCheck SCRF=Check GenChk RB3LYP/6-31G(2df,p) Fr
 eq
 ----------------------------------------------------------------------

 Structure from the checkpoint file:  "/scratch/puck/g09_6186b07c-d3b8-4ad2-afe7-6588db217ec4/Gau-22517.chk"
 -----
 titel
 -----
 Charge =  0 Multiplicity = 1

                         Standard orientation:
 ---------------------------------------------------------------------
 Center     Atomic      Atomic             Coordinates (Angstroms)
 Number     Number       Type             X           Y           Z
 ---------------------------------------------------------------------
      1          6           0        3.506988   -0.652309   -0.032167
      2          8           0        2.252339   -0.182431   -0.466993
      3          6           0        1.188467   -0.647043    0.322536
      4          6           0       -0.115412   -0.023276   -0.201139
      5          6           0       -1.334512   -0.660466    0.512579
      6          6           0       -2.664447   -0.197602   -0.046830
      7          8           0       -3.570033   -0.939716   -0.328916
      8          6           0       -0.103959    1.430804   -0.049775
      9          6           0       -0.113639    2.622071    0.109750
     10          1           0        3.564606   -1.751933   -0.062128
     11          1           0        4.259932   -0.240575   -0.707869
     12          1           0        3.731280   -0.324011    0.994688
     13          1           0        1.111484   -1.746405    0.267943
     14          1           0        1.331979   -0.375087    1.381753
     15          1           0       -0.169358   -0.265104   -1.270972
     16          1           0       -1.297847   -1.751277    0.445001
     17          1           0       -1.305635   -0.380677    1.574935
     18          1           0       -2.755914    0.902093   -0.177415
     19          1           0       -0.109886    3.677086    0.231612
 ---------------------------------------------------------------------

 SCF Done:  E(RB3LYP) =  -423.139620192     A.U. after    1 cycles

 The electronic state is 1-A.
 Alpha  occ. eigenvalues --  -19.14969 -19.14069 -10.27255 -10.24404 -10.23137
 Alpha  occ. eigenvalues --  -10.22934 -10.20600 -10.18789 -10.17916  -1.04738
 Alpha  occ. eigenvalues --   -1.04502  -0.83601  -0.74220  -0.73435  -0.67201
 Alpha  occ. eigenvalues --   -0.62864  -0.58192  -0.53676  -0.50767  -0.49853
 Alpha  occ. eigenvalues --   -0.47445  -0.47144  -0.45420  -0.43327  -0.41684
 Alpha  occ. eigenvalues --   -0.39780  -0.38957  -0.37657  -0.36145  -0.32954
 Alpha  occ. eigenvalues --   -0.27939  -0.27372  -0.26447  -0.24783
 Alpha virt. eigenvalues --   -0.02413   0.04210   0.04616   0.09023   0.10516
 Alpha virt. eigenvalues --    0.11792   0.12390   0.12889   0.14126   0.15291
 Alpha virt. eigenvalues --    0.15579   0.16520   0.17347   0.19182   0.20897

 Mulliken charges:
               1
     1  C   -0.230517
     2  O   -0.229258
     3  C   -0.051028
     4  C   -0.196585
     5  C   -0.290543
     6  C    0.151898
     7  O   -0.240829
     8  C    0.350592
     9  C   -0.478801
    10  H    0.105711
    11  H    0.132797
    12  H    0.108489
    13  H    0.090236
    14  H    0.095089
    15  H    0.127768
    16  H    0.124302
    17  H    0.132538
    18  H    0.096093
    19  H    0.202046
 Sum of Mulliken charges =   0.00000

 Dipole moment (field-independent basis, Debye):
    X=              2.6691    Y=              0.1849    Z=              1.4661  Tot=              3.0509
 Quadrupole moment (field-independent basis, Debye-Ang):
   XX=            -61.5359   YY=            -49.9472   ZZ=            -53.3439
   XY=             -6.7975   XZ=             -0.8114   YZ=             -0.0422

  Exact polarizability:  89.589   1.157  91.408   1.876   1.665  57.322
 Approx polarizability: 108.833   6.938 143.829   3.930   6.266  89.410

                      1                      2                      3
                      A                      A                      A
 Frequencies --     51.1310                62.1576                82.5740
 Red. masses --      4.7119                 2.9956                 2.9220
 Frc consts  --      0.0073                 0.0068                 0.0117
 IR Inten    --      4.1507                 4.5890                 2.6164

                      4                      5                      6
                      A                      A                      A
 Frequencies --     99.4789               131.5249               160.7612
 Red. masses --      2.4599                 3.2340                 2.6217
 Frc consts  --      0.0143                 0.0330                 0.0399
 IR Inten    --      0.7489                 3.4563                 0.3856

                      7                      8                      9
                      A                      A                      A
 Frequencies --    226.3253               238.7061               286.9277
 Red. masses --      2.2772                 1.5159                 3.2457
 Frc consts  --      0.0687                 0.0509                 0.1574
 IR Inten    --      0.6166                 3.3526                 1.3818

                     10                     11                     12
                      A                      A                      A
 Frequencies --    336.2491               410.2044               475.0854
 Red. masses --      5.3536                 3.7826                 5.4076
 Frc consts  --      0.3566                 0.3750                 0.7191
 IR Inten    --      1.3565                 3.3225                 8.5371

                     13                     14                     15
                      A                      A                      A
 Frequencies --    547.8817               605.1287               638.4085
 Red. masses --      2.5213                 2.5974                 1.2175
 Frc consts  --      0.4459                 0.5604                 0.2924
 IR Inten    --      3.3080                 7.7555                41.7436

                     16                     17                     18
                      A                      A                      A
 Frequencies --    644.9577               808.0962               822.5450
 Red. masses --      1.2170                 2.2456                 2.2865
 Frc consts  --      0.2983                 0.8640                 0.9115
 IR Inten    --     47.0743                 1.1033                 2.5866

                     19                     20                     21
                      A                      A                      A
 Frequencies --    955.2718               983.8912              1025.7772
 Red. masses --      1.6190                 3.6752                 3.5293
 Frc consts  --      0.8704                 2.0961                 2.1880
 IR Inten    --      2.0238                31.5124                14.0494

                     22                     23                     24
                      A                      A                      A
 Frequencies --   1084.7288              1103.4069              1120.8732
 Red. masses --      2.6076                 1.9628                 2.7087
 Frc consts  --      1.8077                 1.4080                 2.0051
 IR Inten    --     13.2234                 1.2565                21.3184

                     25                     26                     27
                      A                      A                      A
 Frequencies --   1167.6851              1183.4610              1210.5562
 Red. masses --      4.4922                 1.2860                 1.3774
 Frc consts  --      3.6088                 1.0612                 1.1893
 IR Inten    --    158.1838                 3.7209                 4.4239

                     28                     29                     30
                      A                      A                      A
 Frequencies --   1230.4801              1256.4859              1280.2251
 Red. masses --      1.5870                 1.1873                 1.2584
 Frc consts  --      1.4157                 1.1044                 1.2152
 IR Inten    --     46.3379                 4.7562                 3.0799

                     31                     32                     33
                      A                      A                      A
 Frequencies --   1326.0570              1368.6893              1413.8328
 Red. masses --      1.3928                 1.4079                 1.3187
 Frc consts  --      1.4430                 1.5540                 1.5530
 IR Inten    --      3.2788                11.4674                27.7390

                     34                     35                     36
                      A                      A                      A
 Frequencies --   1426.2175              1457.4052              1479.8152
 Red. masses --      1.2032                 1.0895                 1.1513
 Frc consts  --      1.4420                 1.3634                 1.4854
 IR Inten    --     13.5651                 4.5590                 1.5326

                     37                     38                     39
                      A                      A                      A
 Frequencies --   1486.4245              1500.9158              1525.2835
 Red. masses --      1.0465                 1.0594                 1.0944
 Frc consts  --      1.3623                 1.4062                 1.5001
 IR Inten    --      5.5222                10.6188                 1.2888

                     40                     41                     42
                      A                      A                      A
 Frequencies --   1831.8737              2236.0277              2908.6718
 Red. masses --      9.9246                 5.9196                 1.0836
 Frc consts  --     19.6225                17.4381                 5.4015
 IR Inten    --    189.8329                 0.3338                67.9461

                     43                     44                     45
                      A                      A                      A
 Frequencies --   2950.9589              2973.9695              2985.5996
 Red. masses --      1.0525                 1.0390                 1.1035
 Frc consts  --      5.4003                 5.4143                 5.7952
 IR Inten    --     38.9401                73.7140                43.3169

                     46                     47                     48
                      A                      A                      A
 Frequencies --   3018.2656              3019.1370              3031.8046
 Red. masses --      1.0993                 1.0735                 1.0771
 Frc consts  --      5.9007                 5.7650                 5.8331
 IR Inten    --     55.1893                 2.3006                18.9020

                     49                     50                     51
                      A                      A                      A
 Frequencies --   3102.8196              3120.1529              3503.3550
 Red. masses --      1.0974                 1.0960                 1.1623
 Frc consts  --      6.2250                 6.2867                 8.4052
 IR Inten    --     14.3561                25.6108                66.1905

 - Thermochemistry -
 -------------------
 Temperature   298.150 Kelvin.  Pressure   1.00000 Atm.
 Atom     1 has atomic number  6 and mass  12.00000

 Molecular mass:   126.06808 amu.
 Principal axes and moments of inertia in atomic units:
                           1         2         3
     Eigenvalues --   641.586302262.991642774.85634
           X            0.99970  -0.02431   0.00157
           Y            0.02432   0.99965  -0.00997
           Z           -0.00133   0.01000   0.99995
 This molecule is an asymmetric top.
 Rotational symmetry number  1.
 Warning -- assumption of classical behavior for rotation
           may cause significant error
 Rotational temperatures (Kelvin)      0.13500     0.03827     0.03121
 Rotational constants (GHZ):           2.81294     0.79750     0.65039
 Zero-point vibrational energy     406121.8 (Joules/Mol)
                                   97.06544 (Kcal/Mol)
 Warning -- explicit consideration of  14 degrees of freedom as
           vibrations may cause significant error
 Vibrational temperatures:     73.57    89.43   118.81   143.13   189.23
          (Kelvin)            231.30   325.63   343.44   412.82   483.79
                              590.19   683.54   788.28   870.64   918.53
                              927.95  1162.67  1183.46  1374.42  1415.60
                             1475.86  1560.68  1587.55  1612.68  1680.04
                             1702.73  1741.72  1770.38  1807.80  1841.96
                             1907.90  1969.24  2034.19  2052.01  2096.88
                             2129.12  2138.63  2159.48  2194.54  2635.65
                             3217.14  4184.92  4245.77  4278.87  4295.61
                             4342.61  4343.86  4362.09  4464.26  4489.20
                             5040.54

 Zero-point correction=                           0.154684 (Hartree/Particle)
 Thermal correction to Energy=                    0.165459
 Thermal correction to Enthalpy=                  0.166403
 Thermal correction to Gibbs Free Energy=         0.117371
 Sum of electronic and zero-point Energies=           -422.984937
 Sum of electronic and thermal Energies=              -422.974161
 Sum of electronic and thermal Enthalpies=            -422.973217
 Sum of electronic and thermal Free Energies=         -423.022249

                     E (Thermal)             CV                S
                      KCal/Mol        Cal/Mol-Kelvin    Cal/Mol-Kelvin
 Total                  103.827             36.609            103.198
 Electronic               0.000              0.000              0.000
 Translational            0.889              2.981             40.409
 Rotational               0.889              2.981             29.778
 Vibrational            102.050             30.648             33.011
 Vibration     1          0.595              1.977              4.773
 Vibration     2          0.597              1.972              4.387
 Vibration     3          0.600              1.961              3.829
 Vibration     4          0.604              1.949              3.465
 Vibration     5          0.612              1.922              2.924
 Vibration     6          0.622              1.890              2.541
 Vibration     7          0.650              1.801              1.908
 Vibration     8          0.657              1.781              1.813
 Vibration     9          0.684              1.698              1.492
 Vibration    10          0.717              1.603              1.230
 Vibration    11          0.774              1.448              0.926
 Vibration    12          0.832              1.305              0.723
 Vibration    13          0.903              1.144              0.549
 Vibration    14          0.964              1.021              0.441

 Normal termination of Gaussian 09 at Tue Jan 28 12:44:00 2020.
