 Gaussian 09, Revision D.01,
 Gaussian 09:  ES64L-G09RevD.01 24-Apr-2013

 -----------------------------
 # b3lyp 6-31G(2df,p) opt Freq
 -----------------------------

 -----
 titel
 -----
 Symbolic Z-matrix:
 Charge =  0 Multiplicity = 1

 SCF Done:  E(RB3LYP) =  -423.130556579     A.U. after   14 cycles
 Optimization completed.
    -- Stationary point found.
 Normal termination of Gaussian 09 at Tue Jan 28 08:12:03 2020.

 ----------------------------------------------------------------------
 #N Geom=AllCheck Guess=TCheck SCRF=Check GenChk RB3LYP/6-31G(2df,p) Fr
 eq
 ----------------------------------------------------------------------

 Structure from the checkpoint file:  "/scratch/puck/g09_876a30a3-0cc8-41e1-b25e-07157dc78659/Gau-102115.chk"
 -----
 titel
 -----
 Charge =  0 Multiplicity = 1

                         Standard orientation:
 ---------------------------------------------------------------------
 Center     Atomic      Atomic             Coordinates (Angstroms)
 Number     Number       Type             X           Y           Z
 ---------------------------------------------------------------------
      1          6           0       -2.595509    1.668312    0.092261
      2          6           0       -1.859062    0.441862   -0.397141
      3          8           0       -2.662511   -0.759615   -0.340466
      4          6           0       -1.595090   -1.505053    0.270340
      5          6           0       -0.781853   -0.207135    0.526647
      6          6           0        0.610003   -0.153964    0.138429
      7          6           0        1.764080   -0.126678   -0.210440
      8          6           0        3.172344   -0.044388   -0.596506
      9          8           0        4.036568    0.309164    0.474769
     10          1           0       -3.453433    1.879503   -0.553759
     11          1           0       -2.962468    1.519651    1.112427
     12          1           0       -1.933296    2.540712    0.077376
     13          1           0       -1.471798    0.598577   -1.413772
     14          1           0       -1.927570   -2.061029    1.152826
     15          1           0       -1.109087   -2.190660   -0.435062
     16          1           0       -0.905376    0.137387    1.558527
     17          1           0        3.523338   -1.020090   -0.950885
     18          1           0        3.276507    0.654203   -1.442526
     19          1           0        3.681249    1.107606    0.878887
 ---------------------------------------------------------------------

 SCF Done:  E(RB3LYP) =  -423.130556579     A.U. after    1 cycles

 The electronic state is 1-A.
 Alpha  occ. eigenvalues --  -19.14220 -19.13478 -10.25374 -10.24238 -10.23655
 Alpha  occ. eigenvalues --  -10.21714 -10.18367 -10.18256 -10.17927  -1.04251
 Alpha  occ. eigenvalues --   -1.02392  -0.79654  -0.75861  -0.74225  -0.68301
 Alpha  occ. eigenvalues --   -0.64725  -0.57334  -0.53836  -0.51317  -0.48524
 Alpha  occ. eigenvalues --   -0.47147  -0.46609  -0.44528  -0.42281  -0.40602
 Alpha  occ. eigenvalues --   -0.38802  -0.37828  -0.35890  -0.34119  -0.32695
 Alpha  occ. eigenvalues --   -0.28714  -0.26225  -0.25346  -0.25098
 Alpha virt. eigenvalues --    0.02618   0.03867   0.08772   0.09710   0.10975
 Alpha virt. eigenvalues --    0.11935   0.12592   0.12956   0.15311   0.16480
 Alpha virt. eigenvalues --    0.16879   0.18032   0.18423   0.21217   0.21748

 Mulliken charges:
               1
     1  C   -0.409431
     2  C    0.169190
     3  O   -0.291259
     4  C   -0.077932
     5  C   -0.242841
     6  C    0.054271
     7  C    0.065737
     8  C   -0.192746
     9  O   -0.401060
    10  H    0.132248
    11  H    0.121157
    12  H    0.122101
    13  H    0.079442
    14  H    0.110896
    15  H    0.107357
    16  H    0.106822
    17  H    0.141248
    18  H    0.117839
    19  H    0.286963
 Sum of Mulliken charges =   0.00000

 Dipole moment (field-independent basis, Debye):
    X=             -0.1450    Y=              1.3848    Z=              0.2007  Tot=              1.4068
 Quadrupole moment (field-independent basis, Debye-Ang):
   XX=            -64.3675   YY=            -49.5045   ZZ=            -51.3379
   XY=              0.0799   XZ=             -4.5541   YZ=              0.3698

  Exact polarizability: 110.660  -0.854  71.738  -7.075  -0.572  63.855
 Approx polarizability: 152.909   1.469  97.981 -12.889  -0.529  96.471

                      1                      2                      3
                      A                      A                      A
 Frequencies --     16.7224                65.8858                85.8636
 Red. masses --      3.1747                 3.8095                 3.6617
 Frc consts  --      0.0005                 0.0097                 0.0159
 IR Inten    --      1.7267                 0.7586                 1.5912

                      4                      5                      6
                      A                      A                      A
 Frequencies --    123.8594               191.0851               212.1707
 Red. masses --      3.1615                 3.5159                 1.2900
 Frc consts  --      0.0286                 0.0756                 0.0342
 IR Inten    --      4.1474                 1.3805                 4.6063

                      7                      8                      9
                      A                      A                      A
 Frequencies --    247.2808               291.9763               338.7317
 Red. masses --      1.8021                 1.8294                 1.7587
 Frc consts  --      0.0649                 0.0919                 0.1189
 IR Inten    --     12.1643                36.9249                78.3457

                     10                     11                     12
                      A                      A                      A
 Frequencies --    413.6130               481.1466               501.4137
 Red. masses --      3.4968                 5.7092                 5.0899
 Frc consts  --      0.3525                 0.7787                 0.7540
 IR Inten    --      8.0371                 0.4167                 4.5699

                     13                     14                     15
                      A                      A                      A
 Frequencies --    551.9614               650.1986               802.4353
 Red. masses --      4.2871                 3.7237                 2.5340
 Frc consts  --      0.7695                 0.9275                 0.9613
 IR Inten    --      8.6767                 3.7666                 2.8851

                     16                     17                     18
                      A                      A                      A
 Frequencies --    877.3893               895.1678               930.5305
 Red. masses --      2.4748                 2.8481                 1.5976
 Frc consts  --      1.1225                 1.3446                 0.8150
 IR Inten    --     22.0275                10.8508                 2.6096

                     19                     20                     21
                      A                      A                      A
 Frequencies --    988.5080              1011.1108              1033.9864
 Red. masses --      1.6125                 3.3508                 4.7874
 Frc consts  --      0.9283                 2.0184                 3.0157
 IR Inten    --     30.4922                25.9477                81.7301

                     22                     23                     24
                      A                      A                      A
 Frequencies --   1051.6502              1092.5322              1119.6597
 Red. masses --      5.9668                 1.9211                 2.5131
 Frc consts  --      3.8881                 1.3510                 1.8563
 IR Inten    --     78.3303                21.4054                12.8386

                     25                     26                     27
                      A                      A                      A
 Frequencies --   1134.5054              1170.3023              1186.2152
 Red. masses --      2.1521                 1.1860                 2.2911
 Frc consts  --      1.6320                 0.9570                 1.8994
 IR Inten    --      4.6625                 2.0748                 7.1575

                     28                     29                     30
                      A                      A                      A
 Frequencies --   1215.5815              1228.3734              1279.7436
 Red. masses --      1.0942                 1.3481                 1.2727
 Frc consts  --      0.9526                 1.1985                 1.2281
 IR Inten    --     17.9099                 3.0434                 5.8579

                     31                     32                     33
                      A                      A                      A
 Frequencies --   1324.3985              1357.9720              1364.9929
 Red. masses --      1.4334                 1.2229                 1.4072
 Frc consts  --      1.4814                 1.3286                 1.5448
 IR Inten    --     25.6951                 4.7076                 3.7820

                     34                     35                     36
                      A                      A                      A
 Frequencies --   1392.4106              1408.2161              1419.4522
 Red. masses --      1.3491                 1.4744                 1.2505
 Frc consts  --      1.5411                 1.7227                 1.4845
 IR Inten    --      4.2705                23.0525               106.4311

                     37                     38                     39
                      A                      A                      A
 Frequencies --   1479.7962              1491.2307              1493.7078
 Red. masses --      1.0527                 1.0786                 1.0495
 Frc consts  --      1.3582                 1.4132                 1.3797
 IR Inten    --      3.5719                 0.8025                 2.9189

                     40                     41                     42
                      A                      A                      A
 Frequencies --   1525.4425              2354.8164              2973.0303
 Red. masses --      1.1053                11.8933                 1.0716
 Frc consts  --      1.5154                38.8566                 5.5806
 IR Inten    --      1.0828                 9.3881                48.0874

                     43                     44                     45
                      A                      A                      A
 Frequencies --   3003.4534              3021.3112              3034.5585
 Red. masses --      1.0826                 1.0595                 1.0350
 Frc consts  --      5.7537                 5.6985                 5.6152
 IR Inten    --     42.0509                55.3300                 9.8613

                     46                     47                     48
                      A                      A                      A
 Frequencies --   3052.1295              3061.0771              3079.5296
 Red. masses --      1.0850                 1.0880                 1.1073
 Frc consts  --      5.9552                 6.0066                 6.1870
 IR Inten    --      7.9902                17.7956                48.9261

                     49                     50                     51
                      A                      A                      A
 Frequencies --   3108.4173              3113.9377              3817.4747
 Red. masses --      1.1008                 1.1024                 1.0663
 Frc consts  --      6.2669                 6.2983                 9.1552
 IR Inten    --     16.7863                25.0437                19.7959

 - Thermochemistry -
 -------------------
 Temperature   298.150 Kelvin.  Pressure   1.00000 Atm.
 Atom     1 has atomic number  6 and mass  12.00000

 Molecular mass:   126.06808 amu.
 Principal axes and moments of inertia in atomic units:
                           1         2         3
     Eigenvalues --   453.857402836.911573091.08477
           X            0.99988  -0.01183  -0.00996
           Y            0.01182   0.99993  -0.00178
           Z            0.00998   0.00167   0.99995
 This molecule is an asymmetric top.
 Rotational symmetry number  1.
 Warning -- assumption of classical behavior for rotation
           may cause significant error
 Rotational temperatures (Kelvin)      0.19084     0.03053     0.02802
 Rotational constants (GHZ):           3.97645     0.63616     0.58385
 Zero-point vibrational energy     413112.1 (Joules/Mol)
                                   98.73617 (Kcal/Mol)
 Warning -- explicit consideration of  13 degrees of freedom as
           vibrations may cause significant error
 Vibrational temperatures:     24.06    94.79   123.54   178.21   274.93
          (Kelvin)            305.27   355.78   420.09   487.36   595.10
                              692.26   721.42   794.15   935.49  1154.52
                             1262.37  1287.95  1338.82  1422.24  1454.76
                             1487.67  1513.09  1571.91  1610.94  1632.30
                             1683.80  1706.70  1748.95  1767.35  1841.26
                             1905.51  1953.82  1963.92  2003.37  2026.11
                             2042.27  2129.09  2145.55  2149.11  2194.77
                             3388.05  4277.52  4321.29  4346.99  4366.05
                             4391.33  4404.20  4430.75  4472.31  4480.26
                             5492.49

 Zero-point correction=                           0.157346 (Hartree/Particle)
 Thermal correction to Energy=                    0.167426
 Thermal correction to Enthalpy=                  0.168370
 Thermal correction to Gibbs Free Energy=         0.120099
 Sum of electronic and zero-point Energies=           -422.973210
 Sum of electronic and thermal Energies=              -422.963130
 Sum of electronic and thermal Enthalpies=            -422.962186
 Sum of electronic and thermal Free Energies=         -423.010458

                     E (Thermal)             CV                S
                      KCal/Mol        Cal/Mol-Kelvin    Cal/Mol-Kelvin
 Total                  105.062             34.919            101.596
 Electronic               0.000              0.000              0.000
 Translational            0.889              2.981             40.409
 Rotational               0.889              2.981             29.766
 Vibrational            103.284             28.958             31.421
 Vibration     1          0.593              1.986              6.990
 Vibration     2          0.597              1.971              4.273
 Vibration     3          0.601              1.959              3.752
 Vibration     4          0.610              1.929              3.039
 Vibration     5          0.634              1.852              2.217
 Vibration     6          0.643              1.822              2.025
 Vibration     7          0.661              1.767              1.750
 Vibration     8          0.687              1.689              1.462
 Vibration     9          0.719              1.598              1.218
 Vibration    10          0.777              1.441              0.914
 Vibration    11          0.837              1.292              0.707
 Vibration    12          0.857              1.247              0.655
 Vibration    13          0.907              1.135              0.540

 Optimization completed on the basis of negligible forces.
    -- Stationary point found.
 Normal termination of Gaussian 09 at Tue Jan 28 08:46:02 2020.
