 Gaussian 09, Revision D.01,
 Gaussian 09:  ES64L-G09RevD.01 24-Apr-2013

 -----------------------------
 # b3lyp 6-31G(2df,p) opt Freq
 -----------------------------

 -----
 titel
 -----
 Symbolic Z-matrix:
 Charge =  0 Multiplicity = 1

 SCF Done:  E(RB3LYP) =  -423.156631986     A.U. after   14 cycles
 Optimization completed.
    -- Stationary point found.
 Normal termination of Gaussian 09 at Mon Jan 27 13:10:36 2020.

 ----------------------------------------------------------------------
 #N Geom=AllCheck Guess=TCheck SCRF=Check GenChk RB3LYP/6-31G(2df,p) Fr
 eq
 ----------------------------------------------------------------------

 Structure from the checkpoint file:  "/scratch/puck/g09_c14b54cf-fdb4-4711-963d-7cd1257a189f/Gau-74605.chk"
 -----
 titel
 -----
 Charge =  0 Multiplicity = 1

                         Standard orientation:
 ---------------------------------------------------------------------
 Center     Atomic      Atomic             Coordinates (Angstroms)
 Number     Number       Type             X           Y           Z
 ---------------------------------------------------------------------
      1          8           0        1.354950    2.126875   -0.038560
      2          6           0        1.653322    1.003286   -0.353947
      3          6           0        0.986969   -0.230952    0.176021
      4          6           0       -0.318757   -0.073990    0.925639
      5          6           0       -1.442844    0.471237    0.065242
      6          6           0       -2.176133   -0.442437   -0.884179
      7          6           0       -2.868572    0.075280    0.352264
      8          6           0        1.898022   -1.370777    0.435968
      9          8           0        1.101209   -1.341457   -0.734595
     10          1           0        2.467021    0.783427   -1.080768
     11          1           0       -0.602013   -1.052359    1.329494
     12          1           0       -0.144064    0.593221    1.778068
     13          1           0       -1.286992    1.491734   -0.268541
     14          1           0       -2.478490   -0.048355   -1.847970
     15          1           0       -1.880513   -1.485535   -0.905077
     16          1           0       -3.642674    0.825606    0.236369
     17          1           0       -3.048636   -0.622813    1.163836
     18          1           0        2.971491   -1.268162    0.278810
     19          1           0        1.603558   -2.089996    1.198975
 ---------------------------------------------------------------------

 SCF Done:  E(RB3LYP) =  -423.156631986     A.U. after    1 cycles

 The electronic state is 1-A.
 Alpha  occ. eigenvalues --  -19.17327 -19.14967 -10.27800 -10.25683 -10.25488
 Alpha  occ. eigenvalues --  -10.19656 -10.18975 -10.18236 -10.18025  -1.09443
 Alpha  occ. eigenvalues --   -1.05493  -0.85684  -0.76440  -0.69011  -0.66759
 Alpha  occ. eigenvalues --   -0.59690  -0.58633  -0.55144  -0.51377  -0.49766
 Alpha  occ. eigenvalues --   -0.48355  -0.46061  -0.45110  -0.42786  -0.40242
 Alpha  occ. eigenvalues --   -0.39818  -0.39097  -0.36172  -0.35979  -0.31573
 Alpha  occ. eigenvalues --   -0.30091  -0.28628  -0.28086  -0.25659
 Alpha virt. eigenvalues --   -0.03737   0.08705   0.09751   0.10375   0.10919
 Alpha virt. eigenvalues --    0.12202   0.13697   0.14394   0.14857   0.15807
 Alpha virt. eigenvalues --    0.16279   0.17561   0.18876   0.22560   0.23186

 Mulliken charges:
               1
     1  O   -0.257029
     2  C    0.125593
     3  C    0.322636
     4  C   -0.322801
     5  C    0.026094
     6  C   -0.249528
     7  C   -0.280434
     8  C   -0.226289
     9  O   -0.258214
    10  H    0.088537
    11  H    0.100157
    12  H    0.121092
    13  H    0.106480
    14  H    0.111985
    15  H    0.119475
    16  H    0.113077
    17  H    0.107661
    18  H    0.123381
    19  H    0.128126
 Sum of Mulliken charges =   0.00000

 Dipole moment (field-independent basis, Debye):
    X=              0.5235    Y=             -1.6718    Z=              1.1342  Tot=              2.0870
 Quadrupole moment (field-independent basis, Debye-Ang):
   XX=            -49.2327   YY=            -58.7163   ZZ=            -52.7306
   XY=             -3.9541   XZ=              1.1452   YZ=             -3.7457

  Exact polarizability:  85.579  -5.018  78.135  -1.962  -2.008  64.816
 Approx polarizability: 107.615  -7.895 127.136  -2.170   3.333 100.570

                      1                      2                      3
                      A                      A                      A
 Frequencies --     57.9778                81.0040               130.4925
 Red. masses --      3.3055                 3.7447                 4.2234
 Frc consts  --      0.0065                 0.0145                 0.0424
 IR Inten    --      0.8323                 0.2246                 6.9598

                      4                      5                      6
                      A                      A                      A
 Frequencies --    150.7364               231.2245               317.1078
 Red. masses --      2.8882                 3.7417                 3.3451
 Frc consts  --      0.0387                 0.1179                 0.1982
 IR Inten    --      4.6481                 6.1632                 2.3680

                      7                      8                      9
                      A                      A                      A
 Frequencies --    333.0180               371.8638               389.6660
 Red. masses --      2.3054                 2.1447                 2.9772
 Frc consts  --      0.1506                 0.1747                 0.2663
 IR Inten    --      0.8637                 0.2932                11.6844

                     10                     11                     12
                      A                      A                      A
 Frequencies --    485.8818               543.7415               767.4667
 Red. masses --      2.9047                 5.6007                 2.0947
 Frc consts  --      0.4040                 0.9756                 0.7269
 IR Inten    --      5.3689                 6.1458                 2.9845

                     13                     14                     15
                      A                      A                      A
 Frequencies --    775.8074               821.9144               831.6023
 Red. masses --      1.2357                 2.7348                 1.8219
 Frc consts  --      0.4382                 1.0885                 0.7423
 IR Inten    --      0.8197                12.0045                19.6260

                     16                     17                     18
                      A                      A                      A
 Frequencies --    855.2740               882.3714               899.5250
 Red. masses --      2.4371                 2.0785                 1.6015
 Frc consts  --      1.0503                 0.9535                 0.7635
 IR Inten    --      1.2152                38.1231                 2.7579

                     19                     20                     21
                      A                      A                      A
 Frequencies --    956.6852               971.2527              1005.0196
 Red. masses --      2.6565                 2.2946                 2.1532
 Frc consts  --      1.4325                 1.2753                 1.2814
 IR Inten    --     15.9472                 4.3544                 5.3649

                     22                     23                     24
                      A                      A                      A
 Frequencies --   1050.4659              1058.8974              1078.1053
 Red. masses --      2.2741                 1.3782                 1.3616
 Frc consts  --      1.4785                 0.9105                 0.9325
 IR Inten    --      8.0155                 4.7335                 2.0394

                     25                     26                     27
                      A                      A                      A
 Frequencies --   1127.2448              1135.7531              1148.8381
 Red. masses --      1.4511                 1.3172                 1.1550
 Frc consts  --      1.0864                 1.0011                 0.8981
 IR Inten    --      2.5783                 3.2587                 1.3646

                     28                     29                     30
                      A                      A                      A
 Frequencies --   1164.6764              1199.8640              1226.9294
 Red. masses --      1.3465                 1.4064                 1.7633
 Frc consts  --      1.0762                 1.1929                 1.5639
 IR Inten    --      3.1967                 0.4710                 0.3715

                     31                     32                     33
                      A                      A                      A
 Frequencies --   1254.2873              1307.6122              1332.3434
 Red. masses --      1.8142                 1.7105                 1.9422
 Frc consts  --      1.6816                 1.7232                 2.0313
 IR Inten    --      4.0859                 4.8208                 2.6414

                     34                     35                     36
                      A                      A                      A
 Frequencies --   1355.6674              1410.4824              1434.9659
 Red. masses --      2.0091                 1.4819                 1.6117
 Frc consts  --      2.1754                 1.7370                 1.9554
 IR Inten    --      6.4532                 1.9525                 3.3249

                     37                     38                     39
                      A                      A                      A
 Frequencies --   1460.1635              1474.5240              1509.3676
 Red. masses --      1.1039                 1.0898                 1.3664
 Frc consts  --      1.3867                 1.3961                 1.8341
 IR Inten    --      8.0461                 0.4681                 2.0135

                     40                     41                     42
                      A                      A                      A
 Frequencies --   1522.6757              1824.7874              2890.8780
 Red. masses --      1.2448                10.7016                 1.0844
 Frc consts  --      1.7004                20.9954                 5.3396
 IR Inten    --      0.8688               163.4511                91.6228

                     43                     44                     45
                      A                      A                      A
 Frequencies --   3034.1557              3078.1620              3080.7110
 Red. masses --      1.0590                 1.1002                 1.0521
 Frc consts  --      5.7441                 6.1419                 5.8831
 IR Inten    --     15.6721                11.9736                23.1267

                     46                     47                     48
                      A                      A                      A
 Frequencies --   3129.5038              3138.8106              3167.3411
 Red. masses --      1.0528                 1.0566                 1.0896
 Frc consts  --      6.0750                 6.1330                 6.4401
 IR Inten    --     20.0007                 9.5490                 3.4822

                     49                     50                     51
                      A                      A                      A
 Frequencies --   3169.9294              3208.7735              3225.9540
 Red. masses --      1.1192                 1.1172                 1.1151
 Frc consts  --      6.6258                 6.7776                 6.8370
 IR Inten    --     17.1989                 2.2257                18.2095

 - Thermochemistry -
 -------------------
 Temperature   298.150 Kelvin.  Pressure   1.00000 Atm.
 Atom     1 has atomic number  8 and mass  15.99491

 Molecular mass:   126.06808 amu.
 Principal axes and moments of inertia in atomic units:
                           1         2         3
     Eigenvalues --   723.021741491.073311876.29019
           X            0.99977  -0.02109   0.00401
           Y            0.02121   0.99923  -0.03313
           Z           -0.00331   0.03321   0.99944
 This molecule is an asymmetric top.
 Rotational symmetry number  1.
 Warning -- assumption of classical behavior for rotation
           may cause significant error
 Rotational temperatures (Kelvin)      0.11979     0.05809     0.04616
 Rotational constants (GHZ):           2.49611     1.21036     0.96187
 Zero-point vibrational energy     413079.5 (Joules/Mol)
                                   98.72837 (Kcal/Mol)
 Warning -- explicit consideration of  11 degrees of freedom as
           vibrations may cause significant error
 Vibrational temperatures:     83.42   116.55   187.75   216.88   332.68
          (Kelvin)            456.25   479.14   535.03   560.64   699.07
                              782.32  1104.21  1116.21  1182.55  1196.49
                             1230.55  1269.53  1294.21  1376.45  1397.41
                             1446.00  1511.38  1523.52  1551.15  1621.85
                             1634.09  1652.92  1675.71  1726.33  1765.28
                             1804.64  1881.36  1916.94  1950.50  2029.37
                             2064.59  2100.85  2121.51  2171.64  2190.79
                             2625.46  4159.32  4365.47  4428.78  4432.45
                             4502.65  4516.04  4557.09  4560.82  4616.70
                             4641.42

 Zero-point correction=                           0.157334 (Hartree/Particle)
 Thermal correction to Energy=                    0.166348
 Thermal correction to Enthalpy=                  0.167292
 Thermal correction to Gibbs Free Energy=         0.122841
 Sum of electronic and zero-point Energies=           -422.999298
 Sum of electronic and thermal Energies=              -422.990284
 Sum of electronic and thermal Enthalpies=            -422.989339
 Sum of electronic and thermal Free Energies=         -423.033791

                     E (Thermal)             CV                S
                      KCal/Mol        Cal/Mol-Kelvin    Cal/Mol-Kelvin
 Total                  104.385             33.049             93.556
 Electronic               0.000              0.000              0.000
 Translational            0.889              2.981             40.409
 Rotational               0.889              2.981             29.094
 Vibrational            102.608             27.087             24.054
 Vibration     1          0.596              1.974              4.525
 Vibration     2          0.600              1.962              3.866
 Vibration     3          0.612              1.923              2.939
 Vibration     4          0.618              1.902              2.663
 Vibration     5          0.653              1.793              1.869
 Vibration     6          0.704              1.641              1.325
 Vibration     7          0.715              1.610              1.245
 Vibration     8          0.744              1.530              1.072
 Vibration     9          0.758              1.492              1.001
 Vibration    10          0.842              1.281              0.694
 Vibration    11          0.899              1.153              0.557

 Optimization completed.
    -- Stationary point found.
 Normal termination of Gaussian 09 at Mon Jan 27 13:51:16 2020.
