 Gaussian 09, Revision D.01,
 Gaussian 09:  ES64L-G09RevD.01 24-Apr-2013

 -----------------------------
 # b3lyp 6-31G(2df,p) opt Freq
 -----------------------------

 -----
 titel
 -----
 Symbolic Z-matrix:
 Charge =  0 Multiplicity = 1

 SCF Done:  E(RB3LYP) =  -423.160776512     A.U. after   14 cycles
 Optimization completed.
    -- Stationary point found.
 Normal termination of Gaussian 09 at Mon Jan 27 14:08:55 2020.

 ----------------------------------------------------------------------
 #N Geom=AllCheck Guess=TCheck SCRF=Check GenChk RB3LYP/6-31G(2df,p) Fr
 eq
 ----------------------------------------------------------------------

 Structure from the checkpoint file:  "/scratch/puck/g09_4e8747de-28bf-4828-9bff-42187a480301/Gau-4429.chk"
 -----
 titel
 -----
 Charge =  0 Multiplicity = 1

                         Standard orientation:
 ---------------------------------------------------------------------
 Center     Atomic      Atomic             Coordinates (Angstroms)
 Number     Number       Type             X           Y           Z
 ---------------------------------------------------------------------
      1          6           0        3.648792   -0.000017   -0.581527
      2          6           0        2.319937   -0.000001    0.013223
      3          6           0        1.218441    0.000024    0.498979
      4          6           0       -0.112744    0.000031    1.096804
      5          6           0       -0.938232    1.242701    0.688208
      6          8           0       -1.325396    1.169174   -0.672365
      7          6           0       -2.056115   -0.000032   -0.930069
      8          8           0       -1.325357   -1.169207   -0.672321
      9          6           0       -0.938198   -1.242680    0.688263
     10          1           0        3.789587   -0.865617   -1.238247
     11          1           0        3.814580    0.900822   -1.182691
     12          1           0        4.430696   -0.035143    0.185325
     13          1           0       -0.021103    0.000075    2.191952
     14          1           0       -1.831180    1.304645    1.333976
     15          1           0       -0.357698    2.159781    0.803974
     16          1           0       -2.984081   -0.000036   -0.323726
     17          1           0       -2.297286   -0.000053   -1.994446
     18          1           0       -1.831150   -1.304629    1.334024
     19          1           0       -0.357627   -2.159734    0.804054
 ---------------------------------------------------------------------

 SCF Done:  E(RB3LYP) =  -423.160776512     A.U. after    1 cycles

 The electronic state is 1-A.
 Alpha  occ. eigenvalues --  -19.14582 -19.14581 -10.27215 -10.23620 -10.23620
 Alpha  occ. eigenvalues --  -10.21170 -10.19935 -10.16881 -10.16282  -1.07573
 Alpha  occ. eigenvalues --   -1.00817  -0.81419  -0.76380  -0.70210  -0.67922
 Alpha  occ. eigenvalues --   -0.66660  -0.58923  -0.51790  -0.49666  -0.49406
 Alpha  occ. eigenvalues --   -0.46670  -0.45181  -0.44914  -0.42110  -0.42076
 Alpha  occ. eigenvalues --   -0.41195  -0.39906  -0.38301  -0.33476  -0.31954
 Alpha  occ. eigenvalues --   -0.27606  -0.26978  -0.24469  -0.23813
 Alpha virt. eigenvalues --    0.05740   0.06188   0.09491   0.11479   0.12288
 Alpha virt. eigenvalues --    0.12641   0.13215   0.14984   0.16079   0.16896
 Alpha virt. eigenvalues --    0.17614   0.18544   0.19413   0.19449   0.21352

 Mulliken charges:
               1
     1  C   -0.496403
     2  C    0.022157
     3  C    0.131200
     4  C   -0.197877
     5  C   -0.087266
     6  O   -0.229990
     7  C    0.025647
     8  O   -0.230002
     9  C   -0.087268
    10  H    0.149120
    11  H    0.148894
    12  H    0.144673
    13  H    0.100052
    14  H    0.086255
    15  H    0.121175
    16  H    0.071943
    17  H    0.120256
    18  H    0.086254
    19  H    0.121182
 Sum of Mulliken charges =   0.00000

 Dipole moment (field-independent basis, Debye):
    X=              0.0713    Y=              0.0001    Z=              1.4994  Tot=              1.5010
 Quadrupole moment (field-independent basis, Debye-Ang):
   XX=            -45.7015   YY=            -54.8857   ZZ=            -51.3531
   XY=              0.0002   XZ=             -2.8874   YZ=              0.0007

  Exact polarizability: 104.979   0.000  64.781  -8.489  -0.003  70.119
 Approx polarizability: 141.629   0.000  93.548 -18.819  -0.002 106.072

                      1                      2                      3
                      A                      A                      A
 Frequencies --     25.7506                76.1576                97.9628
 Red. masses --      1.0208                 3.8661                 4.0869
 Frc consts  --      0.0004                 0.0132                 0.0231
 IR Inten    --      0.0082                 1.8789                 2.7075

                      4                      5                      6
                      A                      A                      A
 Frequencies --    205.6900               238.3791               292.2914
 Red. masses --      3.3600                 4.1807                 2.7454
 Frc consts  --      0.0838                 0.1400                 0.1382
 IR Inten    --      2.0074                 0.3874                 3.5585

                      7                      8                      9
                      A                      A                      A
 Frequencies --    320.9313               401.7197               439.6479
 Red. masses --      2.7966                 5.0097                 1.8985
 Frc consts  --      0.1697                 0.4763                 0.2162
 IR Inten    --      3.4548                 2.0743                 7.8955

                     10                     11                     12
                      A                      A                      A
 Frequencies --    444.4374               577.7913               589.4697
 Red. masses --      4.8602                 5.3337                 5.8285
 Frc consts  --      0.5656                 1.0491                 1.1933
 IR Inten    --      3.0587                 8.8693                 0.4601

                     13                     14                     15
                      A                      A                      A
 Frequencies --    666.7141               825.4682               891.2683
 Red. masses --      3.0917                 5.7952                 3.1068
 Frc consts  --      0.8097                 2.3266                 1.4541
 IR Inten    --      4.3522                13.6144                 8.1149

                     16                     17                     18
                      A                      A                      A
 Frequencies --    893.7346               952.3576               977.9999
 Red. masses --      2.3081                 2.3212                 4.1981
 Frc consts  --      1.0863                 1.2404                 2.3658
 IR Inten    --      2.3214                35.8415                27.4091

                     19                     20                     21
                      A                      A                      A
 Frequencies --   1046.2406              1051.0006              1052.1918
 Red. masses --      3.2567                 1.7111                 1.4091
 Frc consts  --      2.1004                 1.1136                 0.9191
 IR Inten    --     85.6374                14.1180                 1.7098

                     22                     23                     24
                      A                      A                      A
 Frequencies --   1056.6617              1089.2569              1134.8332
 Red. masses --      1.6083                 2.5978                 2.8827
 Frc consts  --      1.0580                 1.8160                 2.1873
 IR Inten    --     11.3416                 7.3132                29.6244

                     25                     26                     27
                      A                      A                      A
 Frequencies --   1199.4900              1206.5579              1243.4544
 Red. masses --      3.3250                 1.7815                 1.2521
 Frc consts  --      2.8186                 1.5281                 1.1407
 IR Inten    --    165.2737                 2.5472                25.1655

                     28                     29                     30
                      A                      A                      A
 Frequencies --   1275.9835              1290.0945              1340.2976
 Red. masses --      1.4286                 1.3193                 1.1489
 Frc consts  --      1.3704                 1.2938                 1.2160
 IR Inten    --      4.7576                 2.9224                 0.1163

                     31                     32                     33
                      A                      A                      A
 Frequencies --   1369.0164              1381.4012              1411.8536
 Red. masses --      1.6154                 1.2068                 1.3030
 Frc consts  --      1.7838                 1.3568                 1.5302
 IR Inten    --     15.6959                 0.9099                35.0395

                     34                     35                     36
                      A                      A                      A
 Frequencies --   1416.4218              1447.1945              1478.3958
 Red. masses --      1.2465                 1.2019                 1.0398
 Frc consts  --      1.4734                 1.4831                 1.3390
 IR Inten    --      6.6467                 8.7116                 5.0405

                     37                     38                     39
                      A                      A                      A
 Frequencies --   1478.9774              1492.0170              1494.4213
 Red. masses --      1.0397                 1.1070                 1.0794
 Frc consts  --      1.3399                 1.4519                 1.4203
 IR Inten    --      5.1902                 7.7123                 0.2157

                     40                     41                     42
                      A                      A                      A
 Frequencies --   1510.0274              2373.3543              2906.1075
 Red. masses --      1.1145                11.8450                 1.0703
 Frc consts  --      1.4973                39.3105                 5.3257
 IR Inten    --      4.7164                 1.6250                82.8777

                     43                     44                     45
                      A                      A                      A
 Frequencies --   2956.3543              2964.7949              3013.2385
 Red. masses --      1.0705                 1.0711                 1.0823
 Frc consts  --      5.5127                 5.5472                 5.7898
 IR Inten    --     16.8473               114.1823                44.5353

                     46                     47                     48
                      A                      A                      A
 Frequencies --   3026.3777              3086.2927              3087.8448
 Red. masses --      1.0348                 1.1002                 1.1001
 Frc consts  --      5.5839                 6.1742                 6.1802
 IR Inten    --     33.1701                11.1462                 9.9266

                     49                     50                     51
                      A                      A                      A
 Frequencies --   3110.9750              3111.5114              3118.9015
 Red. masses --      1.0919                 1.0927                 1.0938
 Frc consts  --      6.2264                 6.2331                 6.2690
 IR Inten    --     30.4402                21.6412                24.8480

 - Thermochemistry -
 -------------------
 Temperature   298.150 Kelvin.  Pressure   1.00000 Atm.
 Atom     1 has atomic number  6 and mass  12.00000

 Molecular mass:   126.06808 amu.
 Principal axes and moments of inertia in atomic units:
                           1         2         3
     Eigenvalues --   605.352461839.312001913.89156
           X            0.99975   0.00000  -0.02247
           Y            0.00000   1.00000   0.00000
           Z            0.02247   0.00000   0.99975
 This molecule is an asymmetric top.
 Rotational symmetry number  1.
 Warning -- assumption of classical behavior for rotation
           may cause significant error
 Rotational temperatures (Kelvin)      0.14308     0.04709     0.04526
 Rotational constants (GHZ):           2.98131     0.98120     0.94297
 Zero-point vibrational energy     419526.3 (Joules/Mol)
                                  100.26918 (Kcal/Mol)
 Warning -- explicit consideration of  12 degrees of freedom as
           vibrations may cause significant error
 Vibrational temperatures:     37.05   109.57   140.95   295.94   342.97
          (Kelvin)            420.54   461.75   577.98   632.55   639.45
                              831.31   848.11   959.25  1187.66  1282.33
                             1285.88  1370.23  1407.12  1505.31  1512.15
                             1513.87  1520.30  1567.20  1632.77  1725.80
                             1735.97  1789.05  1835.85  1856.16  1928.39
                             1969.71  1987.53  2031.34  2037.91  2082.19
                             2127.08  2127.92  2146.68  2150.14  2172.59
                             3414.72  4181.24  4253.53  4265.67  4335.37
                             4354.28  4440.48  4442.71  4475.99  4476.77
                             4487.40

 Zero-point correction=                           0.159789 (Hartree/Particle)
 Thermal correction to Energy=                    0.168800
 Thermal correction to Enthalpy=                  0.169744
 Thermal correction to Gibbs Free Energy=         0.124514
 Sum of electronic and zero-point Energies=           -423.000987
 Sum of electronic and thermal Energies=              -422.991976
 Sum of electronic and thermal Enthalpies=            -422.991032
 Sum of electronic and thermal Free Energies=         -423.036263

                     E (Thermal)             CV                S
                      KCal/Mol        Cal/Mol-Kelvin    Cal/Mol-Kelvin
 Total                  105.924             32.291             95.195
 Electronic               0.000              0.000              0.000
 Translational            0.889              2.981             40.409
 Rotational               0.889              2.981             29.145
 Vibrational            104.146             26.329             25.641
 Vibration     1          0.593              1.985              6.133
 Vibration     2          0.599              1.965              3.988
 Vibration     3          0.603              1.951              3.494
 Vibration     4          0.640              1.832              2.082
 Vibration     5          0.656              1.782              1.815
 Vibration     6          0.688              1.688              1.461
 Vibration     7          0.706              1.633              1.305
 Vibration     8          0.767              1.466              0.956
 Vibration     9          0.800              1.384              0.828
 Vibration    10          0.804              1.373              0.813
 Vibration    11          0.934              1.079              0.489
 Vibration    12          0.947              1.054              0.468

 Normal termination of Gaussian 09 at Mon Jan 27 15:49:55 2020.
