 Gaussian 09, Revision D.01,
 Gaussian 09:  ES64L-G09RevD.01 24-Apr-2013

 -----------------------------
 # b3lyp 6-31G(2df,p) opt Freq
 -----------------------------

 -----
 titel
 -----
 Symbolic Z-matrix:
 Charge =  0 Multiplicity = 1

 SCF Done:  E(RB3LYP) =  -423.186516065     A.U. after   14 cycles
 Optimization completed.
    -- Stationary point found.
 Normal termination of Gaussian 09 at Tue Jan 28 00:07:00 2020.

 ----------------------------------------------------------------------
 #N Geom=AllCheck Guess=TCheck SCRF=Check GenChk RB3LYP/6-31G(2df,p) Fr
 eq
 ----------------------------------------------------------------------

 Structure from the checkpoint file:  "/scratch/puck/g09_f0a93987-4743-4d59-be11-785091c56862/Gau-56654.chk"
 -----
 titel
 -----
 Charge =  0 Multiplicity = 1

                         Standard orientation:
 ---------------------------------------------------------------------
 Center     Atomic      Atomic             Coordinates (Angstroms)
 Number     Number       Type             X           Y           Z
 ---------------------------------------------------------------------
      1          6           0        2.172545   -0.652043    0.046157
      2          6           0        0.692935   -0.381198    0.124471
      3          8           0       -0.050029   -1.549041   -0.339914
      4          6           0       -1.384576   -1.104739   -0.621877
      5          6           0       -1.357773    0.411631   -0.283952
      6          6           0       -1.139142    0.490318    1.218166
      7          6           0        0.086279    0.009005    1.469195
      8          6           0        0.084023    0.719360   -0.785948
      9          8           0        0.554176    2.026323   -0.600777
     10          1           0        2.727002    0.265216    0.265534
     11          1           0        2.472624   -1.423136    0.762044
     12          1           0        2.443754   -0.991882   -0.957090
     13          1           0       -1.610546   -1.274773   -1.682143
     14          1           0       -2.104864   -1.663456   -0.012641
     15          1           0       -2.174241    0.995545   -0.706654
     16          1           0       -1.895418    0.774654    1.939630
     17          1           0        0.539863   -0.183593    2.433810
     18          1           0        0.230330    0.483943   -1.843693
     19          1           0        0.412572    2.245218    0.329450
 ---------------------------------------------------------------------

 SCF Done:  E(RB3LYP) =  -423.186516065     A.U. after    1 cycles

 The electronic state is 1-A.
 Alpha  occ. eigenvalues --  -19.13787 -19.13379 -10.23523 -10.23117 -10.22807
 Alpha  occ. eigenvalues --  -10.19606 -10.19341 -10.18666 -10.17510  -1.03855
 Alpha  occ. eigenvalues --   -1.01702  -0.83434  -0.77017  -0.71857  -0.67260
 Alpha  occ. eigenvalues --   -0.61381  -0.58396  -0.53167  -0.51281  -0.49848
 Alpha  occ. eigenvalues --   -0.47061  -0.44112  -0.41913  -0.41638  -0.40134
 Alpha  occ. eigenvalues --   -0.38047  -0.36579  -0.36433  -0.35598  -0.33096
 Alpha  occ. eigenvalues --   -0.31716  -0.27492  -0.26214  -0.23240
 Alpha virt. eigenvalues --   -0.00217   0.09733   0.10502   0.11804   0.12281
 Alpha virt. eigenvalues --    0.13207   0.14726   0.15965   0.16354   0.16995
 Alpha virt. eigenvalues --    0.17686   0.18457   0.20455   0.20720   0.22841

 Mulliken charges:
               1
     1  C   -0.494045
     2  C    0.372667
     3  O   -0.308930
     4  C   -0.076046
     5  C   -0.143210
     6  C   -0.114053
     7  C   -0.137141
     8  C    0.123466
     9  O   -0.449682
    10  H    0.127262
    11  H    0.123198
    12  H    0.127143
    13  H    0.102372
    14  H    0.099120
    15  H    0.074470
    16  H    0.103686
    17  H    0.103681
    18  H    0.091340
    19  H    0.274703
 Sum of Mulliken charges =   0.00000

 Dipole moment (field-independent basis, Debye):
    X=             -1.0336    Y=              0.3677    Z=              1.2157  Tot=              1.6375
 Quadrupole moment (field-independent basis, Debye-Ang):
   XX=            -49.8612   YY=            -58.8481   ZZ=            -50.7410
   XY=             -1.2712   XZ=              1.5052   YZ=              2.8793

  Exact polarizability:  83.358  -2.145  67.653   2.369   2.578  73.464
 Approx polarizability: 123.415  -6.124 105.649   5.276   3.627 110.690

                      1                      2                      3
                      A                      A                      A
 Frequencies --    185.0129               229.1449               234.1205
 Red. masses --      1.1926                 2.4195                 3.5860
 Frc consts  --      0.0241                 0.0749                 0.1158
 IR Inten    --      0.7568                 0.9783                 4.3626

                      4                      5                      6
                      A                      A                      A
 Frequencies --    269.4735               336.0464               361.0134
 Red. masses --      2.5819                 2.3183                 2.4211
 Frc consts  --      0.1105                 0.1542                 0.1859
 IR Inten    --      2.7888                 1.6567                 2.8107

                      7                      8                      9
                      A                      A                      A
 Frequencies --    411.6785               449.5543               509.5585
 Red. masses --      3.0981                 1.3207                 3.4516
 Frc consts  --      0.3094                 0.1573                 0.5280
 IR Inten    --      8.2502                54.4879                 2.8818

                     10                     11                     12
                      A                      A                      A
 Frequencies --    566.2473               625.6934               707.1117
 Red. masses --      3.7830                 3.8895                 4.6992
 Frc consts  --      0.7147                 0.8971                 1.3844
 IR Inten    --      7.4263                 3.0408                 5.7398

                     13                     14                     15
                      A                      A                      A
 Frequencies --    758.1735               809.9144               825.5201
 Red. masses --      1.7392                 4.3467                 3.7056
 Frc consts  --      0.5890                 1.6799                 1.4879
 IR Inten    --     15.7767                 7.2676                 9.5995

                     16                     17                     18
                      A                      A                      A
 Frequencies --    846.3934               871.5889               898.5094
 Red. masses --      2.2669                 2.2310                 2.1796
 Frc consts  --      0.9568                 0.9986                 1.0367
 IR Inten    --     32.7440                 6.7860                 5.1971

                     19                     20                     21
                      A                      A                      A
 Frequencies --    941.9737               956.9018               961.8125
 Red. masses --      1.8873                 1.7461                 2.2644
 Frc consts  --      0.9867                 0.9420                 1.2342
 IR Inten    --     12.1730                 5.4376                10.4665

                     22                     23                     24
                      A                      A                      A
 Frequencies --   1004.7553              1060.0100              1089.7296
 Red. masses --      3.0020                 1.4439                 1.2087
 Frc consts  --      1.7856                 0.9559                 0.8457
 IR Inten    --     43.0514                 3.5360                 2.3336

                     25                     26                     27
                      A                      A                      A
 Frequencies --   1118.9524              1136.7169              1156.8541
 Red. masses --      2.2413                 2.5533                 1.9615
 Frc consts  --      1.6534                 1.9438                 1.5467
 IR Inten    --     60.3886                74.2266                23.8597

                     28                     29                     30
                      A                      A                      A
 Frequencies --   1202.7549              1222.6814              1231.2262
 Red. masses --      1.2366                 1.6202                 1.6029
 Frc consts  --      1.0540                 1.4271                 1.4317
 IR Inten    --      3.9189                 0.0851                24.5390

                     31                     32                     33
                      A                      A                      A
 Frequencies --   1279.9997              1283.7966              1309.1774
 Red. masses --      1.8434                 1.8650                 1.6123
 Frc consts  --      1.7795                 1.8110                 1.6281
 IR Inten    --      0.9138                 6.9949                10.8062

                     34                     35                     36
                      A                      A                      A
 Frequencies --   1353.7357              1375.2898              1413.2843
 Red. masses --      1.4573                 1.7346                 1.4894
 Frc consts  --      1.5735                 1.9330                 1.7527
 IR Inten    --     11.5551                 9.4282                12.4686

                     37                     38                     39
                      A                      A                      A
 Frequencies --   1439.9362              1480.7972              1494.1538
 Red. masses --      1.2480                 1.0526                 1.0510
 Frc consts  --      1.5245                 1.3598                 1.3825
 IR Inten    --     74.9925                 5.6295                 4.9505

                     40                     41                     42
                      A                      A                      A
 Frequencies --   1521.3331              1625.5893              3014.7463
 Red. masses --      1.0913                 5.9560                 1.0558
 Frc consts  --      1.4881                 9.2731                 5.6538
 IR Inten    --      0.8595                 3.9604                68.5348

                     43                     44                     45
                      A                      A                      A
 Frequencies --   3043.0026              3054.7933              3085.4906
 Red. masses --      1.0349                 1.1099                 1.0867
 Frc consts  --      5.6463                 6.1024                 6.0956
 IR Inten    --     16.9606                32.4736                28.0624

                     46                     47                     48
                      A                      A                      A
 Frequencies --   3114.7147              3121.8556              3129.2039
 Red. masses --      1.1016                 1.1014                 1.0890
 Frc consts  --      6.2969                 6.3245                 6.2825
 IR Inten    --     14.6859                13.8856                26.6424

                     49                     50                     51
                      A                      A                      A
 Frequencies --   3193.7754              3218.5579              3764.1894
 Red. masses --      1.0859                 1.1063                 1.0642
 Frc consts  --      6.5259                 6.7521                 8.8839
 IR Inten    --      5.5628                12.9730                16.7818

 - Thermochemistry -
 -------------------
 Temperature   298.150 Kelvin.  Pressure   1.00000 Atm.
 Atom     1 has atomic number  6 and mass  12.00000

 Molecular mass:   126.06808 amu.
 Principal axes and moments of inertia in atomic units:
                           1         2         3
     Eigenvalues --   833.72783 882.167861125.40851
           X            0.98343  -0.17992   0.02218
           Y            0.17916   0.98328   0.03245
           Z           -0.02765  -0.02794   0.99923
 This molecule is an asymmetric top.
 Rotational symmetry number  1.
 Warning -- assumption of classical behavior for rotation
           may cause significant error
 Rotational temperatures (Kelvin)      0.10389     0.09818     0.07696
 Rotational constants (GHZ):           2.16466     2.04580     1.60363
 Zero-point vibrational energy     420466.7 (Joules/Mol)
                                  100.49396 (Kcal/Mol)
 Warning -- explicit consideration of  10 degrees of freedom as
           vibrations may cause significant error
 Vibrational temperatures:    266.19   329.69   336.85   387.71   483.50
          (Kelvin)            519.42   592.31   646.81   733.14   814.70
                              900.23  1017.37  1090.84  1165.28  1187.74
                             1217.77  1254.02  1292.75  1355.29  1376.77
                             1383.83  1445.62  1525.12  1567.88  1609.92
                             1635.48  1664.45  1730.49  1759.16  1771.46
                             1841.63  1847.09  1883.61  1947.72  1978.73
                             2033.40  2071.74  2130.53  2149.75  2188.86
                             2338.86  4337.54  4378.20  4395.16  4439.33
                             4481.37  4491.65  4502.22  4595.12  4630.78
                             5415.82

 Zero-point correction=                           0.160147 (Hartree/Particle)
 Thermal correction to Energy=                    0.167828
 Thermal correction to Enthalpy=                  0.168772
 Thermal correction to Gibbs Free Energy=         0.128724
 Sum of electronic and zero-point Energies=           -423.026369
 Sum of electronic and thermal Energies=              -423.018688
 Sum of electronic and thermal Enthalpies=            -423.017744
 Sum of electronic and thermal Free Energies=         -423.057792

                     E (Thermal)             CV                S
                      KCal/Mol        Cal/Mol-Kelvin    Cal/Mol-Kelvin
 Total                  105.314             31.575             84.288
 Electronic               0.000              0.000              0.000
 Translational            0.889              2.981             40.409
 Rotational               0.889              2.981             28.206
 Vibrational            103.536             25.613             15.674
 Vibration     1          0.631              1.860              2.277
 Vibration     2          0.652              1.797              1.886
 Vibration     3          0.654              1.789              1.847
 Vibration     4          0.674              1.729              1.600
 Vibration     5          0.717              1.604              1.231
 Vibration     6          0.735              1.553              1.118
 Vibration     7          0.776              1.445              0.921
 Vibration     8          0.808              1.362              0.797
 Vibration     9          0.865              1.229              0.635
 Vibration    10          0.922              1.104              0.512

 Optimization completed.
    -- Stationary point found.
 Normal termination of Gaussian 09 at Tue Jan 28 01:33:10 2020.
