 Gaussian 09, Revision D.01,
 Gaussian 09:  ES64L-G09RevD.01 24-Apr-2013

 -----------------------------
 # b3lyp 6-31G(2df,p) opt Freq
 -----------------------------

 -----
 titel
 -----
 Symbolic Z-matrix:
 Charge =  0 Multiplicity = 1

 SCF Done:  E(RB3LYP) =  -423.198913233     A.U. after   14 cycles
 Optimization completed.
    -- Stationary point found.
 Normal termination of Gaussian 09 at Mon Jan 27 17:08:34 2020.

 ----------------------------------------------------------------------
 #N Geom=AllCheck Guess=TCheck SCRF=Check GenChk RB3LYP/6-31G(2df,p) Fr
 eq
 ----------------------------------------------------------------------

 Structure from the checkpoint file:  "/scratch/puck/g09_0e429223-ea3b-4c4b-9d8e-86ec36ada169/Gau-59828.chk"
 -----
 titel
 -----
 Charge =  0 Multiplicity = 1

                         Standard orientation:
 ---------------------------------------------------------------------
 Center     Atomic      Atomic             Coordinates (Angstroms)
 Number     Number       Type             X           Y           Z
 ---------------------------------------------------------------------
      1          6           0        2.641483    0.223344   -0.000199
      2          6           0        1.144468    0.019183   -0.000010
      3          6           0        0.468922   -0.880149    1.074615
      4          6           0       -0.626708   -1.174829    0.000215
      5          6           0        0.468858   -0.880413   -1.074356
      6          6           0       -1.577252   -0.006080    0.000013
      7          8           0       -2.781208   -0.082710   -0.000367
      8          6           0       -0.869096    1.357687    0.000270
      9          8           0        0.552890    1.317418   -0.000222
     10          1           0        2.948834    0.786841   -0.886367
     11          1           0        2.948772    0.788794    0.884740
     12          1           0        3.160574   -0.739082    0.000848
     13          1           0        1.059228   -1.775050    1.284792
     14          1           0        0.169744   -0.406997    2.013434
     15          1           0       -1.158490   -2.125810    0.000334
     16          1           0        1.059128   -1.775374   -1.284387
     17          1           0        0.169617   -0.407432   -2.013240
     18          1           0       -1.217719    1.912384   -0.880620
     19          1           0       -1.217196    1.911600    0.881888
 ---------------------------------------------------------------------

 SCF Done:  E(RB3LYP) =  -423.198913233     A.U. after    1 cycles

 The electronic state is 1-A.
 Alpha  occ. eigenvalues --  -19.14623 -19.13024 -10.27017 -10.25109 -10.23666
 Alpha  occ. eigenvalues --  -10.20373 -10.19668 -10.19667 -10.18118  -1.04997
 Alpha  occ. eigenvalues --   -1.03514  -0.85916  -0.77071  -0.69936  -0.67935
 Alpha  occ. eigenvalues --   -0.64404  -0.59336  -0.51529  -0.50311  -0.47671
 Alpha  occ. eigenvalues --   -0.46530  -0.45188  -0.43965  -0.42121  -0.40039
 Alpha  occ. eigenvalues --   -0.39827  -0.38586  -0.38254  -0.36376  -0.33827
 Alpha  occ. eigenvalues --   -0.33086  -0.30135  -0.25368  -0.24169
 Alpha virt. eigenvalues --   -0.01438   0.07417   0.08668   0.10450   0.12656
 Alpha virt. eigenvalues --    0.13463   0.15161   0.16073   0.16083   0.16779
 Alpha virt. eigenvalues --    0.17102   0.19060   0.19351   0.19965   0.21924

 Mulliken charges:
               1
     1  C   -0.459133
     2  C    0.427178
     3  C   -0.281411
     4  C   -0.135882
     5  C   -0.281363
     6  C    0.382845
     7  O   -0.328057
     8  C   -0.183246
     9  O   -0.308991
    10  H    0.128387
    11  H    0.128398
    12  H    0.113047
    13  H    0.110821
    14  H    0.110222
    15  H    0.085523
    16  H    0.110818
    17  H    0.110232
    18  H    0.135320
    19  H    0.135293
 Sum of Mulliken charges =   0.00000

 Dipole moment (field-independent basis, Debye):
    X=              2.5060    Y=             -0.9332    Z=              0.0012  Tot=              2.6741
 Quadrupole moment (field-independent basis, Debye-Ang):
   XX=            -62.1092   YY=            -52.2244   ZZ=            -51.1736
   XY=             -3.3225   XZ=             -0.0021   YZ=              0.0007

  Exact polarizability:  88.060  -2.628  72.808   0.000   0.001  65.228
 Approx polarizability: 124.578  -2.308 106.757   0.003   0.001  99.029

                      1                      2                      3
                      A                      A                      A
 Frequencies --     55.2456               143.9680               211.0905
 Red. masses --      2.7171                 3.9298                 1.0409
 Frc consts  --      0.0049                 0.0480                 0.0273
 IR Inten    --      8.5899                 0.4286                 0.0837

                      4                      5                      6
                      A                      A                      A
 Frequencies --    274.3324               305.4901               416.5900
 Red. masses --      2.7122                 2.2701                 5.7036
 Frc consts  --      0.1203                 0.1248                 0.5832
 IR Inten    --      0.0979                 0.8019                 2.0678

                      7                      8                      9
                      A                      A                      A
 Frequencies --    421.0292               436.2282               453.0921
 Red. masses --      2.0247                 2.6701                 4.4874
 Frc consts  --      0.2115                 0.2994                 0.5428
 IR Inten    --      2.2676                 1.4218                14.8144

                     10                     11                     12
                      A                      A                      A
 Frequencies --    569.2890               579.0615               669.1833
 Red. masses --      4.9172                 2.3927                 3.5507
 Frc consts  --      0.9389                 0.4727                 0.9368
 IR Inten    --      2.3568                 2.1417                 1.5528

                     13                     14                     15
                      A                      A                      A
 Frequencies --    731.5521               821.9958               871.6076
 Red. masses --      3.4234                 1.8173                 2.6660
 Frc consts  --      1.0794                 0.7235                 1.1933
 IR Inten    --      8.2894                 0.2338                 0.5043

                     16                     17                     18
                      A                      A                      A
 Frequencies --    872.8983               886.1831               932.5994
 Red. masses --      2.6860                 3.3664                 1.6183
 Frc consts  --      1.2058                 1.5576                 0.8293
 IR Inten    --     33.7658                 3.9099                 0.4309

                     19                     20                     21
                      A                      A                      A
 Frequencies --    960.6839               995.1772              1009.1779
 Red. masses --      2.1367                 1.6309                 1.7866
 Frc consts  --      1.1618                 0.9516                 1.0720
 IR Inten    --      5.0793                 3.8711                 1.1773

                     22                     23                     24
                      A                      A                      A
 Frequencies --   1040.1594              1069.2625              1108.8481
 Red. masses --      1.6794                 1.2224                 7.3280
 Frc consts  --      1.0705                 0.8234                 5.3086
 IR Inten    --     28.1700                 0.0797                94.4753

                     25                     26                     27
                      A                      A                      A
 Frequencies --   1137.8576              1187.9514              1194.0858
 Red. masses --      1.7012                 1.9713                 1.6341
 Frc consts  --      1.2977                 1.6391                 1.3728
 IR Inten    --      9.6361                 6.0047                 0.7544

                     28                     29                     30
                      A                      A                      A
 Frequencies --   1233.1326              1235.6905              1254.7564
 Red. masses --      1.0925                 2.1546                 1.5434
 Frc consts  --      0.9788                 1.9383                 1.4317
 IR Inten    --      0.2656                13.8112                 0.8116

                     31                     32                     33
                      A                      A                      A
 Frequencies --   1267.1207              1301.5868              1337.1445
 Red. masses --      2.2431                 2.1072                 2.2618
 Frc consts  --      2.1220                 2.1033                 2.3826
 IR Inten    --     72.7979                15.2305                16.3366

                     34                     35                     36
                      A                      A                      A
 Frequencies --   1362.5273              1414.6637              1467.9415
 Red. masses --      1.4051                 1.3995                 1.0885
 Frc consts  --      1.5369                 1.6502                 1.3819
 IR Inten    --      3.4001                13.0005                 3.6121

                     37                     38                     39
                      A                      A                      A
 Frequencies --   1474.6532              1481.4123              1492.7795
 Red. masses --      1.0766                 1.0493                 1.0726
 Frc consts  --      1.3794                 1.3567                 1.4082
 IR Inten    --      8.1556                 2.9628                 0.7800

                     40                     41                     42
                      A                      A                      A
 Frequencies --   1498.7827              1829.4148              3018.3948
 Red. masses --      1.1082                12.1342                 1.0575
 Frc consts  --      1.4667                23.9268                 5.6765
 IR Inten    --      3.1041               218.5903                33.7507

                     43                     44                     45
                      A                      A                      A
 Frequencies --   3041.7552              3049.3958              3059.3456
 Red. masses --      1.0351                 1.1038                 1.0572
 Frc consts  --      5.6426                 6.0476                 5.8302
 IR Inten    --     14.6357                 5.9657                45.3854

                     46                     47                     48
                      A                      A                      A
 Frequencies --   3063.5290              3114.1513              3117.5008
 Red. masses --      1.0581                 1.1015                 1.1040
 Frc consts  --      5.8511                 6.2939                 6.3220
 IR Inten    --      7.0330                14.3676                10.5934

                     49                     50                     51
                      A                      A                      A
 Frequencies --   3120.4284              3121.5268              3125.6334
 Red. masses --      1.1099                 1.0950                 1.1010
 Frc consts  --      6.3676                 6.2862                 6.3377
 IR Inten    --      9.4816                 6.4094                47.5697

 - Thermochemistry -
 -------------------
 Temperature   298.150 Kelvin.  Pressure   1.00000 Atm.
 Atom     1 has atomic number  6 and mass  12.00000

 Molecular mass:   126.06808 amu.
 Principal axes and moments of inertia in atomic units:
                           1         2         3
     Eigenvalues --   530.005861261.137011488.66530
           X            0.99982  -0.01885  -0.00001
           Y            0.01885   0.99982   0.00002
           Z            0.00001  -0.00002   1.00000
 This molecule is an asymmetric top.
 Rotational symmetry number  1.
 Warning -- assumption of classical behavior for rotation
           may cause significant error
 Rotational temperatures (Kelvin)      0.16342     0.06868     0.05818
 Rotational constants (GHZ):           3.40513     1.43104     1.21232
 Zero-point vibrational energy     417723.4 (Joules/Mol)
                                   99.83830 (Kcal/Mol)
 Warning -- explicit consideration of  11 degrees of freedom as
           vibrations may cause significant error
 Vibrational temperatures:     79.49   207.14   303.71   394.70   439.53
          (Kelvin)            599.38   605.77   627.63   651.90   819.08
                              833.14   962.80  1052.54  1182.67  1254.05
                             1255.90  1275.02  1341.80  1382.21  1431.84
                             1451.98  1496.56  1538.43  1595.38  1637.12
                             1709.20  1718.02  1774.20  1777.88  1805.31
                             1823.10  1872.69  1923.85  1960.37  2035.38
                             2112.04  2121.69  2131.42  2147.77  2156.41
                             2632.12  4342.79  4376.40  4387.39  4401.71
                             4407.73  4480.56  4485.38  4489.59  4491.18
                             4497.08

 Zero-point correction=                           0.159102 (Hartree/Particle)
 Thermal correction to Energy=                    0.167191
 Thermal correction to Enthalpy=                  0.168135
 Thermal correction to Gibbs Free Energy=         0.126376
 Sum of electronic and zero-point Energies=           -423.039811
 Sum of electronic and thermal Energies=              -423.031722
 Sum of electronic and thermal Enthalpies=            -423.030778
 Sum of electronic and thermal Free Energies=         -423.072538

                     E (Thermal)             CV                S
                      KCal/Mol        Cal/Mol-Kelvin    Cal/Mol-Kelvin
 Total                  104.914             31.544             87.890
 Electronic               0.000              0.000              0.000
 Translational            0.889              2.981             40.409
 Rotational               0.889              2.981             28.389
 Vibrational            103.136             25.582             19.093
 Vibration     1          0.596              1.975              4.620
 Vibration     2          0.616              1.909              2.750
 Vibration     3          0.643              1.824              2.034
 Vibration     4          0.677              1.721              1.569
 Vibration     5          0.696              1.663              1.387
 Vibration     6          0.780              1.434              0.904
 Vibration     7          0.784              1.425              0.888
 Vibration     8          0.797              1.391              0.839
 Vibration     9          0.812              1.354              0.786
 Vibration    10          0.925              1.098              0.506
 Vibration    11          0.936              1.077              0.487

 Normal termination of Gaussian 09 at Mon Jan 27 17:53:03 2020.
