 Gaussian 09, Revision D.01,
 Gaussian 09:  ES64L-G09RevD.01 24-Apr-2013

 -----------------------------
 # b3lyp 6-31G(2df,p) opt Freq
 -----------------------------

 -----
 titel
 -----
 Symbolic Z-matrix:
 Charge =  0 Multiplicity = 1

 SCF Done:  E(RB3LYP) =  -423.116669007     A.U. after   13 cycles
 Optimization completed.
    -- Stationary point found.
 Normal termination of Gaussian 09 at Tue Jan 28 10:09:06 2020.

 ----------------------------------------------------------------------
 #N Geom=AllCheck Guess=TCheck SCRF=Check GenChk RB3LYP/6-31G(2df,p) Fr
 eq
 ----------------------------------------------------------------------

 Structure from the checkpoint file:  "/scratch/puck/g09_5697bbc9-54b0-4195-833b-00294324d144/Gau-191503.chk"
 -----
 titel
 -----
 Charge =  0 Multiplicity = 1

                         Standard orientation:
 ---------------------------------------------------------------------
 Center     Atomic      Atomic             Coordinates (Angstroms)
 Number     Number       Type             X           Y           Z
 ---------------------------------------------------------------------
      1          6           0        1.364427    1.976671   -0.080759
      2          6           0        0.968638    0.543239    0.030415
      3          8           0        1.909416   -0.453862   -0.383987
      4          6           0        1.060061   -1.424543    0.292638
      5          6           0       -0.188280   -1.498784   -0.616461
      6          6           0       -0.447733   -0.058193   -0.161827
      7          6           0       -1.705640    0.732479   -0.342365
      8          8           0       -2.858193    0.059250    0.151777
      9          6           0        0.373538   -0.282480    1.124095
     10          1           0        2.290425    2.161489    0.472367
     11          1           0        1.530479    2.251513   -1.127820
     12          1           0        0.585976    2.628975    0.324138
     13          1           0        1.598182   -2.297697    0.654648
     14          1           0       -0.004488   -1.698498   -1.677053
     15          1           0       -0.952694   -2.172660   -0.222147
     16          1           0       -1.601291    1.727180    0.120198
     17          1           0       -1.900950    0.893949   -1.408812
     18          1           0       -2.685104   -0.160329    1.073489
     19          1           0        0.179615   -0.107356    2.174256
 ---------------------------------------------------------------------

 SCF Done:  E(RB3LYP) =  -423.116669007     A.U. after    1 cycles

 The electronic state is 1-A.
 Alpha  occ. eigenvalues --  -19.13489 -19.13308 -10.24638 -10.24342 -10.23242
 Alpha  occ. eigenvalues --  -10.19968 -10.19389 -10.18875 -10.18405  -1.06023
 Alpha  occ. eigenvalues --   -1.01548  -0.85834  -0.76448  -0.70577  -0.69333
 Alpha  occ. eigenvalues --   -0.62897  -0.54551  -0.53943  -0.50951  -0.47927
 Alpha  occ. eigenvalues --   -0.47349  -0.44890  -0.44396  -0.41713  -0.40859
 Alpha  occ. eigenvalues --   -0.39945  -0.37457  -0.36104  -0.34125  -0.32836
 Alpha  occ. eigenvalues --   -0.28854  -0.27248  -0.25924  -0.22840
 Alpha virt. eigenvalues --    0.07539   0.08220   0.09163   0.10012   0.12729
 Alpha virt. eigenvalues --    0.13127   0.14216   0.14729   0.15753   0.16299
 Alpha virt. eigenvalues --    0.16922   0.18487   0.19152   0.19900   0.21111

 Mulliken charges:
               1
     1  C   -0.509802
     2  C    0.430621
     3  O   -0.330132
     4  C    0.066473
     5  C   -0.276320
     6  C    0.206859
     7  C   -0.183395
     8  O   -0.412373
     9  C   -0.261027
    10  H    0.134477
    11  H    0.135902
    12  H    0.128075
    13  H    0.086838
    14  H    0.099150
    15  H    0.106714
    16  H    0.085066
    17  H    0.117752
    18  H    0.279902
    19  H    0.095221
 Sum of Mulliken charges =   0.00000

 Dipole moment (field-independent basis, Debye):
    X=              0.0010    Y=              0.5105    Z=              1.6384  Tot=              1.7160
 Quadrupole moment (field-independent basis, Debye-Ang):
   XX=            -63.3366   YY=            -49.1856   ZZ=            -50.1087
   XY=              0.6782   XZ=             -0.9311   YZ=             -1.2780

  Exact polarizability:  78.284   1.848  79.542   1.338  -1.141  67.484
 Approx polarizability: 113.272   2.280 109.989   0.098  -2.906 107.374

                      1                      2                      3
                      A                      A                      A
 Frequencies --     96.7926               144.3367               188.2360
 Red. masses --      3.1430                 3.1972                 1.1459
 Frc consts  --      0.0173                 0.0392                 0.0239
 IR Inten    --      3.2172                 0.8651                 0.8896

                      4                      5                      6
                      A                      A                      A
 Frequencies --    209.8007               273.0697               295.2668
 Red. masses --      2.2177                 2.1723                 2.1385
 Frc consts  --      0.0575                 0.0954                 0.1098
 IR Inten    --      6.2071                 6.0686                29.5844

                      7                      8                      9
                      A                      A                      A
 Frequencies --    344.1487               400.8758               464.4910
 Red. masses --      1.4468                 3.2880                 2.3255
 Frc consts  --      0.1010                 0.3113                 0.2956
 IR Inten    --     80.0309                 3.7263                 1.0376

                     10                     11                     12
                      A                      A                      A
 Frequencies --    565.3301               615.7185               706.6010
 Red. masses --      3.7078                 3.7736                 3.1316
 Frc consts  --      0.6982                 0.8429                 0.9212
 IR Inten    --      4.6856                 1.5099                 9.0250

                     13                     14                     15
                      A                      A                      A
 Frequencies --    751.7905               770.7884               806.0272
 Red. masses --      4.0138                 2.7229                 2.0470
 Frc consts  --      1.3366                 0.9531                 0.7835
 IR Inten    --      6.7178                 5.0007                14.1963

                     16                     17                     18
                      A                      A                      A
 Frequencies --    874.6093               911.4515               914.2360
 Red. masses --      2.1661                 1.9920                 1.6997
 Frc consts  --      0.9762                 0.9750                 0.8370
 IR Inten    --     12.3409                 1.8737                11.2466

                     19                     20                     21
                      A                      A                      A
 Frequencies --    927.8577               936.9545               994.0152
 Red. masses --      1.8629                 3.0922                 4.1251
 Frc consts  --      0.9449                 1.5994                 2.4015
 IR Inten    --     16.8117                24.7867                 6.5154

                     22                     23                     24
                      A                      A                      A
 Frequencies --   1040.9625              1053.6890              1085.6160
 Red. masses --      3.0069                 2.2836                 1.8450
 Frc consts  --      1.9198                 1.4938                 1.2811
 IR Inten    --     78.7311                45.8954                11.9103

                     25                     26                     27
                      A                      A                      A
 Frequencies --   1095.3680              1128.1424              1141.8063
 Red. masses --      1.7743                 1.6266                 1.6887
 Frc consts  --      1.2543                 1.2197                 1.2971
 IR Inten    --     12.2771                 2.5181                 6.8256

                     28                     29                     30
                      A                      A                      A
 Frequencies --   1166.4634              1201.2955              1240.3045
 Red. masses --      1.8771                 1.4831                 1.7389
 Frc consts  --      1.5048                 1.2610                 1.5761
 IR Inten    --     10.4350                 8.7694                13.8937

                     31                     32                     33
                      A                      A                      A
 Frequencies --   1258.7540              1285.2502              1347.6041
 Red. masses --      1.7278                 1.5937                 2.5919
 Frc consts  --      1.6129                 1.5511                 2.7733
 IR Inten    --      7.3537                10.6008                 2.3044

                     34                     35                     36
                      A                      A                      A
 Frequencies --   1368.7993              1399.9020              1421.3282
 Red. masses --      1.3553                 1.3873                 1.3506
 Frc consts  --      1.4961                 1.6018                 1.6075
 IR Inten    --      9.7260                 3.9657                64.2053

                     37                     38                     39
                      A                      A                      A
 Frequencies --   1451.6782              1473.6706              1488.3782
 Red. masses --      3.3381                 1.0542                 1.1357
 Frc consts  --      4.1447                 1.3489                 1.4824
 IR Inten    --     17.0682                 4.1247                 2.3700

                     40                     41                     42
                      A                      A                      A
 Frequencies --   1493.8410              1503.1702              2973.3979
 Red. masses --      1.0890                 1.1271                 1.0698
 Frc consts  --      1.4318                 1.5005                 5.5724
 IR Inten    --      0.2902                 5.2809                57.1644

                     43                     44                     45
                      A                      A                      A
 Frequencies --   3038.5199              3048.7910              3059.6948
 Red. masses --      1.0358                 1.0584                 1.0910
 Frc consts  --      5.6342                 5.7962                 6.0177
 IR Inten    --     26.5093                35.4654                28.5742

                     46                     47                     48
                      A                      A                      A
 Frequencies --   3103.2169              3116.0144              3120.5638
 Red. masses --      1.1013                 1.1064                 1.0999
 Frc consts  --      6.2485                 6.3291                 6.3107
 IR Inten    --     14.7068                17.6692                16.5014

                     49                     50                     51
                      A                      A                      A
 Frequencies --   3146.8079              3196.5493              3806.7129
 Red. masses --      1.0925                 1.0976                 1.0659
 Frc consts  --      6.3739                 6.6076                 9.1008
 IR Inten    --     40.5027                 9.0171                10.6845

 - Thermochemistry -
 -------------------
 Temperature   298.150 Kelvin.  Pressure   1.00000 Atm.
 Atom     1 has atomic number  6 and mass  12.00000

 Molecular mass:   126.06808 amu.
 Principal axes and moments of inertia in atomic units:
                           1         2         3
     Eigenvalues --   657.429341209.710021594.64333
           X            0.99962   0.02735   0.00297
           Y           -0.02734   0.99962  -0.00251
           Z           -0.00304   0.00243   0.99999
 This molecule is an asymmetric top.
 Rotational symmetry number  1.
 Warning -- assumption of classical behavior for rotation
           may cause significant error
 Rotational temperatures (Kelvin)      0.13175     0.07160     0.05432
 Rotational constants (GHZ):           2.74515     1.49188     1.13175
 Zero-point vibrational energy     415395.4 (Joules/Mol)
                                   99.28189 (Kcal/Mol)
 Warning -- explicit consideration of  11 degrees of freedom as
           vibrations may cause significant error
 Vibrational temperatures:    139.26   207.67   270.83   301.86   392.89
          (Kelvin)            424.82   495.15   576.77   668.30   813.38
                              885.88  1016.64  1081.66  1108.99  1159.69
                             1258.37  1311.37  1315.38  1334.98  1348.07
                             1430.16  1497.71  1516.02  1561.96  1575.99
                             1623.14  1642.80  1678.28  1728.39  1784.52
                             1811.06  1849.19  1938.90  1969.39  2014.14
                             2044.97  2088.64  2120.28  2141.44  2149.30
                             2162.72  4278.05  4371.75  4386.52  4402.21
                             4464.83  4483.24  4489.79  4527.55  4599.12
                             5477.00

 Zero-point correction=                           0.158216 (Hartree/Particle)
 Thermal correction to Energy=                    0.166661
 Thermal correction to Enthalpy=                  0.167605
 Thermal correction to Gibbs Free Energy=         0.125358
 Sum of electronic and zero-point Energies=           -422.958453
 Sum of electronic and thermal Energies=              -422.950008
 Sum of electronic and thermal Enthalpies=            -422.949064
 Sum of electronic and thermal Free Energies=         -422.991311

                     E (Thermal)             CV                S
                      KCal/Mol        Cal/Mol-Kelvin    Cal/Mol-Kelvin
 Total                  104.581             32.611             88.918
 Electronic               0.000              0.000              0.000
 Translational            0.889              2.981             40.409
 Rotational               0.889              2.981             28.630
 Vibrational            102.804             26.649             19.879
 Vibration     1          0.603              1.951              3.518
 Vibration     2          0.616              1.909              2.746
 Vibration     3          0.633              1.856              2.245
 Vibration     4          0.642              1.826              2.045
 Vibration     5          0.676              1.723              1.577
 Vibration     6          0.689              1.683              1.444
 Vibration     7          0.723              1.587              1.193
 Vibration     8          0.767              1.468              0.959
 Vibration     9          0.822              1.329              0.753
 Vibration    10          0.921              1.106              0.513
 Vibration    11          0.975              0.999              0.423

 Normal termination of Gaussian 09 at Tue Jan 28 10:44:31 2020.
