 Gaussian 09, Revision D.01,
 Gaussian 09:  ES64L-G09RevD.01 24-Apr-2013

 -----------------------------
 # b3lyp 6-31G(2df,p) opt Freq
 -----------------------------

 -----
 titel
 -----
 Symbolic Z-matrix:
 Charge =  0 Multiplicity = 1

 SCF Done:  E(RB3LYP) =  -423.179313896     A.U. after   14 cycles
 Optimization completed.
    -- Stationary point found.
 Normal termination of Gaussian 09 at Tue Jan 28 14:12:29 2020.

 ----------------------------------------------------------------------
 #N Geom=AllCheck Guess=TCheck SCRF=Check GenChk RB3LYP/6-31G(2df,p) Fr
 eq
 ----------------------------------------------------------------------

 Structure from the checkpoint file:  "/scratch/puck/g09_e463e87c-3dc9-429e-8b2b-95a0ece44bf6/Gau-111632.chk"
 -----
 titel
 -----
 Charge =  0 Multiplicity = 1

                         Standard orientation:
 ---------------------------------------------------------------------
 Center     Atomic      Atomic             Coordinates (Angstroms)
 Number     Number       Type             X           Y           Z
 ---------------------------------------------------------------------
      1          6           0       -2.794963   -0.544847    0.216901
      2          8           0       -1.752311    0.069008   -0.513704
      3          6           0       -0.520539   -0.567353   -0.359665
      4          6           0        0.315739   -0.318220    0.957354
      5          6           0        0.322077    1.227379    1.019144
      6          6           0        0.593678    1.562812   -0.492910
      7          6           0        0.672201    0.131208   -1.077026
      8          6           0        1.508669   -0.558845    0.016968
      9          8           0        2.559339   -1.124895    0.077177
     10          1           0       -2.607305   -0.516962    1.299857
     11          1           0       -3.710286    0.010162    0.000175
     12          1           0       -2.933866   -1.594040   -0.084290
     13          1           0       -0.590837   -1.636945   -0.601225
     14          1           0        0.173698   -0.883105    1.876018
     15          1           0       -0.639870    1.619343    1.354447
     16          1           0        1.101123    1.605945    1.684854
     17          1           0       -0.224947    2.128597   -0.938964
     18          1           0        1.525107    2.113333   -0.644009
     19          1           0        0.869796    0.007961   -2.139245
 ---------------------------------------------------------------------

 SCF Done:  E(RB3LYP) =  -423.179313897     A.U. after    1 cycles

 The electronic state is 1-A.
 Alpha  occ. eigenvalues --  -19.15586 -19.13759 -10.26909 -10.24913 -10.23518
 Alpha  occ. eigenvalues --  -10.19732 -10.19690 -10.19393 -10.19253  -1.05279
 Alpha  occ. eigenvalues --   -1.04582  -0.89139  -0.73424  -0.71008  -0.69900
 Alpha  occ. eigenvalues --   -0.60026  -0.56974  -0.52448  -0.51923  -0.49230
 Alpha  occ. eigenvalues --   -0.46831  -0.46751  -0.43760  -0.41957  -0.40958
 Alpha  occ. eigenvalues --   -0.37819  -0.37179  -0.35750  -0.35542  -0.34275
 Alpha  occ. eigenvalues --   -0.33970  -0.31430  -0.26788  -0.23174
 Alpha virt. eigenvalues --   -0.01151   0.08206   0.11026   0.12456   0.12710
 Alpha virt. eigenvalues --    0.13790   0.14573   0.14985   0.15549   0.16463
 Alpha virt. eigenvalues --    0.17021   0.17461   0.18550   0.18718   0.21120

 Mulliken charges:
               1
     1  C   -0.246611
     2  O   -0.249113
     3  C    0.154149
     4  C   -0.199807
     5  C   -0.219044
     6  C   -0.217187
     7  C   -0.195965
     8  C    0.431659
     9  O   -0.321462
    10  H    0.113522
    11  H    0.132510
    12  H    0.112273
    13  H    0.082475
    14  H    0.080295
    15  H    0.113822
    16  H    0.110583
    17  H    0.122803
    18  H    0.109610
    19  H    0.085490
 Sum of Mulliken charges =   0.00000

 Dipole moment (field-independent basis, Debye):
    X=             -2.7046    Y=              0.6497    Z=              0.5379  Tot=              2.8331
 Quadrupole moment (field-independent basis, Debye-Ang):
   XX=            -58.3204   YY=            -53.0941   ZZ=            -52.1021
   XY=              6.2225   XZ=             -2.1463   YZ=              0.4560

  Exact polarizability:  85.819  -1.014  71.495  -1.667  -0.210  68.501
 Approx polarizability: 121.181  -8.133 106.105  -0.600  -1.606 103.210

                      1                      2                      3
                      A                      A                      A
 Frequencies --     91.1548               135.6842               185.8328
 Red. masses --      2.8913                 4.8364                 1.2621
 Frc consts  --      0.0142                 0.0525                 0.0257
 IR Inten    --      0.8721                 3.9677                 0.4142

                      4                      5                      6
                      A                      A                      A
 Frequencies --    201.8377               261.1270               288.8956
 Red. masses --      2.6717                 1.9801                 3.2241
 Frc consts  --      0.0641                 0.0795                 0.1585
 IR Inten    --      2.4443                 1.2004                 5.7272

                      7                      8                      9
                      A                      A                      A
 Frequencies --    394.2902               498.7310               524.7121
 Red. masses --      4.1762                 3.5163                 4.4959
 Frc consts  --      0.3825                 0.5153                 0.7293
 IR Inten    --      2.2836                 3.3171                 0.6345

                     10                     11                     12
                      A                      A                      A
 Frequencies --    663.8551               669.5196               753.9133
 Red. masses --      4.1406                 3.7015                 2.6851
 Frc consts  --      1.0751                 0.9776                 0.8992
 IR Inten    --      2.3172                 5.9872                 1.0004

                     13                     14                     15
                      A                      A                      A
 Frequencies --    782.7581               836.9200               873.5309
 Red. masses --      4.5549                 2.7846                 1.6950
 Frc consts  --      1.6443                 1.1492                 0.7620
 IR Inten    --      8.0005                 1.8060                 0.4422

                     16                     17                     18
                      A                      A                      A
 Frequencies --    895.5748               902.5077               972.3027
 Red. masses --      2.9254                 2.0307                 1.3718
 Frc consts  --      1.3824                 0.9745                 0.7641
 IR Inten    --      0.0457                 7.5371                 2.3050

                     19                     20                     21
                      A                      A                      A
 Frequencies --    995.8345              1013.3766              1042.0937
 Red. masses --      2.4164                 3.4145                 3.5396
 Frc consts  --      1.4119                 2.0659                 2.2648
 IR Inten    --      1.6713                 6.1236                22.8878

                     22                     23                     24
                      A                      A                      A
 Frequencies --   1080.4418              1123.7212              1134.8791
 Red. masses --      1.8527                 1.2859                 1.6948
 Frc consts  --      1.2743                 0.9567                 1.2861
 IR Inten    --     24.7107                 4.4448                 4.1436

                     25                     26                     27
                      A                      A                      A
 Frequencies --   1153.8649              1179.9953              1185.5915
 Red. masses --      2.2545                 1.4750                 2.1682
 Frc consts  --      1.7685                 1.2100                 1.7956
 IR Inten    --     76.7093                 9.5667                51.5684

                     28                     29                     30
                      A                      A                      A
 Frequencies --   1194.8621              1232.2339              1247.4977
 Red. masses --      1.6662                 1.6736                 1.2606
 Frc consts  --      1.4016                 1.4973                 1.1559
 IR Inten    --     26.8044                19.3882                14.9423

                     31                     32                     33
                      A                      A                      A
 Frequencies --   1253.2553              1256.3842              1319.8021
 Red. masses --      1.3745                 1.5500                 1.5565
 Frc consts  --      1.2719                 1.4415                 1.5974
 IR Inten    --      0.4530                31.4598                 1.0855

                     34                     35                     36
                      A                      A                      A
 Frequencies --   1331.0610              1402.3168              1483.3941
 Red. masses --      1.5005                 1.2423                 1.1530
 Frc consts  --      1.5664                 1.4394                 1.4948
 IR Inten    --      2.0737                43.6825                 0.5040

                     37                     38                     39
                      A                      A                      A
 Frequencies --   1486.4476              1487.9640              1506.0719
 Red. masses --      1.0800                 1.0507                 1.0778
 Frc consts  --      1.4059                 1.3706                 1.4404
 IR Inten    --      1.1867                 5.6165                 8.4391

                     40                     41                     42
                      A                      A                      A
 Frequencies --   1509.5983              1905.8905              2984.3952
 Red. masses --      1.0902                12.1324                 1.0367
 Frc consts  --      1.4638                25.9652                 5.4400
 IR Inten    --      1.8373               299.7741                49.8060

                     43                     44                     45
                      A                      A                      A
 Frequencies --   3013.6177              3036.2821              3068.8737
 Red. masses --      1.0839                 1.1033                 1.0589
 Frc consts  --      5.7996                 5.9927                 5.8756
 IR Inten    --     47.1087                41.1196                24.5416

                     46                     47                     48
                      A                      A                      A
 Frequencies --   3077.8095              3113.9257              3122.1754
 Red. masses --      1.0602                 1.1074                 1.0974
 Frc consts  --      5.9175                 6.3266                 6.3030
 IR Inten    --     35.6603                 3.9323                24.5133

                     49                     50                     51
                      A                      A                      A
 Frequencies --   3133.2330              3146.8360              3152.3982
 Red. masses --      1.1063                 1.0900                 1.0919
 Frc consts  --      6.3989                 6.3595                 6.3931
 IR Inten    --     25.5120                27.2007                11.8039

 - Thermochemistry -
 -------------------
 Temperature   298.150 Kelvin.  Pressure   1.00000 Atm.
 Atom     1 has atomic number  6 and mass  12.00000

 Molecular mass:   126.06808 amu.
 Principal axes and moments of inertia in atomic units:
                           1         2         3
     Eigenvalues --   583.162591385.138401519.12460
           X            0.99887   0.04481  -0.01573
           Y           -0.04473   0.99899   0.00504
           Z            0.01594  -0.00433   0.99986
 This molecule is an asymmetric top.
 Rotational symmetry number  1.
 Warning -- assumption of classical behavior for rotation
           may cause significant error
 Rotational temperatures (Kelvin)      0.14852     0.06253     0.05702
 Rotational constants (GHZ):           3.09475     1.30293     1.18801
 Zero-point vibrational energy     420542.8 (Joules/Mol)
                                  100.51215 (Kcal/Mol)
 Warning -- explicit consideration of   9 degrees of freedom as
           vibrations may cause significant error
 Vibrational temperatures:    131.15   195.22   267.37   290.40   375.70
          (Kelvin)            415.66   567.30   717.56   754.94   955.14
                              963.29  1084.71  1126.21  1204.14  1256.81
                             1288.53  1298.51  1398.92  1432.78  1458.02
                             1499.34  1554.51  1616.78  1632.84  1660.15
                             1697.75  1705.80  1719.14  1772.91  1794.87
                             1803.15  1807.65  1898.90  1915.10  2017.62
                             2134.27  2138.66  2140.85  2166.90  2171.97
                             2742.15  4293.87  4335.92  4368.53  4415.42
                             4428.28  4480.24  4492.11  4508.02  4527.59
                             4535.59

 Zero-point correction=                           0.160176 (Hartree/Particle)
 Thermal correction to Energy=                    0.168287
 Thermal correction to Enthalpy=                  0.169231
 Thermal correction to Gibbs Free Energy=         0.127399
 Sum of electronic and zero-point Energies=           -423.019138
 Sum of electronic and thermal Energies=              -423.011027
 Sum of electronic and thermal Enthalpies=            -423.010083
 Sum of electronic and thermal Free Energies=         -423.051915

                     E (Thermal)             CV                S
                      KCal/Mol        Cal/Mol-Kelvin    Cal/Mol-Kelvin
 Total                  105.601             30.885             88.042
 Electronic               0.000              0.000              0.000
 Translational            0.889              2.981             40.409
 Rotational               0.889              2.981             28.597
 Vibrational            103.824             24.923             19.036
 Vibration     1          0.602              1.955              3.635
 Vibration     2          0.614              1.918              2.864
 Vibration     3          0.632              1.859              2.269
 Vibration     4          0.639              1.837              2.116
 Vibration     5          0.669              1.744              1.654
 Vibration     6          0.685              1.694              1.480
 Vibration     7          0.761              1.482              0.984
 Vibration     8          0.854              1.253              0.661
 Vibration     9          0.880              1.195              0.599

 Optimization completed.
    -- Stationary point found.
 Normal termination of Gaussian 09 at Tue Jan 28 14:55:10 2020.
