 Gaussian 09, Revision D.01,
 Gaussian 09:  ES64L-G09RevD.01 24-Apr-2013

 -----------------------------
 # b3lyp 6-31G(2df,p) opt Freq
 -----------------------------

 -----
 titel
 -----
 Symbolic Z-matrix:
 Charge =  0 Multiplicity = 1

 SCF Done:  E(RB3LYP) =  -423.130700998     A.U. after   14 cycles
 Optimization completed.
    -- Stationary point found.
 Normal termination of Gaussian 09 at Mon Jan 27 22:59:58 2020.

 ----------------------------------------------------------------------
 #N Geom=AllCheck Guess=TCheck SCRF=Check GenChk RB3LYP/6-31G(2df,p) Fr
 eq
 ----------------------------------------------------------------------

 Structure from the checkpoint file:  "/scratch/puck/g09_d5f7b889-ca84-4ebc-8f27-73e895e3dfb3/Gau-65402.chk"
 -----
 titel
 -----
 Charge =  0 Multiplicity = 1

                         Standard orientation:
 ---------------------------------------------------------------------
 Center     Atomic      Atomic             Coordinates (Angstroms)
 Number     Number       Type             X           Y           Z
 ---------------------------------------------------------------------
      1          6           0        2.093601   -0.992894   -0.952158
      2          6           0        0.672497   -0.737866   -0.486761
      3          6           0        0.352171   -0.848831    1.023495
      4          8           0        1.135970    0.369120    1.280086
      5          6           0        0.304557    0.678440    0.071650
      6          6           0        0.433191    2.023732   -0.566716
      7          6           0       -0.905957    0.069136    0.833336
      8          6           0       -2.151568   -0.401694    0.141453
      9          8           0       -2.371750   -0.310569   -1.042692
     10          1           0        2.814114   -0.549714   -0.262005
     11          1           0        2.291171   -2.068072   -1.020597
     12          1           0        2.256172   -0.569475   -1.949248
     13          1           0       -0.071929   -1.163809   -1.161880
     14          1           0        0.477031   -1.682925    1.714784
     15          1           0        0.225528    2.817068    0.157581
     16          1           0        1.442884    2.168802   -0.962329
     17          1           0       -0.282619    2.104070   -1.390174
     18          1           0       -1.149627    0.589753    1.764686
     19          1           0       -2.907431   -0.854243    0.824237
 ---------------------------------------------------------------------

 SCF Done:  E(RB3LYP) =  -423.130700998     A.U. after    1 cycles

 The electronic state is 1-A.
 Alpha  occ. eigenvalues --  -19.14782 -19.13575 -10.27814 -10.25865 -10.25737
 Alpha  occ. eigenvalues --  -10.20638 -10.19760 -10.18670 -10.17464  -1.06236
 Alpha  occ. eigenvalues --   -1.05093  -0.80717  -0.74883  -0.74761  -0.66959
 Alpha  occ. eigenvalues --   -0.62036  -0.59086  -0.52070  -0.48579  -0.48467
 Alpha  occ. eigenvalues --   -0.46645  -0.44229  -0.44105  -0.42946  -0.40022
 Alpha  occ. eigenvalues --   -0.39513  -0.38055  -0.37028  -0.34847  -0.33069
 Alpha  occ. eigenvalues --   -0.32067  -0.30689  -0.26578  -0.23835
 Alpha virt. eigenvalues --   -0.03585   0.08842   0.09751   0.11345   0.11902
 Alpha virt. eigenvalues --    0.12771   0.13830   0.14011   0.15400   0.15831
 Alpha virt. eigenvalues --    0.16211   0.17465   0.18344   0.18733   0.19429

 Mulliken charges:
               1
     1  C   -0.435582
     2  C   -0.016592
     3  C    0.010463
     4  O   -0.343836
     5  C    0.399862
     6  C   -0.526514
     7  C   -0.120162
     8  C    0.120298
     9  O   -0.254537
    10  H    0.136929
    11  H    0.116147
    12  H    0.118581
    13  H    0.098674
    14  H    0.096687
    15  H    0.133599
    16  H    0.135558
    17  H    0.147279
    18  H    0.100049
    19  H    0.083096
 Sum of Mulliken charges =   0.00000

 Dipole moment (field-independent basis, Debye):
    X=             -0.0023    Y=             -0.3794    Z=              0.7549  Tot=              0.8449
 Quadrupole moment (field-independent basis, Debye-Ang):
   XX=            -57.3263   YY=            -49.8500   ZZ=            -55.6102
   XY=             -1.0728   XZ=             -7.5688   YZ=             -2.6746

  Exact polarizability:  82.579  -0.219  72.717  -3.518  -2.594  74.189
 Approx polarizability: 113.422   1.146 104.808   4.888  -3.055 122.117

                      1                      2                      3
                      A                      A                      A
 Frequencies --     76.2902               146.5864               192.7489
 Red. masses --      4.3015                 4.1741                 2.1814
 Frc consts  --      0.0148                 0.0528                 0.0477
 IR Inten    --      8.1801                 6.8546                 0.6884

                      4                      5                      6
                      A                      A                      A
 Frequencies --    197.9303               202.9405               211.3599
 Red. masses --      1.0299                 2.5237                 1.1202
 Frc consts  --      0.0238                 0.0612                 0.0295
 IR Inten    --      0.0908                 1.1944                 0.0268

                      7                      8                      9
                      A                      A                      A
 Frequencies --    304.1181               337.1988               381.6793
 Red. masses --      3.4492                 2.7731                 2.8992
 Frc consts  --      0.1880                 0.1858                 0.2488
 IR Inten    --      3.0388                 4.2051                 3.0617

                     10                     11                     12
                      A                      A                      A
 Frequencies --    460.9809               622.8740               630.4141
 Red. masses --      5.0724                 4.2266                 3.6967
 Frc consts  --      0.6351                 0.9661                 0.8656
 IR Inten    --      1.7908                 7.1093                 4.2053

                     13                     14                     15
                      A                      A                      A
 Frequencies --    694.4331               721.5345               774.8546
 Red. masses --      4.0437                 3.7377                 2.5023
 Frc consts  --      1.1489                 1.1465                 0.8852
 IR Inten    --     19.5324                17.6251                 0.7090

                     16                     17                     18
                      A                      A                      A
 Frequencies --    809.5473               867.8511               872.4791
 Red. masses --      2.4410                 3.2293                 2.9593
 Frc consts  --      0.9425                 1.4330                 1.3272
 IR Inten    --      3.9953                10.5801                23.6550

                     19                     20                     21
                      A                      A                      A
 Frequencies --    949.7533              1003.3496              1027.2687
 Red. masses --      2.4658                 1.2885                 1.4937
 Frc consts  --      1.3105                 0.7642                 0.9287
 IR Inten    --     27.0380                 4.7715                 6.3789

                     22                     23                     24
                      A                      A                      A
 Frequencies --   1033.1353              1083.3440              1095.7340
 Red. masses --      1.4550                 1.8572                 2.1425
 Frc consts  --      0.9150                 1.2843                 1.5156
 IR Inten    --     13.1495                 7.6151                 5.5640

                     25                     26                     27
                      A                      A                      A
 Frequencies --   1117.9880              1143.4434              1169.8046
 Red. masses --      1.7977                 2.6900                 1.6452
 Frc consts  --      1.3238                 2.0722                 1.3265
 IR Inten    --      7.2724                 8.4895                 5.9141

                     28                     29                     30
                      A                      A                      A
 Frequencies --   1205.4514              1212.0237              1250.3659
 Red. masses --      1.7101                 1.5995                 1.7251
 Frc consts  --      1.4641                 1.3844                 1.5890
 IR Inten    --      8.6472                25.1615                 3.9802

                     31                     32                     33
                      A                      A                      A
 Frequencies --   1294.9034              1374.8690              1398.7092
 Red. masses --      2.0064                 1.5658                 1.2399
 Frc consts  --      1.9822                 1.7438                 1.4292
 IR Inten    --     12.7423                12.6983                 2.0553

                     34                     35                     36
                      A                      A                      A
 Frequencies --   1410.0625              1423.4159              1436.1681
 Red. masses --      1.5423                 1.3203                 1.8386
 Frc consts  --      1.8067                 1.5761                 2.2344
 IR Inten    --     10.7441                16.0184                 5.7742

                     37                     38                     39
                      A                      A                      A
 Frequencies --   1478.9312              1486.5767              1496.2742
 Red. masses --      1.0482                 1.0501                 1.0704
 Frc consts  --      1.3508                 1.3673                 1.4119
 IR Inten    --      4.4925                 5.7646                 3.0342

                     40                     41                     42
                      A                      A                      A
 Frequencies --   1506.0922              1810.1175              2864.5981
 Red. masses --      1.0491                10.2445                 1.0822
 Frc consts  --      1.4021                19.7767                 5.2320
 IR Inten    --      4.6645               119.6741               146.4732

                     43                     44                     45
                      A                      A                      A
 Frequencies --   3037.2368              3041.5010              3074.4078
 Red. masses --      1.0376                 1.0345                 1.0841
 Frc consts  --      5.6393                 5.6382                 6.0371
 IR Inten    --     27.3379                12.5251                15.6596

                     46                     47                     48
                      A                      A                      A
 Frequencies --   3093.1864              3101.5936              3115.7165
 Red. masses --      1.1004                 1.0848                 1.0990
 Frc consts  --      6.2029                 6.1484                 6.2859
 IR Inten    --     20.5236                11.4990                22.3221

                     49                     50                     51
                      A                      A                      A
 Frequencies --   3116.0252              3121.9622              3136.3761
 Red. masses --      1.0959                 1.1012                 1.0987
 Frc consts  --      6.2696                 6.3240                 6.3677
 IR Inten    --     36.0316                 6.6988                14.1329

 - Thermochemistry -
 -------------------
 Temperature   298.150 Kelvin.  Pressure   1.00000 Atm.
 Atom     1 has atomic number  6 and mass  12.00000

 Molecular mass:   126.06808 amu.
 Principal axes and moments of inertia in atomic units:
                           1         2         3
     Eigenvalues --   758.051451312.577231376.07682
           X            0.99734  -0.03021  -0.06634
           Y            0.02192   0.99224  -0.12239
           Z            0.06952   0.12061   0.99026
 This molecule is an asymmetric top.
 Rotational symmetry number  1.
 Warning -- assumption of classical behavior for rotation
           may cause significant error
 Rotational temperatures (Kelvin)      0.11426     0.06599     0.06294
 Rotational constants (GHZ):           2.38076     1.37496     1.31151
 Zero-point vibrational energy     410416.1 (Joules/Mol)
                                   98.09179 (Kcal/Mol)
 Warning -- explicit consideration of  10 degrees of freedom as
           vibrations may cause significant error
 Vibrational temperatures:    109.76   210.90   277.32   284.78   291.99
          (Kelvin)            304.10   437.56   485.15   549.15   663.25
                              896.18   907.02   999.13  1038.13  1114.84
                             1164.76  1248.64  1255.30  1366.48  1443.59
                             1478.01  1486.45  1558.69  1576.51  1608.53
                             1645.16  1683.09  1734.37  1743.83  1799.00
                             1863.07  1978.13  2012.43  2028.76  2047.98
                             2066.32  2127.85  2138.85  2152.80  2166.93
                             2604.35  4121.51  4369.90  4376.04  4423.38
                             4450.40  4462.50  4482.82  4483.26  4491.80
                             4512.54

 Zero-point correction=                           0.156319 (Hartree/Particle)
 Thermal correction to Energy=                    0.165361
 Thermal correction to Enthalpy=                  0.166305
 Thermal correction to Gibbs Free Energy=         0.122683
 Sum of electronic and zero-point Energies=           -422.974382
 Sum of electronic and thermal Energies=              -422.965340
 Sum of electronic and thermal Enthalpies=            -422.964396
 Sum of electronic and thermal Free Energies=         -423.008018

                     E (Thermal)             CV                S
                      KCal/Mol        Cal/Mol-Kelvin    Cal/Mol-Kelvin
 Total                  103.766             33.676             91.811
 Electronic               0.000              0.000              0.000
 Translational            0.889              2.981             40.409
 Rotational               0.889              2.981             28.706
 Vibrational            101.988             27.714             22.696
 Vibration     1          0.599              1.965              3.984
 Vibration     2          0.617              1.906              2.716
 Vibration     3          0.635              1.850              2.201
 Vibration     4          0.637              1.843              2.152
 Vibration     5          0.639              1.836              2.106
 Vibration     6          0.643              1.824              2.032
 Vibration     7          0.695              1.666              1.394
 Vibration     8          0.718              1.601              1.225
 Vibration     9          0.751              1.509              1.033
 Vibration    10          0.819              1.337              0.763

 Optimization completed.
    -- Stationary point found.
 Normal termination of Gaussian 09 at Mon Jan 27 23:42:54 2020.
