 Gaussian 09, Revision D.01,
 Gaussian 09:  ES64L-G09RevD.01 24-Apr-2013

 -----------------------------
 # b3lyp 6-31G(2df,p) opt Freq
 -----------------------------

 -----
 titel
 -----
 Symbolic Z-matrix:
 Charge =  0 Multiplicity = 1

 SCF Done:  E(RB3LYP) =  -423.153464240     A.U. after   13 cycles
 Optimization completed.
    -- Stationary point found.
 Normal termination of Gaussian 09 at Mon Jan 27 23:54:15 2020.

 ----------------------------------------------------------------------
 #N Geom=AllCheck Guess=TCheck SCRF=Check GenChk RB3LYP/6-31G(2df,p) Fr
 eq
 ----------------------------------------------------------------------

 Structure from the checkpoint file:  "/scratch/puck/g09_457e2982-99a1-45cb-bf18-7a61b93a7cf6/Gau-186399.chk"
 -----
 titel
 -----
 Charge =  0 Multiplicity = 1

                         Standard orientation:
 ---------------------------------------------------------------------
 Center     Atomic      Atomic             Coordinates (Angstroms)
 Number     Number       Type             X           Y           Z
 ---------------------------------------------------------------------
      1          8           0       -2.994661   -0.489351   -0.116114
      2          6           0       -1.761887   -0.044489    0.366883
      3          6           0       -0.829241    0.705884   -0.553098
      4          8           0        0.122359    1.528065    0.078938
      5          6           0        1.178852    0.707642    0.564829
      6          6           0        2.297548    0.323473   -0.448198
      7          6           0        1.993859   -1.179702   -0.189188
      8          6           0        0.713182   -0.781189    0.600859
      9          6           0       -0.562968   -0.744088   -0.223505
     10          1           0       -3.589793    0.267590   -0.148695
     11          1           0       -1.725933    0.229395    1.423100
     12          1           0       -1.164353    1.046151   -1.527738
     13          1           0        1.538416    1.142502    1.499851
     14          1           0        2.049359    0.654162   -1.459216
     15          1           0        3.305629    0.667484   -0.206707
     16          1           0        1.839116   -1.808112   -1.069779
     17          1           0        2.739750   -1.660365    0.448084
     18          1           0        0.576106   -1.251725    1.578250
     19          1           0       -0.765957   -1.521979   -0.951226
 ---------------------------------------------------------------------

 SCF Done:  E(RB3LYP) =  -423.153464240     A.U. after    1 cycles

 The electronic state is 1-A.
 Alpha  occ. eigenvalues --  -19.14482 -19.13965 -10.23141 -10.22838 -10.22757
 Alpha  occ. eigenvalues --  -10.18937 -10.18825 -10.18283 -10.17724  -1.04395
 Alpha  occ. eigenvalues --   -1.02528  -0.84403  -0.82448  -0.67499  -0.65844
 Alpha  occ. eigenvalues --   -0.60057  -0.57594  -0.55093  -0.52895  -0.49940
 Alpha  occ. eigenvalues --   -0.46582  -0.45436  -0.43062  -0.41446  -0.39638
 Alpha  occ. eigenvalues --   -0.37273  -0.36956  -0.34228  -0.33117  -0.32362
 Alpha  occ. eigenvalues --   -0.29337  -0.28254  -0.26777  -0.22261
 Alpha virt. eigenvalues --    0.07174   0.08890   0.09826   0.10690   0.12545
 Alpha virt. eigenvalues --    0.13713   0.14983   0.16123   0.16627   0.17408
 Alpha virt. eigenvalues --    0.18231   0.18892   0.19848   0.21394   0.23174

 Mulliken charges:
               1
     1  O   -0.424726
     2  C    0.036256
     3  C    0.022869
     4  O   -0.266788
     5  C    0.127935
     6  C   -0.241392
     7  C   -0.239130
     8  C   -0.070595
     9  C   -0.091177
    10  H    0.289133
    11  H    0.089179
    12  H    0.098621
    13  H    0.080178
    14  H    0.111009
    15  H    0.100826
    16  H    0.099906
    17  H    0.102722
    18  H    0.073212
    19  H    0.101963
 Sum of Mulliken charges =   0.00000

 Dipole moment (field-independent basis, Debye):
    X=              0.3496    Y=             -0.0405    Z=              0.0838  Tot=              0.3617
 Quadrupole moment (field-independent basis, Debye-Ang):
   XX=            -49.3535   YY=            -56.8124   ZZ=            -51.0404
   XY=             -5.0457   XZ=              1.1637   YZ=             -0.2271

  Exact polarizability:  90.123  -1.951  67.362   1.338  -0.182  65.221
 Approx polarizability: 114.840  -1.562 104.848   2.610  -0.237  99.624

                      1                      2                      3
                      A                      A                      A
 Frequencies --     83.0277               168.4707               238.4019
 Red. masses --      2.6625                 2.5349                 3.1897
 Frc consts  --      0.0108                 0.0424                 0.1068
 IR Inten    --      0.2192                 1.3053                15.2187

                      4                      5                      6
                      A                      A                      A
 Frequencies --    270.9196               338.2879               370.0628
 Red. masses --      3.2706                 1.2308                 3.3795
 Frc consts  --      0.1414                 0.0830                 0.2727
 IR Inten    --      3.2369                95.7682                 0.4164

                      7                      8                      9
                      A                      A                      A
 Frequencies --    389.9724               470.0305               633.7440
 Red. masses --      3.0876                 4.7977                 3.9049
 Frc consts  --      0.2767                 0.6245                 0.9240
 IR Inten    --     12.4938                 1.7561                 2.3228

                     10                     11                     12
                      A                      A                      A
 Frequencies --    708.4089               732.0900               766.7716
 Red. masses --      2.2916                 2.8521                 1.6018
 Frc consts  --      0.6776                 0.9006                 0.5549
 IR Inten    --      2.2125                 6.1185                 4.4784

                     13                     14                     15
                      A                      A                      A
 Frequencies --    854.3928               866.1470               892.8954
 Red. masses --      1.7435                 2.4004                 2.8535
 Frc consts  --      0.7499                 1.0610                 1.3404
 IR Inten    --      2.2810                 0.5565                 4.1528

                     16                     17                     18
                      A                      A                      A
 Frequencies --    917.0590               936.0875               949.0551
 Red. masses --      2.6951                 2.6057                 2.2768
 Frc consts  --      1.3354                 1.3453                 1.2082
 IR Inten    --     14.4752                 3.3336                 8.7691

                     19                     20                     21
                      A                      A                      A
 Frequencies --    956.7899              1001.6568              1026.7309
 Red. masses --      2.7599                 2.3598                 1.6995
 Frc consts  --      1.4886                 1.3950                 1.0555
 IR Inten    --      2.5650                 8.6698                 7.1464

                     22                     23                     24
                      A                      A                      A
 Frequencies --   1058.4026              1073.0468              1084.2567
 Red. masses --      1.6159                 1.4668                 1.9545
 Frc consts  --      1.0665                 0.9951                 1.3538
 IR Inten    --     24.0948                14.1914                40.7803

                     25                     26                     27
                      A                      A                      A
 Frequencies --   1133.2695              1148.3033              1162.1744
 Red. masses --      3.9939                 1.6746                 2.4258
 Frc consts  --      3.0221                 1.3010                 1.9304
 IR Inten    --    136.7711                 2.0429                19.2243

                     28                     29                     30
                      A                      A                      A
 Frequencies --   1177.9928              1193.5770              1234.1029
 Red. masses --      2.0851                 1.4945                 1.2159
 Frc consts  --      1.7048                 1.2544                 1.0911
 IR Inten    --     15.1216                 2.2017                 6.1581

                     31                     32                     33
                      A                      A                      A
 Frequencies --   1253.7119              1259.2521              1269.1800
 Red. masses --      1.3520                 1.4272                 1.4347
 Frc consts  --      1.2520                 1.3334                 1.3616
 IR Inten    --      0.2711                 1.8049                 3.9335

                     34                     35                     36
                      A                      A                      A
 Frequencies --   1276.0954              1289.6164              1312.9791
 Red. masses --      1.5147                 1.2608                 1.3963
 Frc consts  --      1.4533                 1.2354                 1.4182
 IR Inten    --      3.2756                51.1741                 5.7525

                     37                     38                     39
                      A                      A                      A
 Frequencies --   1333.6231              1367.8907              1447.6341
 Red. masses --      1.6291                 1.4109                 2.2404
 Frc consts  --      1.7071                 1.5554                 2.7663
 IR Inten    --     19.9730                 4.6547                11.3835

                     40                     41                     42
                      A                      A                      A
 Frequencies --   1473.6623              1493.2719              3059.1230
 Red. masses --      1.0864                 1.1154                 1.0677
 Frc consts  --      1.3901                 1.4654                 5.8872
 IR Inten    --      2.1072                 2.6432                19.4863

                     43                     44                     45
                      A                      A                      A
 Frequencies --   3064.8434              3070.5143              3083.5786
 Red. masses --      1.0745                 1.0628                 1.0878
 Frc consts  --      5.9465                 5.9040                 6.0940
 IR Inten    --     53.9043                22.7581                15.9098

                     46                     47                     48
                      A                      A                      A
 Frequencies --   3089.0167              3107.2050              3129.1158
 Red. masses --      1.0887                 1.1079                 1.1070
 Frc consts  --      6.1208                 6.3023                 6.3863
 IR Inten    --     45.1923                 5.2806                46.1427

                     49                     50                     51
                      A                      A                      A
 Frequencies --   3160.2662              3177.1650              3799.2821
 Red. masses --      1.0899                 1.0916                 1.0661
 Frc consts  --      6.4132                 6.4922                 9.0668
 IR Inten    --     18.6405                 7.7477                23.9948

 - Thermochemistry -
 -------------------
 Temperature   298.150 Kelvin.  Pressure   1.00000 Atm.
 Atom     1 has atomic number  8 and mass  15.99491

 Molecular mass:   126.06808 amu.
 Principal axes and moments of inertia in atomic units:
                           1         2         3
     Eigenvalues --   461.570491444.342011685.58351
           X            0.99985  -0.01722  -0.00181
           Y            0.01722   0.99985  -0.00016
           Z            0.00181   0.00013   1.00000
 This molecule is an asymmetric top.
 Rotational symmetry number  1.
 Warning -- assumption of classical behavior for rotation
           may cause significant error
 Rotational temperatures (Kelvin)      0.18765     0.05997     0.05139
 Rotational constants (GHZ):           3.91000     1.24952     1.07069
 Zero-point vibrational energy     420805.3 (Joules/Mol)
                                  100.57488 (Kcal/Mol)
 Warning -- explicit consideration of   8 degrees of freedom as
           vibrations may cause significant error
 Vibrational temperatures:    119.46   242.39   343.01   389.79   486.72
          (Kelvin)            532.44   561.08   676.27   911.82  1019.24
                             1053.31  1103.21  1229.28  1246.19  1284.68
                             1319.44  1346.82  1365.48  1376.61  1441.16
                             1477.23  1522.80  1543.87  1560.00  1630.52
                             1652.15  1672.11  1694.87  1717.29  1775.60
                             1803.81  1811.78  1826.06  1836.01  1855.47
                             1889.08  1918.78  1968.09  2082.82  2120.27
                             2148.48  4401.39  4409.62  4417.78  4436.58
                             4444.40  4470.57  4502.09  4546.91  4571.23
                             5466.31

 Zero-point correction=                           0.160276 (Hartree/Particle)
 Thermal correction to Energy=                    0.167912
 Thermal correction to Enthalpy=                  0.168856
 Thermal correction to Gibbs Free Energy=         0.128134
 Sum of electronic and zero-point Energies=           -422.993188
 Sum of electronic and thermal Energies=              -422.985553
 Sum of electronic and thermal Enthalpies=            -422.984609
 Sum of electronic and thermal Free Energies=         -423.025331

                     E (Thermal)             CV                S
                      KCal/Mol        Cal/Mol-Kelvin    Cal/Mol-Kelvin
 Total                  105.366             30.357             85.707
 Electronic               0.000              0.000              0.000
 Translational            0.889              2.981             40.409
 Rotational               0.889              2.981             28.510
 Vibrational            103.589             24.396             16.789
 Vibration     1          0.600              1.961              3.818
 Vibration     2          0.625              1.881              2.452
 Vibration     3          0.656              1.782              1.815
 Vibration     4          0.675              1.727              1.590
 Vibration     5          0.719              1.599              1.220
 Vibration     6          0.742              1.534              1.080
 Vibration     7          0.758              1.492              1.000
 Vibration     8          0.827              1.317              0.737

 Normal termination of Gaussian 09 at Tue Jan 28 00:38:04 2020.
