 Gaussian 09, Revision D.01,
 Gaussian 09:  ES64L-G09RevD.01 24-Apr-2013

 -----------------------------
 # b3lyp 6-31G(2df,p) opt Freq
 -----------------------------

 -----
 titel
 -----
 Symbolic Z-matrix:
 Charge =  0 Multiplicity = 1

 SCF Done:  E(RB3LYP) =  -423.185750500     A.U. after   14 cycles
 Optimization completed.
    -- Stationary point found.
 Normal termination of Gaussian 09 at Mon Jan 27 16:30:20 2020.

 ----------------------------------------------------------------------
 #N Geom=AllCheck Guess=TCheck SCRF=Check GenChk RB3LYP/6-31G(2df,p) Fr
 eq
 ----------------------------------------------------------------------

 Structure from the checkpoint file:  "/scratch/puck/g09_c9e3ea9a-3077-4662-931a-62f471759e89/Gau-83796.chk"
 -----
 titel
 -----
 Charge =  0 Multiplicity = 1

                         Standard orientation:
 ---------------------------------------------------------------------
 Center     Atomic      Atomic             Coordinates (Angstroms)
 Number     Number       Type             X           Y           Z
 ---------------------------------------------------------------------
      1          6           0        1.248410    1.765421    0.360459
      2          6           0        0.603189    0.420623    0.036318
      3          6           0       -0.160481   -0.242738    1.202717
      4          6           0       -1.400039   -0.831255    0.535756
      5          6           0       -2.490422    0.136732    0.114074
      6          6           0       -1.423016   -0.277523   -0.859233
      7          8           0       -0.353139    0.624427   -1.024600
      8          6           0        1.678394   -0.510708   -0.541660
      9          8           0        2.192399   -1.432177    0.035889
     10          1           0        1.970460    1.657803    1.175295
     11          1           0        1.767043    2.171662   -0.513512
     12          1           0        0.475396    2.478567    0.660116
     13          1           0        0.463587   -1.016945    1.654502
     14          1           0       -0.410947    0.491954    1.974382
     15          1           0       -1.665378   -1.861499    0.738619
     16          1           0       -3.489442   -0.262862   -0.025888
     17          1           0       -2.451165    1.154184    0.489855
     18          1           0       -1.652113   -0.863676   -1.742904
     19          1           0        1.942266   -0.250499   -1.591365
 ---------------------------------------------------------------------

 SCF Done:  E(RB3LYP) =  -423.185750500     A.U. after    1 cycles

 The electronic state is 1-A.
 Alpha  occ. eigenvalues --  -19.15074 -19.14710 -10.26935 -10.24856 -10.23722
 Alpha  occ. eigenvalues --  -10.19741 -10.18998 -10.18956 -10.18927  -1.05858
 Alpha  occ. eigenvalues --   -1.04479  -0.85350  -0.79700  -0.71024  -0.65176
 Alpha  occ. eigenvalues --   -0.60633  -0.58394  -0.54923  -0.52006  -0.48971
 Alpha  occ. eigenvalues --   -0.45637  -0.45194  -0.43791  -0.42281  -0.40619
 Alpha  occ. eigenvalues --   -0.40145  -0.38422  -0.37599  -0.35548  -0.33428
 Alpha  occ. eigenvalues --   -0.32956  -0.28395  -0.27413  -0.23407
 Alpha virt. eigenvalues --   -0.02697   0.09009   0.09680   0.10506   0.11358
 Alpha virt. eigenvalues --    0.13250   0.14674   0.15303   0.16278   0.16691
 Alpha virt. eigenvalues --    0.17519   0.18269   0.19723   0.21088   0.21977

 Mulliken charges:
               1
     1  C   -0.446239
     2  C    0.291882
     3  C   -0.308340
     4  C   -0.055437
     5  C   -0.305487
     6  C    0.089862
     7  O   -0.300441
     8  C    0.135642
     9  O   -0.249713
    10  H    0.133473
    11  H    0.129470
    12  H    0.130132
    13  H    0.134942
    14  H    0.101852
    15  H    0.098353
    16  H    0.114041
    17  H    0.115775
    18  H    0.099749
    19  H    0.090485
 Sum of Mulliken charges =   0.00000

 Dipole moment (field-independent basis, Debye):
    X=             -1.3463    Y=              0.9776    Z=              0.3623  Tot=              1.7028
 Quadrupole moment (field-independent basis, Debye-Ang):
   XX=            -54.2726   YY=            -54.7140   ZZ=            -53.1194
   XY=              6.3003   XZ=             -0.8407   YZ=              2.4836

  Exact polarizability:  84.475  -0.067  71.494  -0.240  -0.221  68.627
 Approx polarizability: 112.040  -6.727 109.101   2.366  -6.357 107.251

                      1                      2                      3
                      A                      A                      A
 Frequencies --     55.7338                82.6437               206.3571
 Red. masses --      5.0890                 3.1574                 3.4810
 Frc consts  --      0.0093                 0.0127                 0.0873
 IR Inten    --      3.2942                 4.0175                 3.2176

                      4                      5                      6
                      A                      A                      A
 Frequencies --    229.6502               299.0495               318.8118
 Red. masses --      1.0530                 2.2934                 2.5331
 Frc consts  --      0.0327                 0.1208                 0.1517
 IR Inten    --      0.1495                 0.8751                 2.2518

                      7                      8                      9
                      A                      A                      A
 Frequencies --    333.7805               381.4035               463.8387
 Red. masses --      2.4516                 3.0332                 2.4524
 Frc consts  --      0.1609                 0.2600                 0.3109
 IR Inten    --      7.5116                 4.7094                 2.4116

                     10                     11                     12
                      A                      A                      A
 Frequencies --    566.4268               612.7023               700.4060
 Red. masses --      3.8627                 3.7663                 3.8239
 Frc consts  --      0.7302                 0.8330                 1.1052
 IR Inten    --      1.0087                12.4507                 0.8254

                     13                     14                     15
                      A                      A                      A
 Frequencies --    778.9477               800.9465               814.9497
 Red. masses --      2.4097                 3.4025                 1.5183
 Frc consts  --      0.8614                 1.2861                 0.5941
 IR Inten    --     12.4884                 9.5359                 4.2096

                     16                     17                     18
                      A                      A                      A
 Frequencies --    870.1598               915.7050               928.3205
 Red. masses --      2.4767                 1.7592                 1.8958
 Frc consts  --      1.1049                 0.8691                 0.9626
 IR Inten    --     15.1981                 3.7471                 3.2645

                     19                     20                     21
                      A                      A                      A
 Frequencies --    949.9571               986.8748               993.5982
 Red. masses --      1.9105                 2.1391                 2.1680
 Frc consts  --      1.0158                 1.2274                 1.2610
 IR Inten    --     22.6588                 3.1138                 5.7468

                     22                     23                     24
                      A                      A                      A
 Frequencies --   1022.4605              1057.0801              1073.9620
 Red. masses --      1.6131                 1.5030                 1.6399
 Frc consts  --      0.9936                 0.9895                 1.1144
 IR Inten    --     16.2088                 3.4376                14.0119

                     25                     26                     27
                      A                      A                      A
 Frequencies --   1101.8004              1136.3373              1149.1866
 Red. masses --      1.2706                 3.1294                 2.1605
 Frc consts  --      0.9088                 2.3808                 1.6811
 IR Inten    --      2.6197                87.6597                14.1226

                     28                     29                     30
                      A                      A                      A
 Frequencies --   1174.5587              1200.5432              1230.5921
 Red. masses --      1.8843                 1.8660                 2.0574
 Frc consts  --      1.5316                 1.5846                 1.8356
 IR Inten    --      4.8382                11.3429                 3.8948

                     31                     32                     33
                      A                      A                      A
 Frequencies --   1277.7198              1310.7325              1335.1339
 Red. masses --      1.8154                 1.5826                 1.5788
 Frc consts  --      1.7462                 1.6019                 1.6581
 IR Inten    --      7.3960                14.6024                 0.8261

                     34                     35                     36
                      A                      A                      A
 Frequencies --   1380.0722              1396.0154              1405.2029
 Red. masses --      1.7224                 1.2646                 1.2203
 Frc consts  --      1.9328                 1.4521                 1.4196
 IR Inten    --     10.6610                 8.1026                 6.1260

                     37                     38                     39
                      A                      A                      A
 Frequencies --   1470.1311              1481.8141              1489.5540
 Red. masses --      1.2553                 1.0598                 1.0836
 Frc consts  --      1.5985                 1.3711                 1.4165
 IR Inten    --      4.2735                 3.8166                 8.3369

                     40                     41                     42
                      A                      A                      A
 Frequencies --   1498.0646              1832.2249              2888.6265
 Red. masses --      1.0798                10.8922                 1.0842
 Frc consts  --      1.4278                21.5438                 5.3303
 IR Inten    --      5.8526               135.1165                90.9135

                     43                     44                     45
                      A                      A                      A
 Frequencies --   3039.6385              3052.6713              3113.1213
 Red. masses --      1.0343                 1.0644                 1.0997
 Frc consts  --      5.6306                 5.8442                 6.2794
 IR Inten    --     11.4336                26.4659                 7.3219

                     46                     47                     48
                      A                      A                      A
 Frequencies --   3114.8349              3122.8256              3125.6575
 Red. masses --      1.1014                 1.1017                 1.0544
 Frc consts  --      6.2959                 6.3299                 6.0695
 IR Inten    --     10.3570                 9.3387                14.3517

                     49                     50                     51
                      A                      A                      A
 Frequencies --   3162.6883              3184.5045              3217.4159
 Red. masses --      1.0906                 1.0935                 1.1162
 Frc consts  --      6.4275                 6.5337                 6.8078
 IR Inten    --     21.0024                 9.8175                12.2104

 - Thermochemistry -
 -------------------
 Temperature   298.150 Kelvin.  Pressure   1.00000 Atm.
 Atom     1 has atomic number  6 and mass  12.00000

 Molecular mass:   126.06808 amu.
 Principal axes and moments of inertia in atomic units:
                           1         2         3
     Eigenvalues --   638.525911288.293291450.66084
           X            0.99860   0.05281  -0.00143
           Y           -0.05262   0.99661   0.06323
           Z            0.00477  -0.06306   0.99800
 This molecule is an asymmetric top.
 Rotational symmetry number  1.
 Warning -- assumption of classical behavior for rotation
           may cause significant error
 Rotational temperatures (Kelvin)      0.13565     0.06723     0.05971
 Rotational constants (GHZ):           2.82642     1.40088     1.24408
 Zero-point vibrational energy     414718.0 (Joules/Mol)
                                   99.11998 (Kcal/Mol)
 Warning -- explicit consideration of  11 degrees of freedom as
           vibrations may cause significant error
 Vibrational temperatures:     80.19   118.91   296.90   330.42   430.26
          (Kelvin)            458.70   480.24   548.75   667.36   814.96
                              881.54  1007.73  1120.73  1152.38  1172.53
                             1251.96  1317.49  1335.64  1366.77  1419.89
                             1429.56  1471.09  1520.90  1545.19  1585.24
                             1634.93  1653.42  1689.93  1727.31  1770.55
                             1838.35  1885.85  1920.96  1985.61  2008.55
                             2021.77  2115.19  2132.00  2143.13  2155.38
                             2636.16  4156.08  4373.36  4392.11  4479.08
                             4481.55  4493.04  4497.12  4550.40  4581.79
                             4629.14

 Zero-point correction=                           0.157958 (Hartree/Particle)
 Thermal correction to Energy=                    0.166475
 Thermal correction to Enthalpy=                  0.167419
 Thermal correction to Gibbs Free Energy=         0.124450
 Sum of electronic and zero-point Energies=           -423.027793
 Sum of electronic and thermal Energies=              -423.019275
 Sum of electronic and thermal Enthalpies=            -423.018331
 Sum of electronic and thermal Free Energies=         -423.061300

                     E (Thermal)             CV                S
                      KCal/Mol        Cal/Mol-Kelvin    Cal/Mol-Kelvin
 Total                  104.465             32.335             90.436
 Electronic               0.000              0.000              0.000
 Translational            0.889              2.981             40.409
 Rotational               0.889              2.981             28.569
 Vibrational            102.687             26.373             21.458
 Vibration     1          0.596              1.975              4.603
 Vibration     2          0.600              1.961              3.827
 Vibration     3          0.641              1.831              2.076
 Vibration     4          0.652              1.796              1.882
 Vibration     5          0.692              1.675              1.422
 Vibration     6          0.705              1.638              1.316
 Vibration     7          0.715              1.608              1.242
 Vibration     8          0.751              1.510              1.034
 Vibration     9          0.821              1.330              0.755
 Vibration    10          0.922              1.104              0.511
 Vibration    11          0.972              1.005              0.428

 Optimization completed.
    -- Stationary point found.
 Normal termination of Gaussian 09 at Mon Jan 27 17:14:27 2020.
