 Gaussian 09, Revision D.01,
 Gaussian 09:  ES64L-G09RevD.01 24-Apr-2013

 -----------------------------
 # b3lyp 6-31G(2df,p) opt Freq
 -----------------------------

 -----
 titel
 -----
 Symbolic Z-matrix:
 Charge =  0 Multiplicity = 1

 SCF Done:  E(RB3LYP) =  -423.172617775     A.U. after   14 cycles
 Optimization completed.
    -- Stationary point found.
 Normal termination of Gaussian 09 at Mon Jan 27 14:08:45 2020.

 ----------------------------------------------------------------------
 #N Geom=AllCheck Guess=TCheck SCRF=Check GenChk RB3LYP/6-31G(2df,p) Fr
 eq
 ----------------------------------------------------------------------

 Structure from the checkpoint file:  "/scratch/puck/g09_2e9fd87a-0c3c-452b-9711-c784d92a3bd3/Gau-171911.chk"
 -----
 titel
 -----
 Charge =  0 Multiplicity = 1

                         Standard orientation:
 ---------------------------------------------------------------------
 Center     Atomic      Atomic             Coordinates (Angstroms)
 Number     Number       Type             X           Y           Z
 ---------------------------------------------------------------------
      1          6           0       -2.890113   -0.659284   -0.282714
      2          6           0       -1.708862    0.248734    0.002722
      3          8           0       -1.743416    1.436542   -0.229010
      4          6           0       -0.466854   -0.435258    0.557225
      5          6           0        0.604492    0.542541    1.132687
      6          6           0        1.567359    0.120693    0.021281
      7          8           0        2.494184    0.943939   -0.580573
      8          6           0        1.798380   -1.350958    0.032037
      9          6           0        0.512935   -0.824063   -0.574876
     10          1           0       -3.659921   -0.116030   -0.831891
     11          1           0       -2.573957   -1.542981   -0.847641
     12          1           0       -3.307617   -1.023383    0.663723
     13          1           0       -0.754212   -1.273268    1.202497
     14          1           0        0.256594    1.571630    1.013338
     15          1           0        0.935483    0.375546    2.162387
     16          1           0        2.038880    1.743594   -0.869026
     17          1           0        2.528133   -1.683043   -0.699746
     18          1           0        1.787031   -1.925172    0.956751
     19          1           0        0.239421   -1.025174   -1.603897
 ---------------------------------------------------------------------

 SCF Done:  E(RB3LYP) =  -423.172617775     A.U. after    1 cycles

 The electronic state is 1-A.
 Alpha  occ. eigenvalues --  -19.14949 -19.13094 -10.27088 -10.24315 -10.20052
 Alpha  occ. eigenvalues --  -10.19717 -10.19130 -10.18846 -10.18402  -1.04162
 Alpha  occ. eigenvalues --   -1.03645  -0.89171  -0.76508  -0.73178  -0.66397
 Alpha  occ. eigenvalues --   -0.59478  -0.57665  -0.52734  -0.51270  -0.47818
 Alpha  occ. eigenvalues --   -0.47007  -0.44300  -0.43800  -0.42384  -0.40635
 Alpha  occ. eigenvalues --   -0.38741  -0.38035  -0.36733  -0.36146  -0.33136
 Alpha  occ. eigenvalues --   -0.31669  -0.28542  -0.24734  -0.23799
 Alpha virt. eigenvalues --   -0.01505   0.07996   0.09020   0.10945   0.11977
 Alpha virt. eigenvalues --    0.12352   0.13920   0.14663   0.15264   0.16348
 Alpha virt. eigenvalues --    0.17474   0.19273   0.19749   0.21821   0.22592

 Mulliken charges:
               1
     1  C   -0.481316
     2  C    0.371044
     3  O   -0.304847
     4  C   -0.092904
     5  C   -0.333950
     6  C    0.431639
     7  O   -0.457448
     8  C   -0.322044
     9  C   -0.141319
    10  H    0.141613
    11  H    0.139770
    12  H    0.144044
    13  H    0.074186
    14  H    0.125487
    15  H    0.095866
    16  H    0.289415
    17  H    0.122546
    18  H    0.103930
    19  H    0.094288
 Sum of Mulliken charges =   0.00000

 Dipole moment (field-independent basis, Debye):
    X=             -0.9589    Y=             -1.8455    Z=              0.2393  Tot=              2.0935
 Quadrupole moment (field-independent basis, Debye-Ang):
   XX=            -56.9813   YY=            -53.4692   ZZ=            -51.1634
   XY=              4.2748   XZ=             -0.6066   YZ=             -0.4077

  Exact polarizability:  87.653  -0.405  76.256   1.527  -0.623  64.970
 Approx polarizability: 113.215  -0.271 123.182   2.016  -3.427  98.930

                      1                      2                      3
                      A                      A                      A
 Frequencies --     43.0924                86.8992               136.2056
 Red. masses --      4.2866                 4.7748                 1.0437
 Frc consts  --      0.0047                 0.0212                 0.0114
 IR Inten    --      3.0131                 1.5949                 0.1910

                      4                      5                      6
                      A                      A                      A
 Frequencies --    186.2567               305.9269               329.4677
 Red. masses --      3.4324                 2.7738                 1.8641
 Frc consts  --      0.0702                 0.1530                 0.1192
 IR Inten    --      2.8715                 5.5118                21.1471

                      7                      8                      9
                      A                      A                      A
 Frequencies --    352.8726               391.7605               423.0352
 Red. masses --      3.3691                 1.6412                 2.1564
 Frc consts  --      0.2472                 0.1484                 0.2274
 IR Inten    --      8.7291                46.0742                31.5497

                     10                     11                     12
                      A                      A                      A
 Frequencies --    438.9743               566.9590               586.4925
 Red. masses --      2.5379                 2.8325                 3.4150
 Frc consts  --      0.2881                 0.5364                 0.6921
 IR Inten    --      3.4337                 8.7617                13.7347

                     13                     14                     15
                      A                      A                      A
 Frequencies --    641.5280               744.2063               784.8148
 Red. masses --      3.2910                 2.2625                 3.1151
 Frc consts  --      0.7980                 0.7383                 1.1305
 IR Inten    --      4.9103                 1.1313                 4.1614

                     16                     17                     18
                      A                      A                      A
 Frequencies --    839.7575               886.3194               925.0806
 Red. masses --      3.1444                 1.9239                 2.1372
 Frc consts  --      1.3065                 0.8905                 1.0776
 IR Inten    --      4.4290                 5.5155                 8.3244

                     19                     20                     21
                      A                      A                      A
 Frequencies --    942.1325               957.9469               984.3233
 Red. masses --      1.5323                 2.0155                 1.7803
 Frc consts  --      0.8014                 1.0897                 1.0163
 IR Inten    --      6.7589                 4.2309                10.9681

                     22                     23                     24
                      A                      A                      A
 Frequencies --   1014.5382              1031.8193              1060.2353
 Red. masses --      1.5149                 1.7089                 2.2149
 Frc consts  --      0.9187                 1.0719                 1.4669
 IR Inten    --      1.0316                 9.1918                 5.0451

                     25                     26                     27
                      A                      A                      A
 Frequencies --   1088.1135              1097.2901              1151.8857
 Red. masses --      1.7828                 1.7964                 1.2665
 Frc consts  --      1.2437                 1.2743                 0.9901
 IR Inten    --      5.9646                 9.7022                 1.2214

                     28                     29                     30
                      A                      A                      A
 Frequencies --   1181.8800              1205.5407              1213.0142
 Red. masses --      2.0454                 1.5221                 1.5198
 Frc consts  --      1.6833                 1.3033                 1.3176
 IR Inten    --    113.0055                 6.1655                11.7495

                     31                     32                     33
                      A                      A                      A
 Frequencies --   1247.0891              1258.8909              1330.5734
 Red. masses --      1.5821                 1.7988                 2.2630
 Frc consts  --      1.4497                 1.6796                 2.3605
 IR Inten    --     23.8669                 1.8657               151.2671

                     34                     35                     36
                      A                      A                      A
 Frequencies --   1356.7290              1381.5215              1425.4504
 Red. masses --      1.7488                 1.4134                 1.6155
 Frc consts  --      1.8966                 1.5894                 1.9340
 IR Inten    --     61.5204                57.3241                 8.6820

                     37                     38                     39
                      A                      A                      A
 Frequencies --   1462.2044              1470.4972              1474.9333
 Red. masses --      1.0541                 1.1294                 1.0516
 Frc consts  --      1.3278                 1.4389                 1.3478
 IR Inten    --     10.1701                 4.9804                 7.9134

                     40                     41                     42
                      A                      A                      A
 Frequencies --   1511.4040              1806.1211              3032.7098
 Red. masses --      1.5929                10.5296                 1.0491
 Frc consts  --      2.1439                20.2375                 5.6848
 IR Inten    --     17.5711               123.1890                 3.0630

                     43                     44                     45
                      A                      A                      A
 Frequencies --   3038.7409              3050.4879              3094.8122
 Red. masses --      1.0692                 1.0621                 1.0975
 Frc consts  --      5.8168                 5.8232                 6.1934
 IR Inten    --     31.9740                40.1310                 7.5357

                     46                     47                     48
                      A                      A                      A
 Frequencies --   3098.7733              3115.8437              3151.9863
 Red. masses --      1.0587                 1.1053                 1.1021
 Frc consts  --      5.9894                 6.3224                 6.4512
 IR Inten    --     21.9253                11.0077                11.2559

                     49                     50                     51
                      A                      A                      A
 Frequencies --   3181.3936              3201.8693              3789.1713
 Red. masses --      1.0935                 1.1100                 1.0657
 Frc consts  --      6.5211                 6.7047                 9.0153
 IR Inten    --      6.7379                 9.4104                21.0551

 - Thermochemistry -
 -------------------
 Temperature   298.150 Kelvin.  Pressure   1.00000 Atm.
 Atom     1 has atomic number  6 and mass  12.00000

 Molecular mass:   126.06808 amu.
 Principal axes and moments of inertia in atomic units:
                           1         2         3
     Eigenvalues --   541.132571616.340311842.54155
           X            0.99984   0.01704   0.00612
           Y           -0.01714   0.99972   0.01638
           Z           -0.00584  -0.01648   0.99985
 This molecule is an asymmetric top.
 Rotational symmetry number  1.
 Warning -- assumption of classical behavior for rotation
           may cause significant error
 Rotational temperatures (Kelvin)      0.16006     0.05359     0.04701
 Rotational constants (GHZ):           3.33512     1.11656     0.97948
 Zero-point vibrational energy     413187.6 (Joules/Mol)
                                   98.75420 (Kcal/Mol)
 Warning -- explicit consideration of  12 degrees of freedom as
           vibrations may cause significant error
 Vibrational temperatures:     62.00   125.03   195.97   267.98   440.16
          (Kelvin)            474.03   507.70   563.66   608.65   631.59
                              815.73   843.83   923.01  1070.75  1129.17
                             1208.22  1275.21  1330.98  1355.52  1378.27
                             1416.22  1459.69  1484.56  1525.44  1565.55
                             1578.75  1657.30  1700.46  1734.50  1745.25
                             1794.28  1811.26  1914.40  1952.03  1987.70
                             2050.90  2103.78  2115.71  2122.10  2174.57
                             2598.60  4363.39  4372.06  4388.97  4452.74
                             4458.44  4483.00  4535.00  4577.31  4606.77
                             5451.77

 Zero-point correction=                           0.157375 (Hartree/Particle)
 Thermal correction to Energy=                    0.166369
 Thermal correction to Enthalpy=                  0.167313
 Thermal correction to Gibbs Free Energy=         0.123070
 Sum of electronic and zero-point Energies=           -423.015243
 Sum of electronic and thermal Energies=              -423.006249
 Sum of electronic and thermal Enthalpies=            -423.005304
 Sum of electronic and thermal Free Energies=         -423.049547

                     E (Thermal)             CV                S
                      KCal/Mol        Cal/Mol-Kelvin    Cal/Mol-Kelvin
 Total                  104.398             33.794             93.117
 Electronic               0.000              0.000              0.000
 Translational            0.889              2.981             40.409
 Rotational               0.889              2.981             28.868
 Vibrational            102.621             27.832             23.840
 Vibration     1          0.595              1.980              5.112
 Vibration     2          0.601              1.958              3.729
 Vibration     3          0.614              1.917              2.857
 Vibration     4          0.632              1.859              2.265
 Vibration     5          0.696              1.662              1.384
 Vibration     6          0.712              1.617              1.263
 Vibration     7          0.729              1.569              1.153
 Vibration     8          0.759              1.488              0.993
 Vibration     9          0.785              1.420              0.882
 Vibration    10          0.799              1.385              0.830
 Vibration    11          0.923              1.103              0.510
 Vibration    12          0.944              1.061              0.473

 Normal termination of Gaussian 09 at Mon Jan 27 14:49:54 2020.
