 Gaussian 09, Revision D.01,
 Gaussian 09:  ES64L-G09RevD.01 24-Apr-2013

 -----------------------------
 # b3lyp 6-31G(2df,p) opt Freq
 -----------------------------

 -----
 titel
 -----
 Symbolic Z-matrix:
 Charge =  0 Multiplicity = 1

 SCF Done:  E(RB3LYP) =  -423.155857183     A.U. after   14 cycles
 Optimization completed.
    -- Stationary point found.
 Normal termination of Gaussian 09 at Mon Jan 27 15:39:17 2020.

 ----------------------------------------------------------------------
 #N Geom=AllCheck Guess=TCheck SCRF=Check GenChk RB3LYP/6-31G(2df,p) Fr
 eq
 ----------------------------------------------------------------------

 Structure from the checkpoint file:  "/scratch/puck/g09_de31bde6-ec1e-4655-ab04-45169456938e/Gau-175677.chk"
 -----
 titel
 -----
 Charge =  0 Multiplicity = 1

                         Standard orientation:
 ---------------------------------------------------------------------
 Center     Atomic      Atomic             Coordinates (Angstroms)
 Number     Number       Type             X           Y           Z
 ---------------------------------------------------------------------
      1          8           0       -1.235458    1.776101   -0.418366
      2          6           0       -0.979988    0.386534   -0.531740
      3          6           0       -2.064915   -0.319717    0.272466
      4          8           0       -2.331868   -1.486004    0.149704
      5          6           0        0.371413   -0.009215    0.024697
      6          6           0        0.951883    0.610574    1.265756
      7          6           0        1.707961    0.745709   -0.029513
      8          6           0        2.446495   -0.560194   -0.349833
      9          6           0        1.086011   -1.330969   -0.288112
     10          1           0       -0.555606    2.241311   -0.916438
     11          1           0       -1.060236    0.040407   -1.574352
     12          1           0       -2.568249    0.338023    1.015301
     13          1           0        0.448977    1.513566    1.595217
     14          1           0        1.339543   -0.016028    2.066277
     15          1           0        1.934806    1.719709   -0.450143
     16          1           0        2.883443   -0.575290   -1.350471
     17          1           0        3.215835   -0.856014    0.370733
     18          1           0        0.800313   -1.747708   -1.256702
     19          1           0        0.986622   -2.115096    0.467549
 ---------------------------------------------------------------------

 SCF Done:  E(RB3LYP) =  -423.155857183     A.U. after    1 cycles

 The electronic state is 1-A.
 Alpha  occ. eigenvalues --  -19.15507 -19.14148 -10.26969 -10.24635 -10.20639
 Alpha  occ. eigenvalues --  -10.20105 -10.19140 -10.19046 -10.18919  -1.05178
 Alpha  occ. eigenvalues --   -1.03532  -0.90261  -0.74618  -0.73191  -0.65222
 Alpha  occ. eigenvalues --   -0.60479  -0.56969  -0.53334  -0.52658  -0.50916
 Alpha  occ. eigenvalues --   -0.46741  -0.45317  -0.44710  -0.42790  -0.39109
 Alpha  occ. eigenvalues --   -0.38743  -0.38004  -0.37405  -0.33742  -0.33489
 Alpha  occ. eigenvalues --   -0.29620  -0.28135  -0.27640  -0.24156
 Alpha virt. eigenvalues --   -0.02435   0.05872   0.09733   0.10366   0.10928
 Alpha virt. eigenvalues --    0.12784   0.13715   0.13995   0.15404   0.16167
 Alpha virt. eigenvalues --    0.17046   0.19557   0.19765   0.21089   0.22711

 Mulliken charges:
               1
     1  O   -0.427990
     2  C   -0.094968
     3  C    0.161954
     4  O   -0.249400
     5  C    0.371605
     6  C   -0.315515
     7  C   -0.137669
     8  C   -0.218516
     9  C   -0.295731
    10  H    0.291885
    11  H    0.088144
    12  H    0.090885
    13  H    0.122685
    14  H    0.107510
    15  H    0.079150
    16  H    0.105767
    17  H    0.101470
    18  H    0.110596
    19  H    0.108137
 Sum of Mulliken charges =   0.00000

 Dipole moment (field-independent basis, Debye):
    X=              2.2925    Y=              1.7399    Z=             -0.8448  Tot=              2.9994
 Quadrupole moment (field-independent basis, Debye-Ang):
   XX=            -58.0005   YY=            -55.6932   ZZ=            -50.5227
   XY=             -2.9297   XZ=             -0.5632   YZ=             -1.4752

  Exact polarizability:  84.353   1.281  76.579  -2.885   2.491  67.322
 Approx polarizability: 113.324   6.397 119.290  -3.477   3.848 102.432

                      1                      2                      3
                      A                      A                      A
 Frequencies --     55.1465                64.9360               145.7380
 Red. masses --      4.2093                 4.0381                 2.3785
 Frc consts  --      0.0075                 0.0100                 0.0298
 IR Inten    --      8.8204                 4.0265                 2.7774

                      4                      5                      6
                      A                      A                      A
 Frequencies --    196.3913               232.6873               289.5361
 Red. masses --      3.0687                 3.3199                 1.2368
 Frc consts  --      0.0697                 0.1059                 0.0611
 IR Inten    --      7.7728                 1.8258                92.7392

                      7                      8                      9
                      A                      A                      A
 Frequencies --    300.9330               385.5433               427.9790
 Red. masses --      1.8844                 2.8887                 3.2738
 Frc consts  --      0.1005                 0.2530                 0.3533
 IR Inten    --     25.1163                 9.7751                10.9447

                     10                     11                     12
                      A                      A                      A
 Frequencies --    454.1000               558.0087               683.3155
 Red. masses --      2.7423                 4.9042                 3.2946
 Frc consts  --      0.3332                 0.8997                 0.9063
 IR Inten    --      5.7907                 8.5411                 3.9330

                     13                     14                     15
                      A                      A                      A
 Frequencies --    714.4561               784.2684               839.7591
 Red. masses --      3.4675                 1.2226                 3.0763
 Frc consts  --      1.0428                 0.4431                 1.2782
 IR Inten    --      2.3887                 0.4381                 0.8789

                     16                     17                     18
                      A                      A                      A
 Frequencies --    870.5333               926.3711               947.5266
 Red. masses --      1.7919                 1.9632                 1.8641
 Frc consts  --      0.8001                 0.9926                 0.9861
 IR Inten    --      9.2916                 2.1840                 1.8966

                     19                     20                     21
                      A                      A                      A
 Frequencies --    969.6016               986.0084              1012.0516
 Red. masses --      1.6961                 2.4191                 1.5965
 Frc consts  --      0.9395                 1.3857                 0.9635
 IR Inten    --      2.7376                36.5414                 3.6782

                     22                     23                     24
                      A                      A                      A
 Frequencies --   1029.1403              1048.2134              1090.4809
 Red. masses --      1.6819                 1.5174                 1.4980
 Frc consts  --      1.0496                 0.9823                 1.0495
 IR Inten    --     11.5533                15.7134                 2.3196

                     25                     26                     27
                      A                      A                      A
 Frequencies --   1095.5325              1111.8208              1154.6730
 Red. masses --      3.3289                 2.2236                 1.6933
 Frc consts  --      2.3540                 1.6195                 1.3302
 IR Inten    --     43.6139                13.1734                 1.5440

                     28                     29                     30
                      A                      A                      A
 Frequencies --   1200.7577              1222.2729              1227.7902
 Red. masses --      1.7577                 1.2206                 1.1912
 Frc consts  --      1.4931                 1.0744                 1.0580
 IR Inten    --     10.3889                 1.3763                35.6246

                     31                     32                     33
                      A                      A                      A
 Frequencies --   1242.5067              1266.7262              1287.8545
 Red. masses --      1.5472                 1.7738                 1.5848
 Frc consts  --      1.4073                 1.6770                 1.5487
 IR Inten    --      9.7491                 0.6298                 5.5039

                     34                     35                     36
                      A                      A                      A
 Frequencies --   1337.9376              1365.4221              1386.5437
 Red. masses --      1.6633                 1.3221                 2.1073
 Frc consts  --      1.7542                 1.4523                 2.3869
 IR Inten    --     23.4432                18.6218                 6.2195

                     37                     38                     39
                      A                      A                      A
 Frequencies --   1415.4677              1479.4519              1482.7220
 Red. masses --      1.4005                 1.2348                 1.0960
 Frc consts  --      1.6533                 1.5924                 1.4196
 IR Inten    --      0.6595                 2.8697                 0.1787

                     40                     41                     42
                      A                      A                      A
 Frequencies --   1508.8233              1837.2058              2894.6443
 Red. masses --      1.1987                10.6649                 1.0846
 Frc consts  --      1.6078                21.2090                 5.3543
 IR Inten    --      0.4491               138.6974                86.3182

                     43                     44                     45
                      A                      A                      A
 Frequencies --   2979.4978              3048.3966              3060.9018
 Red. masses --      1.0826                 1.0610                 1.0605
 Frc consts  --      5.6625                 5.8088                 5.8540
 IR Inten    --     38.0077                50.8940                38.3749

                     46                     47                     48
                      A                      A                      A
 Frequencies --   3099.8850              3106.1814              3118.1059
 Red. masses --      1.1056                 1.0581                 1.1050
 Frc consts  --      6.2594                 6.0147                 6.3298
 IR Inten    --      1.3837                15.2772                38.5156

                     49                     50                     51
                      A                      A                      A
 Frequencies --   3161.6184              3208.4961              3821.6141
 Red. masses --      1.0925                 1.1113                 1.0661
 Frc consts  --      6.4339                 6.7402                 9.1736
 IR Inten    --     21.6006                 6.3531                20.1372

 - Thermochemistry -
 -------------------
 Temperature   298.150 Kelvin.  Pressure   1.00000 Atm.
 Atom     1 has atomic number  8 and mass  15.99491

 Molecular mass:   126.06808 amu.
 Principal axes and moments of inertia in atomic units:
                           1         2         3
     Eigenvalues --   672.439441378.493931734.05763
           X            0.99954  -0.03019  -0.00386
           Y            0.03024   0.99943   0.01510
           Z            0.00340  -0.01521   0.99988
 This molecule is an asymmetric top.
 Rotational symmetry number  1.
 Warning -- assumption of classical behavior for rotation
           may cause significant error
 Rotational temperatures (Kelvin)      0.12881     0.06283     0.04995
 Rotational constants (GHZ):           2.68387     1.30921     1.04076
 Zero-point vibrational energy     413522.6 (Joules/Mol)
                                   98.83427 (Kcal/Mol)
 Warning -- explicit consideration of  11 degrees of freedom as
           vibrations may cause significant error
 Vibrational temperatures:     79.34    93.43   209.68   282.56   334.78
          (Kelvin)            416.58   432.97   554.71   615.77   653.35
                              802.85   983.14  1027.94  1128.39  1208.22
                             1252.50  1332.84  1363.28  1395.04  1418.64
                             1456.11  1480.70  1508.14  1568.96  1576.23
                             1599.66  1661.31  1727.62  1758.58  1766.51
                             1787.69  1822.53  1852.93  1924.99  1964.54
                             1994.92  2036.54  2128.60  2133.30  2170.86
                             2643.33  4164.74  4286.83  4385.96  4403.95
                             4460.04  4469.10  4486.25  4548.86  4616.30
                             5498.44

 Zero-point correction=                           0.157502 (Hartree/Particle)
 Thermal correction to Energy=                    0.166537
 Thermal correction to Enthalpy=                  0.167481
 Thermal correction to Gibbs Free Energy=         0.123072
 Sum of electronic and zero-point Energies=           -422.998355
 Sum of electronic and thermal Energies=              -422.989321
 Sum of electronic and thermal Enthalpies=            -422.988376
 Sum of electronic and thermal Free Energies=         -423.032785

                     E (Thermal)             CV                S
                      KCal/Mol        Cal/Mol-Kelvin    Cal/Mol-Kelvin
 Total                  104.503             33.292             93.467
 Electronic               0.000              0.000              0.000
 Translational            0.889              2.981             40.409
 Rotational               0.889              2.981             28.865
 Vibrational            102.726             27.330             24.193
 Vibration     1          0.596              1.976              4.624
 Vibration     2          0.597              1.971              4.301
 Vibration     3          0.617              1.907              2.727
 Vibration     4          0.636              1.845              2.167
 Vibration     5          0.653              1.791              1.858
 Vibration     6          0.686              1.693              1.477
 Vibration     7          0.693              1.672              1.412
 Vibration     8          0.754              1.501              1.017
 Vibration     9          0.789              1.409              0.865
 Vibration    10          0.813              1.352              0.783
 Vibration    11          0.914              1.122              0.528

 Normal termination of Gaussian 09 at Mon Jan 27 16:21:24 2020.
