 Gaussian 09, Revision D.01,
 Gaussian 09:  ES64L-G09RevD.01 24-Apr-2013

 -----------------------------
 # b3lyp 6-31G(2df,p) opt Freq
 -----------------------------

 -----
 titel
 -----
 Symbolic Z-matrix:
 Charge =  0 Multiplicity = 1

 SCF Done:  E(RB3LYP) =  -423.084551903     A.U. after   14 cycles
 SCF Done:  E(RB3LYP) =  -423.084552165     A.U. after    6 cycles
 Optimization completed.
    -- Stationary point found.
 Normal termination of Gaussian 09 at Tue Jan 28 13:33:15 2020.

 ----------------------------------------------------------------------
 #N Geom=AllCheck Guess=TCheck SCRF=Check GenChk RB3LYP/6-31G(2df,p) Fr
 eq
 ----------------------------------------------------------------------

 Structure from the checkpoint file:  "/scratch/puck/g09_20363475-bcc4-4bde-9c0b-2cc1cafeb791/Gau-31057.chk"
 -----
 titel
 -----
 Charge =  0 Multiplicity = 1

                         Standard orientation:
 ---------------------------------------------------------------------
 Center     Atomic      Atomic             Coordinates (Angstroms)
 Number     Number       Type             X           Y           Z
 ---------------------------------------------------------------------
      1          8           0        2.183330   -1.325087    0.042416
      2          6           0        2.151420    0.043753   -0.322304
      3          6           0        1.107150    0.784988    0.478323
      4          6           0        0.277809    1.937786   -0.088762
      5          6           0       -0.315626    0.585261    0.100944
      6          6           0       -0.962226   -0.445802   -0.838845
      7          6           0       -2.359718    0.065353   -0.413690
      8          6           0       -1.476482   -0.080136    0.848834
      9          8           0       -0.998194   -1.392351    0.312262
     10          1           0        1.268104   -1.597162    0.205162
     11          1           0        3.155470    0.444079   -0.141308
     12          1           0        1.942467    0.171440   -1.399161
     13          1           0        1.314042    0.836267    1.544915
     14          1           0        0.006413    2.741652    0.587857
     15          1           0        0.481454    2.262345   -1.105301
     16          1           0       -0.624998   -0.835680   -1.798946
     17          1           0       -2.647419    1.073942   -0.717541
     18          1           0       -3.165139   -0.664303   -0.504188
     19          1           0       -1.745447   -0.040290    1.904087
 ---------------------------------------------------------------------

 SCF Done:  E(RB3LYP) =  -423.084552165     A.U. after    1 cycles

 The electronic state is 1-A.
 Alpha  occ. eigenvalues --  -19.14601 -19.11638 -10.25918 -10.25819 -10.22344
 Alpha  occ. eigenvalues --  -10.21175 -10.20189 -10.19892 -10.19357  -1.06414
 Alpha  occ. eigenvalues --   -0.99983  -0.86935  -0.78325  -0.68775  -0.66329
 Alpha  occ. eigenvalues --   -0.64550  -0.59045  -0.53256  -0.52435  -0.50224
 Alpha  occ. eigenvalues --   -0.48167  -0.44475  -0.43239  -0.41459  -0.40514
 Alpha  occ. eigenvalues --   -0.39083  -0.36718  -0.34405  -0.33105  -0.32129
 Alpha  occ. eigenvalues --   -0.30558  -0.28321  -0.25497  -0.24799
 Alpha virt. eigenvalues --    0.07174   0.08381   0.09991   0.10772   0.11647
 Alpha virt. eigenvalues --    0.12059   0.13035   0.14040   0.15649   0.15935
 Alpha virt. eigenvalues --    0.16145   0.17727   0.18980   0.20244   0.20422

 Mulliken charges:
               1
     1  O   -0.433877
     2  C   -0.064014
     3  C   -0.137229
     4  C   -0.420792
     5  C    0.459665
     6  C   -0.048518
     7  C   -0.219781
     8  C   -0.052986
     9  O   -0.313267
    10  H    0.288897
    11  H    0.103331
    12  H    0.071196
    13  H    0.097163
    14  H    0.120482
    15  H    0.120156
    16  H    0.108763
    17  H    0.105996
    18  H    0.111376
    19  H    0.103438
 Sum of Mulliken charges =   0.00000

 Dipole moment (field-independent basis, Debye):
    X=             -2.0509    Y=              2.7532    Z=             -0.3736  Tot=              3.4534
 Quadrupole moment (field-independent basis, Debye-Ang):
   XX=            -56.1668   YY=            -56.8862   ZZ=            -49.7681
   XY=              2.7322   XZ=             -0.4784   YZ=              1.3683

  Exact polarizability:  86.544   1.746  74.500   0.184  -0.162  67.600
 Approx polarizability: 113.892   0.121 115.988  -0.037  -2.631 106.517

                      1                      2                      3
                      A                      A                      A
 Frequencies --    100.6255               120.1983               185.0098
 Red. masses --      6.0809                 4.6350                 2.2994
 Frc consts  --      0.0363                 0.0395                 0.0464
 IR Inten    --      2.4744                 1.4768                 1.2056

                      4                      5                      6
                      A                      A                      A
 Frequencies --    229.8021               315.5364               397.0258
 Red. masses --      3.8184                 2.6530                 2.4786
 Frc consts  --      0.1188                 0.1556                 0.2302
 IR Inten    --      2.8731                 1.0424                 0.6589

                      7                      8                      9
                      A                      A                      A
 Frequencies --    436.7926               529.4636               549.0808
 Red. masses --      3.4538                 1.1722                 2.2297
 Frc consts  --      0.3882                 0.1936                 0.3961
 IR Inten    --      3.1786                48.4035                15.4064

                     10                     11                     12
                      A                      A                      A
 Frequencies --    595.0672               675.1298               724.5282
 Red. masses --      3.2817                 3.4989                 4.9706
 Frc consts  --      0.6847                 0.9396                 1.5373
 IR Inten    --      2.6022                12.3985                16.8336

                     13                     14                     15
                      A                      A                      A
 Frequencies --    788.7217               823.4211               864.4060
 Red. masses --      2.4244                 1.6431                 2.9274
 Frc consts  --      0.8886                 0.6564                 1.2887
 IR Inten    --      0.9044                 0.5633                31.1230

                     16                     17                     18
                      A                      A                      A
 Frequencies --    875.2146               916.2504               951.8994
 Red. masses --      2.1054                 2.3222                 1.7510
 Frc consts  --      0.9502                 1.1486                 0.9348
 IR Inten    --      4.3783                14.1665                 5.0081

                     19                     20                     21
                      A                      A                      A
 Frequencies --    981.3416              1007.1567              1029.9987
 Red. masses --      2.8972                 1.9146                 1.0417
 Frc consts  --      1.6439                 1.1443                 0.6511
 IR Inten    --      2.1939                 2.1621                 0.1002

                     22                     23                     24
                      A                      A                      A
 Frequencies --   1045.8466              1062.3059              1072.1364
 Red. masses --      1.6085                 2.0926                 2.7013
 Frc consts  --      1.0366                 1.3914                 1.8294
 IR Inten    --     20.6049                17.1859                48.5216

                     25                     26                     27
                      A                      A                      A
 Frequencies --   1087.6770              1119.9236              1135.6286
 Red. masses --      3.0374                 1.4331                 2.6722
 Frc consts  --      2.1172                 1.0590                 2.0305
 IR Inten    --     23.6853                 9.2559                 6.6870

                     28                     29                     30
                      A                      A                      A
 Frequencies --   1167.0770              1169.5747              1170.9609
 Red. masses --      1.6671                 1.4746                 1.5065
 Frc consts  --      1.3378                 1.1885                 1.2171
 IR Inten    --      2.0603                 3.4412                 2.2791

                     31                     32                     33
                      A                      A                      A
 Frequencies --   1215.6501              1229.8274              1248.1285
 Red. masses --      1.5330                 1.5433                 1.3179
 Frc consts  --      1.3348                 1.3752                 1.2096
 IR Inten    --     11.1500                10.9739                13.1389

                     34                     35                     36
                      A                      A                      A
 Frequencies --   1264.4136              1330.2760              1375.0779
 Red. masses --      1.5526                 1.4132                 1.3262
 Frc consts  --      1.4625                 1.4734                 1.4774
 IR Inten    --      1.9318                 2.4346                 2.7150

                     37                     38                     39
                      A                      A                      A
 Frequencies --   1436.1903              1457.3540              1479.5879
 Red. masses --      1.3035                 1.2752                 1.1607
 Frc consts  --      1.5841                 1.5957                 1.4971
 IR Inten    --     12.1310                78.9546                 1.9287

                     40                     41                     42
                      A                      A                      A
 Frequencies --   1513.8132              1520.3730              2945.9104
 Red. masses --      1.6188                 1.5548                 1.0727
 Frc consts  --      2.1857                 2.1175                 5.4846
 IR Inten    --      1.1214                 0.8413                59.5236

                     43                     44                     45
                      A                      A                      A
 Frequencies --   3055.4767              3071.9714              3121.6007
 Red. masses --      1.0885                 1.0544                 1.0545
 Frc consts  --      5.9875                 5.8627                 6.0539
 IR Inten    --     51.6278                31.3793                11.3320

                     46                     47                     48
                      A                      A                      A
 Frequencies --   3124.7408              3129.2317              3137.4901
 Red. masses --      1.0903                 1.0970                 1.0882
 Frc consts  --      6.2724                 6.3288                 6.3111
 IR Inten    --     66.3097                 2.1805                13.6902

                     49                     50                     51
                      A                      A                      A
 Frequencies --   3154.0646              3206.0344              3715.5767
 Red. masses --      1.1118                 1.1155                 1.0668
 Frc consts  --      6.5164                 6.7555                 8.6772
 IR Inten    --     21.3482                 7.3532                88.6436

 - Thermochemistry -
 -------------------
 Temperature   298.150 Kelvin.  Pressure   1.00000 Atm.
 Atom     1 has atomic number  8 and mass  15.99491

 Molecular mass:   126.06808 amu.
 Principal axes and moments of inertia in atomic units:
                           1         2         3
     Eigenvalues --   625.698501233.279401583.06870
           X            0.99995   0.01026  -0.00035
           Y           -0.01026   0.99992   0.00721
           Z            0.00042  -0.00720   0.99997
 This molecule is an asymmetric top.
 Rotational symmetry number  1.
 Warning -- assumption of classical behavior for rotation
           may cause significant error
 Rotational temperatures (Kelvin)      0.13843     0.07023     0.05471
 Rotational constants (GHZ):           2.88436     1.46337     1.14003
 Zero-point vibrational energy     417859.1 (Joules/Mol)
                                   99.87073 (Kcal/Mol)
 Warning -- explicit consideration of  10 degrees of freedom as
           vibrations may cause significant error
 Vibrational temperatures:    144.78   172.94   266.19   330.63   453.99
          (Kelvin)            571.23   628.45   761.78   790.00   856.17
                              971.36  1042.43  1134.79  1184.72  1243.69
                             1259.24  1318.28  1369.57  1411.93  1449.07
                             1481.94  1504.74  1528.42  1542.56  1564.92
                             1611.32  1633.91  1679.16  1682.75  1684.75
                             1749.05  1769.45  1795.78  1819.21  1913.97
                             1978.43  2066.35  2096.80  2128.79  2178.04
                             2187.47  4238.50  4396.14  4419.88  4491.28
                             4495.80  4502.26  4514.14  4537.99  4612.76
                             5345.88

 Zero-point correction=                           0.159154 (Hartree/Particle)
 Thermal correction to Energy=                    0.167083
 Thermal correction to Enthalpy=                  0.168028
 Thermal correction to Gibbs Free Energy=         0.126655
 Sum of electronic and zero-point Energies=           -422.925398
 Sum of electronic and thermal Energies=              -422.917469
 Sum of electronic and thermal Enthalpies=            -422.916525
 Sum of electronic and thermal Free Energies=         -422.957897

                     E (Thermal)             CV                S
                      KCal/Mol        Cal/Mol-Kelvin    Cal/Mol-Kelvin
 Total                  104.846             31.236             87.077
 Electronic               0.000              0.000              0.000
 Translational            0.889              2.981             40.409
 Rotational               0.889              2.981             28.592
 Vibrational            103.069             25.274             18.075
 Vibration     1          0.604              1.949              3.442
 Vibration     2          0.609              1.932              3.097
 Vibration     3          0.631              1.860              2.277
 Vibration     4          0.652              1.795              1.880
 Vibration     5          0.703              1.644              1.333
 Vibration     6          0.764              1.477              0.974
 Vibration     7          0.797              1.390              0.837
 Vibration     8          0.884              1.185              0.588
 Vibration     9          0.904              1.142              0.546
 Vibration    10          0.953              1.042              0.458

 Optimization completed.
    -- Stationary point found.
 Normal termination of Gaussian 09 at Tue Jan 28 14:16:44 2020.
