 Gaussian 09, Revision D.01,
 Gaussian 09:  ES64L-G09RevD.01 24-Apr-2013

 -----------------------------
 # b3lyp 6-31G(2df,p) opt Freq
 -----------------------------

 -----
 titel
 -----
 Symbolic Z-matrix:
 Charge =  0 Multiplicity = 1

 SCF Done:  E(RB3LYP) =  -423.130225637     A.U. after   13 cycles
 Optimization completed.
    -- Stationary point found.
 Normal termination of Gaussian 09 at Tue Jan 28 14:08:59 2020.

 ----------------------------------------------------------------------
 #N Geom=AllCheck Guess=TCheck SCRF=Check GenChk RB3LYP/6-31G(2df,p) Fr
 eq
 ----------------------------------------------------------------------

 Structure from the checkpoint file:  "/scratch/puck/g09_59e180d6-90a8-48a8-ae0e-dfe38f60067f/Gau-10948.chk"
 -----
 titel
 -----
 Charge =  0 Multiplicity = 1

                         Standard orientation:
 ---------------------------------------------------------------------
 Center     Atomic      Atomic             Coordinates (Angstroms)
 Number     Number       Type             X           Y           Z
 ---------------------------------------------------------------------
      1          6           0       -2.906586   -0.293922   -0.368465
      2          8           0       -1.847577    0.520875    0.082325
      3          6           0       -0.766788   -0.205856    0.596398
      4          6           0        0.466438    0.618345    1.022993
      5          6           0        0.810193    1.373686   -0.277767
      6          6           0        1.153560    0.082872   -1.045781
      7          8           0        2.306789   -0.397102   -0.284677
      8          6           0        1.336158   -0.698092    0.719622
      9          6           0        0.217708   -0.963164   -0.316971
     10          1           0       -3.310580   -0.920183    0.442396
     11          1           0       -3.696869    0.368856   -0.728577
     12          1           0       -2.595754   -0.955206   -1.190995
     13          1           0       -1.102646   -0.879635    1.401315
     14          1           0        0.496313    1.148181    1.972354
     15          1           0       -0.040407    1.929526   -0.672096
     16          1           0        1.689530    2.015292   -0.200323
     17          1           0        1.314577    0.100875   -2.122138
     18          1           0        1.666138   -1.352635    1.523628
     19          1           0        0.041905   -1.928476   -0.786922
 ---------------------------------------------------------------------

 SCF Done:  E(RB3LYP) =  -423.130225637     A.U. after    1 cycles

 The electronic state is 1-A.
 Alpha  occ. eigenvalues --  -19.14413 -19.13135 -10.23800 -10.23775 -10.23524
 Alpha  occ. eigenvalues --  -10.22792 -10.19033 -10.19007 -10.17686  -1.05406
 Alpha  occ. eigenvalues --   -1.03686  -0.85186  -0.72742  -0.70151  -0.68226
 Alpha  occ. eigenvalues --   -0.61352  -0.56143  -0.53547  -0.52082  -0.49874
 Alpha  occ. eigenvalues --   -0.48023  -0.46280  -0.42941  -0.42398  -0.41086
 Alpha  occ. eigenvalues --   -0.37215  -0.35923  -0.34911  -0.33303  -0.31419
 Alpha  occ. eigenvalues --   -0.30535  -0.29985  -0.25838  -0.23616
 Alpha virt. eigenvalues --    0.08160   0.08971   0.11062   0.12691   0.13358
 Alpha virt. eigenvalues --    0.14532   0.14948   0.15244   0.16302   0.16735
 Alpha virt. eigenvalues --    0.17294   0.17942   0.18841   0.19180   0.20585

 Mulliken charges:
               1
     1  C   -0.242180
     2  O   -0.248930
     3  C    0.166823
     4  C   -0.156039
     5  C   -0.206665
     6  C    0.068960
     7  O   -0.293032
     8  C    0.104861
     9  C   -0.137894
    10  H    0.105677
    11  H    0.128814
    12  H    0.108244
    13  H    0.065201
    14  H    0.071111
    15  H    0.118712
    16  H    0.104091
    17  H    0.081228
    18  H    0.086251
    19  H    0.074767
 Sum of Mulliken charges =   0.00000

 Dipole moment (field-independent basis, Debye):
    X=             -1.7491    Y=             -0.8462    Z=              0.0856  Tot=              1.9449
 Quadrupole moment (field-independent basis, Debye-Ang):
   XX=            -56.8474   YY=            -52.6118   ZZ=            -50.1689
   XY=              3.1413   XZ=              1.8769   YZ=             -1.0294

  Exact polarizability:  82.270   1.723  69.806   0.740  -1.492  70.572
 Approx polarizability: 111.968  -0.785 105.333   0.479  -1.862 107.666

                      1                      2                      3
                      A                      A                      A
 Frequencies --     80.8981               173.8781               190.7632
 Red. masses --      2.8836                 1.5346                 2.4607
 Frc consts  --      0.0111                 0.0273                 0.0528
 IR Inten    --      1.3279                 1.1116                 1.5765

                      4                      5                      6
                      A                      A                      A
 Frequencies --    254.8650               367.9719               496.1448
 Red. masses --      2.4979                 3.2218                 2.1757
 Frc consts  --      0.0956                 0.2570                 0.3155
 IR Inten    --      5.4650                 1.1501                 1.8359

                      7                      8                      9
                      A                      A                      A
 Frequencies --    529.9064               560.1735               714.3772
 Red. masses --      5.3454                 4.0835                 3.9260
 Frc consts  --      0.8844                 0.7550                 1.1805
 IR Inten    --      5.1777                 2.4675                 0.1519

                     10                     11                     12
                      A                      A                      A
 Frequencies --    736.9185               769.4744               830.7119
 Red. masses --      5.0805                 2.6553                 1.8459
 Frc consts  --      1.6255                 0.9263                 0.7505
 IR Inten    --      4.4430                 4.1913                 8.5340

                     13                     14                     15
                      A                      A                      A
 Frequencies --    845.1491               854.0212               913.4717
 Red. masses --      2.6273                 4.0232                 2.2668
 Frc consts  --      1.1057                 1.7288                 1.1144
 IR Inten    --      6.4253                13.1464                 5.6268

                     16                     17                     18
                      A                      A                      A
 Frequencies --    932.9760               970.0777               975.2315
 Red. masses --      2.5551                 2.0254                 2.9477
 Frc consts  --      1.3104                 1.1230                 1.6518
 IR Inten    --     19.5176                 8.4593                16.0094

                     19                     20                     21
                      A                      A                      A
 Frequencies --   1007.1152              1014.0719              1040.5380
 Red. masses --      1.7420                 1.8988                 2.7442
 Frc consts  --      1.0410                 1.1505                 1.7506
 IR Inten    --      3.9525                 3.6023                33.0057

                     22                     23                     24
                      A                      A                      A
 Frequencies --   1045.3792              1072.8587              1140.1684
 Red. masses --      3.2551                 1.5700                 1.7094
 Frc consts  --      2.0958                 1.0647                 1.3093
 IR Inten    --     21.0843                 5.2727                30.1360

                     25                     26                     27
                      A                      A                      A
 Frequencies --   1154.6538              1156.5160              1171.5726
 Red. masses --      1.7678                 1.8318                 1.8277
 Frc consts  --      1.3886                 1.4435                 1.4781
 IR Inten    --     71.7525                15.6534                63.4670

                     28                     29                     30
                      A                      A                      A
 Frequencies --   1184.9451              1204.6597              1225.0483
 Red. masses --      1.3151                 1.7429                 1.4864
 Frc consts  --      1.0880                 1.4902                 1.3143
 IR Inten    --      3.4073                12.0039                 3.4499

                     31                     32                     33
                      A                      A                      A
 Frequencies --   1238.0362              1247.3883              1265.4366
 Red. masses --      1.6260                 1.6168                 1.4847
 Frc consts  --      1.4683                 1.4822                 1.4008
 IR Inten    --     30.9235                20.8049                10.3169

                     34                     35                     36
                      A                      A                      A
 Frequencies --   1317.5523              1323.5103              1335.3567
 Red. masses --      1.7513                 1.5728                 1.6341
 Frc consts  --      1.7912                 1.6232                 1.7168
 IR Inten    --      2.8031                 0.3508                18.7432

                     37                     38                     39
                      A                      A                      A
 Frequencies --   1401.0253              1474.5598              1486.6842
 Red. masses --      1.2945                 1.1138                 1.1069
 Frc consts  --      1.4971                 1.4268                 1.4415
 IR Inten    --     39.3756                 4.9729                 6.0177

                     40                     41                     42
                      A                      A                      A
 Frequencies --   1488.9889              1509.9652              2971.5867
 Red. masses --      1.0928                 1.0674                 1.0622
 Frc consts  --      1.4275                 1.4339                 5.5264
 IR Inten    --      2.7067                 5.4075                30.1332

                     43                     44                     45
                      A                      A                      A
 Frequencies --   2979.9110              3024.7981              3086.8372
 Red. masses --      1.0572                 1.1020                 1.0587
 Frc consts  --      5.5312                 5.9407                 5.9438
 IR Inten    --     80.7945                49.0394                19.7834

                     46                     47                     48
                      A                      A                      A
 Frequencies --   3116.7798              3134.1106              3139.0384
 Red. masses --      1.0965                 1.0898                 1.0898
 Frc consts  --      6.2757                 6.3068                 6.3270
 IR Inten    --     28.2938                10.2829                37.0348

                     49                     50                     51
                      A                      A                      A
 Frequencies --   3142.9745              3150.3645              3151.7541
 Red. masses --      1.0903                 1.1065                 1.0965
 Frc consts  --      6.3456                 6.4702                 6.4172
 IR Inten    --     62.3161                15.6796                11.7543

 - Thermochemistry -
 -------------------
 Temperature   298.150 Kelvin.  Pressure   1.00000 Atm.
 Atom     1 has atomic number  6 and mass  12.00000

 Molecular mass:   126.06808 amu.
 Principal axes and moments of inertia in atomic units:
                           1         2         3
     Eigenvalues --   454.762881408.287921453.86078
           X            0.99961   0.02617   0.00955
           Y           -0.02545   0.99730  -0.06893
           Z           -0.01133   0.06866   0.99758
 This molecule is an asymmetric top.
 Rotational symmetry number  1.
 Warning -- assumption of classical behavior for rotation
           may cause significant error
 Rotational temperatures (Kelvin)      0.19046     0.06150     0.05958
 Rotational constants (GHZ):           3.96853     1.28151     1.24134
 Zero-point vibrational energy     422288.9 (Joules/Mol)
                                  100.92948 (Kcal/Mol)
 Warning -- explicit consideration of   8 degrees of freedom as
           vibrations may cause significant error
 Vibrational temperatures:    116.39   250.17   274.47   366.69   529.43
          (Kelvin)            713.84   762.42   805.96  1027.83  1060.26
                             1107.10  1195.21  1215.98  1228.74  1314.28
                             1342.34  1395.72  1403.14  1449.01  1459.02
                             1497.10  1504.07  1543.60  1640.45  1661.29
                             1663.97  1685.63  1704.87  1733.23  1762.57
                             1781.26  1794.71  1820.68  1895.66  1904.23
                             1921.28  2015.76  2121.56  2139.00  2142.32
                             2172.50  4275.45  4287.42  4352.00  4441.26
                             4484.35  4509.28  4516.37  4522.03  4532.67
                             4534.67

 Zero-point correction=                           0.160841 (Hartree/Particle)
 Thermal correction to Energy=                    0.168123
 Thermal correction to Enthalpy=                  0.169067
 Thermal correction to Gibbs Free Energy=         0.128908
 Sum of electronic and zero-point Energies=           -422.969384
 Sum of electronic and thermal Energies=              -422.962103
 Sum of electronic and thermal Enthalpies=            -422.961158
 Sum of electronic and thermal Free Energies=         -423.001318

                     E (Thermal)             CV                S
                      KCal/Mol        Cal/Mol-Kelvin    Cal/Mol-Kelvin
 Total                  105.499             28.868             84.523
 Electronic               0.000              0.000              0.000
 Translational            0.889              2.981             40.409
 Rotational               0.889              2.981             28.323
 Vibrational            103.721             22.906             15.791
 Vibration     1          0.600              1.962              3.869
 Vibration     2          0.627              1.875              2.393
 Vibration     3          0.634              1.853              2.220
 Vibration     4          0.665              1.755              1.697
 Vibration     5          0.741              1.538              1.088
 Vibration     6          0.852              1.259              0.668
 Vibration     7          0.885              1.184              0.587
 Vibration     8          0.916              1.117              0.523

 Optimization completed.
    -- Stationary point found.
 Normal termination of Gaussian 09 at Tue Jan 28 14:58:10 2020.
