 Gaussian 09, Revision D.01,
 Gaussian 09:  ES64L-G09RevD.01 24-Apr-2013

 -----------------------------
 # b3lyp 6-31G(2df,p) opt Freq
 -----------------------------

 -----
 titel
 -----
 Symbolic Z-matrix:
 Charge =  0 Multiplicity = 1

 SCF Done:  E(RB3LYP) =  -423.125671991     A.U. after   14 cycles
 Optimization completed.
    -- Stationary point found.
 Normal termination of Gaussian 09 at Tue Jan 28 08:12:14 2020.

 ----------------------------------------------------------------------
 #N Geom=AllCheck Guess=TCheck SCRF=Check GenChk RB3LYP/6-31G(2df,p) Fr
 eq
 ----------------------------------------------------------------------

 Structure from the checkpoint file:  "/scratch/puck/g09_a4be8a8c-5bdd-4745-a4ed-4126f63c8a43/Gau-186274.chk"
 -----
 titel
 -----
 Charge =  0 Multiplicity = 1

                         Standard orientation:
 ---------------------------------------------------------------------
 Center     Atomic      Atomic             Coordinates (Angstroms)
 Number     Number       Type             X           Y           Z
 ---------------------------------------------------------------------
      1          6           0       -3.610136   -0.974124    0.060603
      2          6           0       -2.085919   -0.909831    0.166700
      3          6           0       -1.512921    0.402751   -0.405968
      4          8           0       -2.067291    1.552506    0.231595
      5          6           0       -0.048230    0.410320   -0.351792
      6          6           0        1.153072    0.409558   -0.249479
      7          6           0        2.585772    0.453550   -0.146930
      8          6           0        3.421503   -0.735454   -0.410168
      9          8           0        3.201370   -0.289580    0.920336
     10          1           0       -3.933839   -0.959135   -0.986154
     11          1           0       -3.995515   -1.890553    0.516665
     12          1           0       -4.067203   -0.117832    0.562507
     13          1           0       -1.768585   -0.995050    1.213824
     14          1           0       -1.623390   -1.748925   -0.365635
     15          1           0       -1.831426    0.492378   -1.452846
     16          1           0       -1.673434    1.611054    1.109529
     17          1           0        3.036792    1.431189   -0.313644
     18          1           0        2.934804   -1.670544   -0.680427
     19          1           0        4.430321   -0.596607   -0.797051
 ---------------------------------------------------------------------

 SCF Done:  E(RB3LYP) =  -423.125671991     A.U. after    1 cycles

 The electronic state is 1-A.
 Alpha  occ. eigenvalues --  -19.16144 -19.14284 -10.26424 -10.25712 -10.24572
 Alpha  occ. eigenvalues --  -10.18851 -10.18690 -10.18445 -10.17447  -1.08151
 Alpha  occ. eigenvalues --   -1.02562  -0.79622  -0.76427  -0.70934  -0.67288
 Alpha  occ. eigenvalues --   -0.64690  -0.60424  -0.54530  -0.52070  -0.49740
 Alpha  occ. eigenvalues --   -0.47622  -0.45713  -0.41820  -0.41464  -0.40801
 Alpha  occ. eigenvalues --   -0.38091  -0.37336  -0.34701  -0.34454  -0.33886
 Alpha  occ. eigenvalues --   -0.28733  -0.28291  -0.26830  -0.25578
 Alpha virt. eigenvalues --    0.01347   0.03242   0.08572   0.10574   0.11271
 Alpha virt. eigenvalues --    0.12621   0.13691   0.13919   0.15315   0.16353
 Alpha virt. eigenvalues --    0.16648   0.17394   0.18065   0.18806   0.23605

 Mulliken charges:
               1
     1  C   -0.386431
     2  C   -0.172702
     3  C   -0.056238
     4  O   -0.414196
     5  C    0.075700
     6  C    0.114921
     7  C   -0.122927
     8  C   -0.158796
     9  O   -0.214491
    10  H    0.114986
    11  H    0.111911
    12  H    0.132626
    13  H    0.101201
    14  H    0.107421
    15  H    0.116319
    16  H    0.284747
    17  H    0.120065
    18  H    0.124713
    19  H    0.121171
 Sum of Mulliken charges =   0.00000

 Dipole moment (field-independent basis, Debye):
    X=              0.3927    Y=             -0.8433    Z=             -0.9326  Tot=              1.3172
 Quadrupole moment (field-independent basis, Debye-Ang):
   XX=            -52.0257   YY=            -53.5481   ZZ=            -52.6862
   XY=              3.3206   XZ=             -6.4788   YZ=              2.6136

  Exact polarizability: 121.377  -2.655  68.522  -0.839   2.040  59.958
 Approx polarizability: 160.634  -8.936  98.624   4.902   2.666  95.175

                      1                      2                      3
                      A                      A                      A
 Frequencies --     19.5418                64.8298                76.6121
 Red. masses --      3.5073                 4.3635                 2.7198
 Frc consts  --      0.0008                 0.0108                 0.0094
 IR Inten    --      3.8142                 0.6577                 1.7317

                      4                      5                      6
                      A                      A                      A
 Frequencies --    129.5932               186.1029               213.3312
 Red. masses --      2.6374                 3.9263                 1.4051
 Frc consts  --      0.0261                 0.0801                 0.0377
 IR Inten    --      1.2657                 0.7357                 0.7918

                      7                      8                      9
                      A                      A                      A
 Frequencies --    229.9778               293.9064               317.7511
 Red. masses --      2.4467                 1.7729                 1.7482
 Frc consts  --      0.0762                 0.0902                 0.1040
 IR Inten    --      1.5239                69.0461                43.5047

                     10                     11                     12
                      A                      A                      A
 Frequencies --    361.4018               485.0769               500.7871
 Red. masses --      4.8493                 2.9815                 4.3634
 Frc consts  --      0.3732                 0.4133                 0.6447
 IR Inten    --      0.8071                25.1089                 7.0663

                     13                     14                     15
                      A                      A                      A
 Frequencies --    558.7961               587.9140               742.1809
 Red. masses --      6.8913                 5.4801                 2.2723
 Frc consts  --      1.2678                 1.1160                 0.7375
 IR Inten    --      2.5390                 9.8925                 0.7548

                     16                     17                     18
                      A                      A                      A
 Frequencies --    785.5163               832.3943               865.7592
 Red. masses --      1.4790                 6.6832                 2.0192
 Frc consts  --      0.5377                 2.7283                 0.8917
 IR Inten    --      0.8066                25.0757                30.9878

                     19                     20                     21
                      A                      A                      A
 Frequencies --    921.3580               976.3660               996.9509
 Red. masses --      3.4101                 2.1128                 1.7329
 Frc consts  --      1.7056                 1.1867                 1.0148
 IR Inten    --     21.3919                38.1549                 8.1019

                     22                     23                     24
                      A                      A                      A
 Frequencies --   1059.2744              1081.5062              1103.3101
 Red. masses --      2.8603                 1.2358                 1.5362
 Frc consts  --      1.8909                 0.8516                 1.1018
 IR Inten    --     39.6447                 2.9286                12.5950

                     25                     26                     27
                      A                      A                      A
 Frequencies --   1114.0520              1150.9889              1159.9412
 Red. masses --      2.5093                 1.6120                 1.3659
 Frc consts  --      1.8349                 1.2583                 1.0827
 IR Inten    --     19.4686                 8.4826                12.4923

                     28                     29                     30
                      A                      A                      A
 Frequencies --   1183.1596              1251.3081              1281.0616
 Red. masses --      2.1127                 1.2766                 1.5822
 Frc consts  --      1.7425                 1.1777                 1.5298
 IR Inten    --     27.7196                 9.8936                11.7571

                     31                     32                     33
                      A                      A                      A
 Frequencies --   1293.3481              1326.5948              1373.2955
 Red. masses --      1.3865                 1.2502                 1.4088
 Frc consts  --      1.3665                 1.2963                 1.5655
 IR Inten    --     13.2760                 2.7952                 0.8821

                     34                     35                     36
                      A                      A                      A
 Frequencies --   1404.3725              1406.7163              1420.0104
 Red. masses --      1.6528                 1.3422                 1.2614
 Frc consts  --      1.9206                 1.5649                 1.4986
 IR Inten    --     17.5809                33.9459                76.7138

                     37                     38                     39
                      A                      A                      A
 Frequencies --   1479.9936              1494.5424              1508.3443
 Red. masses --      1.0777                 1.0413                 1.0575
 Frc consts  --      1.3908                 1.3704                 1.4175
 IR Inten    --      1.7670                 4.6408                 4.3247

                     40                     41                     42
                      A                      A                      A
 Frequencies --   1519.7215              2355.2559              3022.8291
 Red. masses --      1.2324                11.9039                 1.0738
 Frc consts  --      1.6770                38.9059                 5.7810
 IR Inten    --      1.5100                 1.7550                 2.0952

                     43                     44                     45
                      A                      A                      A
 Frequencies --   3033.4700              3038.7164              3070.2843
 Red. masses --      1.0695                 1.0383                 1.0996
 Frc consts  --      5.7983                 5.6489                 6.1072
 IR Inten    --     24.1619                34.2550                17.9415

                     46                     47                     48
                      A                      A                      A
 Frequencies --   3085.8867              3104.6889              3115.6341
 Red. masses --      1.0498                 1.1003                 1.0867
 Frc consts  --      5.8902                 6.2491                 6.2151
 IR Inten    --     27.7941                35.7477                17.7980

                     49                     50                     51
                      A                      A                      A
 Frequencies --   3126.9877              3179.5859              3801.2144
 Red. masses --      1.1012                 1.1200                 1.0661
 Frc consts  --      6.3439                 6.6715                 9.0759
 IR Inten    --     20.2778                23.5278                20.8659

 - Thermochemistry -
 -------------------
 Temperature   298.150 Kelvin.  Pressure   1.00000 Atm.
 Atom     1 has atomic number  6 and mass  12.00000

 Molecular mass:   126.06808 amu.
 Principal axes and moments of inertia in atomic units:
                           1         2         3
     Eigenvalues --   433.994412970.210513197.70836
           X            0.99986   0.01405  -0.00946
           Y           -0.01383   0.99963   0.02360
           Z            0.00979  -0.02347   0.99968
 This molecule is an asymmetric top.
 Rotational symmetry number  1.
 Warning -- assumption of classical behavior for rotation
           may cause significant error
 Rotational temperatures (Kelvin)      0.19957     0.02916     0.02709
 Rotational constants (GHZ):           4.15844     0.60761     0.56439
 Zero-point vibrational energy     410870.8 (Joules/Mol)
                                   98.20049 (Kcal/Mol)
 Warning -- explicit consideration of  14 degrees of freedom as
           vibrations may cause significant error
 Vibrational temperatures:     28.12    93.28   110.23   186.46   267.76
          (Kelvin)            306.94   330.89   422.87   457.17   519.98
                              697.92   720.52   803.98   845.88  1067.83
                             1130.18  1197.63  1245.63  1325.63  1404.77
                             1434.39  1524.06  1556.04  1587.42  1602.87
                             1656.01  1668.89  1702.30  1800.35  1843.16
                             1860.84  1908.67  1975.86  2020.58  2023.95
                             2043.08  2129.38  2150.31  2170.17  2186.54
                             3388.68  4349.17  4364.48  4372.03  4417.45
                             4439.90  4466.95  4482.70  4499.03  4574.71
                             5469.09

 Zero-point correction=                           0.156492 (Hartree/Particle)
 Thermal correction to Energy=                    0.166809
 Thermal correction to Enthalpy=                  0.167754
 Thermal correction to Gibbs Free Energy=         0.119144
 Sum of electronic and zero-point Energies=           -422.969180
 Sum of electronic and thermal Energies=              -422.958863
 Sum of electronic and thermal Enthalpies=            -422.957918
 Sum of electronic and thermal Free Energies=         -423.006528

                     E (Thermal)             CV                S
                      KCal/Mol        Cal/Mol-Kelvin    Cal/Mol-Kelvin
 Total                  104.674             35.887            102.309
 Electronic               0.000              0.000              0.000
 Translational            0.889              2.981             40.409
 Rotational               0.889              2.981             29.801
 Vibrational            102.897             29.925             32.099
 Vibration     1          0.593              1.986              6.680
 Vibration     2          0.597              1.971              4.305
 Vibration     3          0.599              1.965              3.976
 Vibration     4          0.612              1.924              2.952
 Vibration     5          0.632              1.859              2.266
 Vibration     6          0.644              1.821              2.015
 Vibration     7          0.652              1.795              1.879
 Vibration     8          0.689              1.685              1.451
 Vibration     9          0.704              1.640              1.322
 Vibration    10          0.736              1.552              1.116
 Vibration    11          0.841              1.283              0.697
 Vibration    12          0.856              1.248              0.656
 Vibration    13          0.914              1.120              0.526
 Vibration    14          0.945              1.058              0.471

 Optimization completed.
    -- Stationary point found.
 Normal termination of Gaussian 09 at Tue Jan 28 08:37:57 2020.
