 Gaussian 09, Revision D.01,
 Gaussian 09:  ES64L-G09RevD.01 24-Apr-2013

 -----------------------------
 # b3lyp 6-31G(2df,p) opt Freq
 -----------------------------

 -----
 titel
 -----
 Symbolic Z-matrix:
 Charge =  0 Multiplicity = 1

 SCF Done:  E(RB3LYP) =  -423.166145011     A.U. after   14 cycles
 Optimization completed.
    -- Stationary point found.
 Normal termination of Gaussian 09 at Tue Jan 28 08:08:53 2020.

 ----------------------------------------------------------------------
 #N Geom=AllCheck Guess=TCheck SCRF=Check GenChk RB3LYP/6-31G(2df,p) Fr
 eq
 ----------------------------------------------------------------------

 Structure from the checkpoint file:  "/scratch/puck/g09_2cb4a163-cb20-40bc-80f1-a056f83351f5/Gau-11753.chk"
 -----
 titel
 -----
 Charge =  0 Multiplicity = 1

                         Standard orientation:
 ---------------------------------------------------------------------
 Center     Atomic      Atomic             Coordinates (Angstroms)
 Number     Number       Type             X           Y           Z
 ---------------------------------------------------------------------
      1          6           0        3.739425    0.807844    0.437182
      2          6           0        3.287335   -0.563965   -0.095919
      3          6           0        1.835500   -0.705350   -0.162386
      4          6           0        0.637952   -0.840372   -0.209020
      5          6           0       -0.816873   -0.921254   -0.265455
      6          6           0       -1.458332    0.396509    0.221157
      7          8           0       -1.044722    1.518224   -0.526851
      8          6           0       -2.976267    0.341694    0.127580
      9          8           0       -3.628911   -0.633450    0.393928
     10          1           0        3.380563    1.614829   -0.208059
     11          1           0        3.351104    0.981566    1.444414
     12          1           0        4.831287    0.860478    0.475163
     13          1           0        3.714697   -0.728475   -1.093238
     14          1           0        3.697510   -1.356978    0.542209
     15          1           0       -1.146031   -1.112699   -1.294186
     16          1           0       -1.202174   -1.741311    0.349386
     17          1           0       -1.213266    0.520936    1.291725
     18          1           0       -0.080527    1.495022   -0.559370
     19          1           0       -3.436531    1.297805   -0.203490
 ---------------------------------------------------------------------

 SCF Done:  E(RB3LYP) =  -423.166145011     A.U. after    1 cycles

 The electronic state is 1-A.
 Alpha  occ. eigenvalues --  -19.14841 -19.14800 -10.27504 -10.25062 -10.21515
 Alpha  occ. eigenvalues --  -10.21402 -10.19089 -10.18372 -10.18079  -1.05705
 Alpha  occ. eigenvalues --   -1.03305  -0.80976  -0.78947  -0.72909  -0.68299
 Alpha  occ. eigenvalues --   -0.63851  -0.57119  -0.52073  -0.50980  -0.47995
 Alpha  occ. eigenvalues --   -0.46948  -0.46248  -0.44059  -0.42598  -0.41720
 Alpha  occ. eigenvalues --   -0.40151  -0.38060  -0.37727  -0.36988  -0.35721
 Alpha  occ. eigenvalues --   -0.29199  -0.26484  -0.25854  -0.25264
 Alpha virt. eigenvalues --   -0.03173   0.04107   0.05248   0.07841   0.11598
 Alpha virt. eigenvalues --    0.12321   0.13408   0.13881   0.14307   0.14792
 Alpha virt. eigenvalues --    0.16388   0.17473   0.19444   0.20291   0.21511

 Mulliken charges:
               1
     1  C   -0.367935
     2  C   -0.315178
     3  C    0.155604
     4  C   -0.044720
     5  C   -0.362676
     6  C    0.046156
     7  O   -0.437967
     8  C    0.149459
     9  O   -0.247542
    10  H    0.124409
    11  H    0.129527
    12  H    0.119814
    13  H    0.132553
    14  H    0.133897
    15  H    0.138129
    16  H    0.149184
    17  H    0.103521
    18  H    0.292347
    19  H    0.101415
 Sum of Mulliken charges =   0.00000

 Dipole moment (field-independent basis, Debye):
    X=              3.1263    Y=              0.6372    Z=              0.1356  Tot=              3.1934
 Quadrupole moment (field-independent basis, Debye-Ang):
   XX=            -55.3668   YY=            -55.4594   ZZ=            -52.8312
   XY=             -2.5609   XZ=              0.8631   YZ=              1.3323

  Exact polarizability: 118.648   3.057  69.922   0.785  -1.401  57.590
 Approx polarizability: 158.414   9.858 104.158   0.441  -5.359  87.293

                      1                      2                      3
                      A                      A                      A
 Frequencies --     18.7074                50.3655                59.7877
 Red. masses --      2.5396                 3.8986                 4.4945
 Frc consts  --      0.0005                 0.0058                 0.0095
 IR Inten    --      0.2870                 2.0978                 1.4121

                      4                      5                      6
                      A                      A                      A
 Frequencies --     82.5039               161.6073               185.8096
 Red. masses --      2.5488                 3.7158                 1.6778
 Frc consts  --      0.0102                 0.0572                 0.0341
 IR Inten    --     11.0909                 4.7328                 2.2602

                      7                      8                      9
                      A                      A                      A
 Frequencies --    217.9993               268.0807               348.5019
 Red. masses --      5.9434                 1.4819                 3.8110
 Frc consts  --      0.1664                 0.0627                 0.2727
 IR Inten    --      3.6942                 3.4501                 9.5412

                     10                     11                     12
                      A                      A                      A
 Frequencies --    371.2647               393.3914               419.4615
 Red. masses --      1.1372                 3.3160                 3.3543
 Frc consts  --      0.0924                 0.3023                 0.3477
 IR Inten    --     76.9924                 2.1383                 4.0867

                     13                     14                     15
                      A                      A                      A
 Frequencies --    458.4044               543.5226               607.7744
 Red. masses --      2.9264                 6.6287                 4.9074
 Frc consts  --      0.3623                 1.1537                 1.0680
 IR Inten    --     27.1141                 1.2619                13.0060

                     16                     17                     18
                      A                      A                      A
 Frequencies --    749.7715               786.3096               827.5628
 Red. masses --      2.9323                 1.1722                 2.8831
 Frc consts  --      0.9712                 0.4270                 1.1634
 IR Inten    --      1.0338                 1.5911                 9.1715

                     19                     20                     21
                      A                      A                      A
 Frequencies --    893.0832               966.2585              1027.3466
 Red. masses --      1.7636                 2.4316                 2.4665
 Frc consts  --      0.8288                 1.3376                 1.5338
 IR Inten    --      6.6216                 2.8005                62.0891

                     22                     23                     24
                      A                      A                      A
 Frequencies --   1064.4854              1080.1552              1105.2549
 Red. masses --      2.0464                 1.8903                 1.5021
 Frc consts  --      1.3662                 1.2994                 1.0811
 IR Inten    --      3.6746                 1.7109                 0.6689

                     25                     26                     27
                      A                      A                      A
 Frequencies --   1129.3477              1160.2355              1217.7649
 Red. masses --      4.2615                 2.5791                 1.2733
 Frc consts  --      3.2023                 2.0456                 1.1125
 IR Inten    --     37.2827                 1.3984                28.6012

                     28                     29                     30
                      A                      A                      A
 Frequencies --   1249.2298              1286.7097              1300.3746
 Red. masses --      1.1195                 1.1468                 1.4579
 Frc consts  --      1.0293                 1.1186                 1.4525
 IR Inten    --     20.1882                 0.0054                15.4960

                     31                     32                     33
                      A                      A                      A
 Frequencies --   1348.9038              1351.6992              1393.0884
 Red. masses --      1.2127                 1.5056                 1.2630
 Frc consts  --      1.3001                 1.6208                 1.4441
 IR Inten    --     25.4453                19.9422                33.8297

                     34                     35                     36
                      A                      A                      A
 Frequencies --   1409.5369              1429.8559              1464.1314
 Red. masses --      1.2130                 1.5841                 1.0997
 Frc consts  --      1.4199                 1.9082                 1.3890
 IR Inten    --      0.7928                 8.4526                 3.5698

                     37                     38                     39
                      A                      A                      A
 Frequencies --   1475.9659              1495.9857              1505.5704
 Red. masses --      1.0722                 1.0398                 1.0579
 Frc consts  --      1.3762                 1.3711                 1.4129
 IR Inten    --      3.9876                 5.4020                 1.2531

                     40                     41                     42
                      A                      A                      A
 Frequencies --   1836.9858              2359.2089              2908.1344
 Red. masses --     10.8541                11.8355                 1.0852
 Frc consts  --     21.5803                38.8122                 5.4075
 IR Inten    --    145.7521                 0.7586                97.8601

                     43                     44                     45
                      A                      A                      A
 Frequencies --   2941.5362              3022.5843              3035.5876
 Red. masses --      1.0795                 1.0588                 1.0617
 Frc consts  --      5.5035                 5.6993                 5.7642
 IR Inten    --     34.8759                24.4525                14.1278

                     46                     47                     48
                      A                      A                      A
 Frequencies --   3044.3364              3050.4319              3083.3146
 Red. masses --      1.0345                 1.1010                 1.0988
 Frc consts  --      5.6490                 6.0359                 6.1547
 IR Inten    --     24.4564                 8.0329                 5.0754

                     49                     50                     51
                      A                      A                      A
 Frequencies --   3117.8442              3122.3749              3782.8465
 Red. masses --      1.1024                 1.1028                 1.0657
 Frc consts  --      6.3139                 6.3346                 8.9850
 IR Inten    --     31.3281                25.5687                48.3469

 - Thermochemistry -
 -------------------
 Temperature   298.150 Kelvin.  Pressure   1.00000 Atm.
 Atom     1 has atomic number  6 and mass  12.00000

 Molecular mass:   126.06808 amu.
 Principal axes and moments of inertia in atomic units:
                           1         2         3
     Eigenvalues --   419.807122925.811483206.79324
           X            0.99997   0.00480   0.00606
           Y           -0.00495   0.99968   0.02500
           Z           -0.00594  -0.02503   0.99967
 This molecule is an asymmetric top.
 Rotational symmetry number  1.
 Rotational temperatures (Kelvin)      0.20632     0.02960     0.02701
 Rotational constants (GHZ):           4.29898     0.61683     0.56279
 Zero-point vibrational energy     407992.4 (Joules/Mol)
                                   97.51251 (Kcal/Mol)
 Warning -- explicit consideration of  15 degrees of freedom as
           vibrations may cause significant error
 Vibrational temperatures:     26.92    72.46    86.02   118.70   232.52
          (Kelvin)            267.34   313.65   385.71   501.42   534.17
                              566.00   603.51   659.54   782.01   874.45
                             1078.75  1131.32  1190.68  1284.95  1390.23
                             1478.12  1531.56  1554.10  1590.21  1624.88
                             1669.32  1752.09  1797.36  1851.29  1870.95
                             1940.77  1944.79  2004.34  2028.01  2057.24
                             2106.56  2123.58  2152.39  2166.18  2643.01
                             3394.37  4184.15  4232.21  4348.82  4367.53
                             4380.12  4388.89  4436.20  4485.88  4492.40
                             5442.67

 Zero-point correction=                           0.155396 (Hartree/Particle)
 Thermal correction to Energy=                    0.166278
 Thermal correction to Enthalpy=                  0.167222
 Thermal correction to Gibbs Free Energy=         0.116915
 Sum of electronic and zero-point Energies=           -423.010749
 Sum of electronic and thermal Energies=              -422.999867
 Sum of electronic and thermal Enthalpies=            -422.998923
 Sum of electronic and thermal Free Energies=         -423.049230

                     E (Thermal)             CV                S
                      KCal/Mol        Cal/Mol-Kelvin    Cal/Mol-Kelvin
 Total                  104.341             36.920            105.880
 Electronic               0.000              0.000              0.000
 Translational            0.889              2.981             40.409
 Rotational               0.889              2.981             29.756
 Vibrational            102.564             30.959             35.716
 Vibration     1          0.593              1.986              6.767
 Vibration     2          0.595              1.977              4.803
 Vibration     3          0.597              1.973              4.464
 Vibration     4          0.600              1.961              3.830
 Vibration     5          0.622              1.889              2.531
 Vibration     6          0.632              1.859              2.269
 Vibration     7          0.646              1.814              1.976
 Vibration     8          0.673              1.732              1.609
 Vibration     9          0.726              1.578              1.173
 Vibration    10          0.743              1.531              1.075
 Vibration    11          0.761              1.484              0.987
 Vibration    12          0.782              1.428              0.894
 Vibration    13          0.816              1.342              0.771
 Vibration    14          0.899              1.154              0.558
 Vibration    15          0.967              1.015              0.436

 Optimization completed.
    -- Stationary point found.
 Normal termination of Gaussian 09 at Tue Jan 28 08:43:15 2020.
