 Gaussian 09, Revision D.01,
 Gaussian 09:  ES64L-G09RevD.01 24-Apr-2013

 -----------------------------
 # b3lyp 6-31G(2df,p) opt Freq
 -----------------------------

 -----
 titel
 -----
 Symbolic Z-matrix:
 Charge =  0 Multiplicity = 1

 SCF Done:  E(RB3LYP) =  -423.099947485     A.U. after   12 cycles
 Optimization completed.
    -- Stationary point found.
 Normal termination of Gaussian 09 at Tue Jan 28 12:47:29 2020.

 ----------------------------------------------------------------------
 #N Geom=AllCheck Guess=TCheck SCRF=Check GenChk RB3LYP/6-31G(2df,p) Fr
 eq
 ----------------------------------------------------------------------

 Structure from the checkpoint file:  "/scratch/puck/g09_e62a7e23-6998-4b23-8f42-8fc5947a3b58/Gau-10933.chk"
 -----
 titel
 -----
 Charge =  0 Multiplicity = 1

                         Standard orientation:
 ---------------------------------------------------------------------
 Center     Atomic      Atomic             Coordinates (Angstroms)
 Number     Number       Type             X           Y           Z
 ---------------------------------------------------------------------
      1          8           0        3.023715   -0.011137   -0.451809
      2          6           0        1.965521    0.236820    0.470268
      3          6           0        0.807616   -0.730878    0.281132
      4          6           0       -0.218521   -0.501593   -0.859105
      5          6           0       -1.337706   -1.272970   -0.085142
      6          6           0       -2.376832   -0.146842   -0.254104
      7          6           0       -1.031581    0.569172   -0.022652
      8          8           0       -0.790371    1.925664    0.105944
      9          6           0       -0.534907   -0.488912    1.011756
     10          1           0        2.680047    0.154617   -1.335241
     11          1           0        2.407179    0.095701    1.463513
     12          1           0        1.613521    1.274972    0.409723
     13          1           0        1.175615   -1.762429    0.343973
     14          1           0       -0.078530   -0.511521   -1.942853
     15          1           0       -1.485423   -2.349952   -0.105581
     16          1           0       -2.832909   -0.043825   -1.245023
     17          1           0       -3.128565   -0.045884    0.535092
     18          1           0       -1.104463    2.368257   -0.690304
     19          1           0       -0.754770   -0.484931    2.080699
 ---------------------------------------------------------------------

 SCF Done:  E(RB3LYP) =  -423.099947485     A.U. after    1 cycles

 The electronic state is 1-A.
 Alpha  occ. eigenvalues --  -19.15368 -19.12441 -10.24971 -10.21235 -10.20308
 Alpha  occ. eigenvalues --  -10.19764 -10.19676 -10.18512 -10.18457  -1.03997
 Alpha  occ. eigenvalues --   -1.00383  -0.93561  -0.75857  -0.67537  -0.64096
 Alpha  occ. eigenvalues --   -0.62775  -0.58430  -0.54152  -0.50579  -0.49499
 Alpha  occ. eigenvalues --   -0.47475  -0.44774  -0.42338  -0.41998  -0.40611
 Alpha  occ. eigenvalues --   -0.36832  -0.34639  -0.32382  -0.31673  -0.30804
 Alpha  occ. eigenvalues --   -0.30230  -0.28594  -0.25990  -0.25184
 Alpha virt. eigenvalues --    0.07108   0.07698   0.10866   0.12136   0.12536
 Alpha virt. eigenvalues --    0.13280   0.14590   0.15472   0.16447   0.17075
 Alpha virt. eigenvalues --    0.17672   0.18638   0.19159   0.19614   0.21516

 Mulliken charges:
               1
     1  O   -0.423000
     2  C   -0.108307
     3  C   -0.028480
     4  C   -0.134242
     5  C   -0.046767
     6  C   -0.327772
     7  C    0.395125
     8  O   -0.469934
     9  C   -0.102183
    10  H    0.279027
    11  H    0.103589
    12  H    0.106288
    13  H    0.068651
    14  H    0.061747
    15  H    0.083224
    16  H    0.087188
    17  H    0.098017
    18  H    0.284121
    19  H    0.073707
 Sum of Mulliken charges =   0.00000

 Dipole moment (field-independent basis, Debye):
    X=             -2.2245    Y=              0.1224    Z=             -1.5418  Tot=              2.7093
 Quadrupole moment (field-independent basis, Debye-Ang):
   XX=            -60.5854   YY=            -52.4048   ZZ=            -48.8299
   XY=             -0.0936   XZ=              0.4640   YZ=             -3.9222

  Exact polarizability:  85.831  -0.640  70.406   1.696  -1.400  70.608
 Approx polarizability: 112.718  -1.950 108.355   0.875  -1.257 112.075

                      1                      2                      3
                      A                      A                      A
 Frequencies --     83.7903               146.0204               200.7052
 Red. masses --      3.5775                 4.1381                 2.2209
 Frc consts  --      0.0148                 0.0520                 0.0527
 IR Inten    --      1.9377                 0.4316                 4.0712

                      4                      5                      6
                      A                      A                      A
 Frequencies --    266.9912               287.9347               333.0477
 Red. masses --      1.1324                 1.2519                 3.4365
 Frc consts  --      0.0476                 0.0612                 0.2246
 IR Inten    --     69.6457               102.2860                11.3697

                      7                      8                      9
                      A                      A                      A
 Frequencies --    371.8415               409.6870               452.5785
 Red. masses --      3.2413                 3.2264                 2.5162
 Frc consts  --      0.2640                 0.3191                 0.3037
 IR Inten    --     23.5684                 8.4773                 0.3862

                     10                     11                     12
                      A                      A                      A
 Frequencies --    529.0082               663.8229               717.8127
 Red. masses --      3.0413                 4.4034                 3.7207
 Frc consts  --      0.5015                 1.1433                 1.1295
 IR Inten    --      7.7476                 2.4491                 0.9487

                     13                     14                     15
                      A                      A                      A
 Frequencies --    762.1527               835.5533               866.5479
 Red. masses --      3.0611                 2.0865                 2.1356
 Frc consts  --      1.0477                 0.8583                 0.9448
 IR Inten    --      3.0138                 1.0645                 2.8983

                     16                     17                     18
                      A                      A                      A
 Frequencies --    883.3913               916.8882               927.0270
 Red. masses --      1.6411                 2.1006                 2.3380
 Frc consts  --      0.7546                 1.0405                 1.1838
 IR Inten    --      4.0261                 2.4175                 1.1843

                     19                     20                     21
                      A                      A                      A
 Frequencies --    980.8760               992.0839              1014.7198
 Red. masses --      1.3818                 1.5434                 2.7784
 Frc consts  --      0.7833                 0.8950                 1.6856
 IR Inten    --     18.3290                22.0799                20.4496

                     22                     23                     24
                      A                      A                      A
 Frequencies --   1056.2435              1058.6668              1070.2871
 Red. masses --      5.0110                 1.3113                 2.0480
 Frc consts  --      3.2939                 0.8659                 1.3822
 IR Inten    --     64.1070                11.7289                 5.5488

                     25                     26                     27
                      A                      A                      A
 Frequencies --   1087.5705              1113.9136              1129.7645
 Red. masses --      1.7935                 2.2479                 1.5117
 Frc consts  --      1.2499                 1.6433                 1.1368
 IR Inten    --     24.8964                 8.3279                 4.5214

                     28                     29                     30
                      A                      A                      A
 Frequencies --   1137.8723              1174.9083              1193.3371
 Red. masses --      1.6418                 1.5494                 1.3781
 Frc consts  --      1.2524                 1.2601                 1.1563
 IR Inten    --      0.2682                23.5197                11.1134

                     31                     32                     33
                      A                      A                      A
 Frequencies --   1214.1465              1222.0166              1241.7891
 Red. masses --      1.7842                 2.0199                 1.4659
 Frc consts  --      1.5497                 1.7772                 1.3318
 IR Inten    --     14.1181                36.3444                14.1122

                     34                     35                     36
                      A                      A                      A
 Frequencies --   1276.7173              1304.3300              1356.7177
 Red. masses --      2.0994                 2.0156                 1.4083
 Frc consts  --      2.0162                 2.0203                 1.5273
 IR Inten    --     16.6896               148.4183                 7.0937

                     37                     38                     39
                      A                      A                      A
 Frequencies --   1379.6584              1404.2387              1431.5646
 Red. masses --      2.2079                 1.2022                 1.4450
 Frc consts  --      2.4762                 1.3967                 1.7448
 IR Inten    --     16.8356                42.2709                18.9784

                     40                     41                     42
                      A                      A                      A
 Frequencies --   1508.6011              1510.2284              3020.5493
 Red. masses --      1.1504                 1.1228                 1.0623
 Frc consts  --      1.5426                 1.5088                 5.7104
 IR Inten    --      6.7010                 0.9107                20.4915

                     43                     44                     45
                      A                      A                      A
 Frequencies --   3032.8317              3034.1950              3070.4393
 Red. masses --      1.0585                 1.0770                 1.1046
 Frc consts  --      5.7364                 5.8418                 6.1355
 IR Inten    --     67.5209                27.7831                44.8863

                     46                     47                     48
                      A                      A                      A
 Frequencies --   3080.8497              3094.5101              3101.9104
 Red. masses --      1.0896                 1.1091                 1.0901
 Frc consts  --      6.0931                 6.2578                 6.1796
 IR Inten    --     58.7444                27.9614                37.9607

                     49                     50                     51
                      A                      A                      A
 Frequencies --   3149.6381              3803.0711              3817.2985
 Red. masses --      1.0933                 1.0658                 1.0661
 Frc consts  --      6.3901                 9.0820                 9.1532
 IR Inten    --     29.4398                29.8612                 9.6267

 - Thermochemistry -
 -------------------
 Temperature   298.150 Kelvin.  Pressure   1.00000 Atm.
 Atom     1 has atomic number  8 and mass  15.99491

 Molecular mass:   126.06808 amu.
 Principal axes and moments of inertia in atomic units:
                           1         2         3
     Eigenvalues --   557.650401425.988321671.11962
           X            0.99993   0.00913   0.00737
           Y           -0.00897   0.99972  -0.02168
           Z           -0.00756   0.02161   0.99974
 This molecule is an asymmetric top.
 Rotational symmetry number  1.
 Warning -- assumption of classical behavior for rotation
           may cause significant error
 Rotational temperatures (Kelvin)      0.15532     0.06074     0.05183
 Rotational constants (GHZ):           3.23633     1.26561     1.07996
 Zero-point vibrational energy     417020.3 (Joules/Mol)
                                   99.67024 (Kcal/Mol)
 Warning -- explicit consideration of  10 degrees of freedom as
           vibrations may cause significant error
 Vibrational temperatures:    120.56   210.09   288.77   384.14   414.27
          (Kelvin)            479.18   535.00   589.45   651.16   761.12
                              955.09  1032.77  1096.57  1202.17  1246.77
                             1271.00  1319.20  1333.78  1411.26  1427.39
                             1459.95  1519.70  1523.18  1539.90  1564.77
                             1602.67  1625.48  1637.14  1690.43  1716.94
                             1746.88  1758.21  1786.66  1836.91  1876.64
                             1952.01  1985.02  2020.38  2059.70  2170.54
                             2172.88  4345.89  4363.56  4365.52  4417.67
                             4432.65  4452.30  4462.95  4531.62  5471.76
                             5492.23

 Zero-point correction=                           0.158835 (Hartree/Particle)
 Thermal correction to Energy=                    0.167073
 Thermal correction to Enthalpy=                  0.168018
 Thermal correction to Gibbs Free Energy=         0.126123
 Sum of electronic and zero-point Energies=           -422.941113
 Sum of electronic and thermal Energies=              -422.932874
 Sum of electronic and thermal Enthalpies=            -422.931930
 Sum of electronic and thermal Free Energies=         -422.973824

                     E (Thermal)             CV                S
                      KCal/Mol        Cal/Mol-Kelvin    Cal/Mol-Kelvin
 Total                  104.840             32.281             88.173
 Electronic               0.000              0.000              0.000
 Translational            0.889              2.981             40.409
 Rotational               0.889              2.981             28.676
 Vibrational            103.063             26.319             19.089
 Vibration     1          0.601              1.960              3.800
 Vibration     2          0.617              1.907              2.723
 Vibration     3          0.638              1.839              2.127
 Vibration     4          0.672              1.734              1.616
 Vibration     5          0.685              1.696              1.486
 Vibration     6          0.715              1.610              1.245
 Vibration     7          0.744              1.530              1.072
 Vibration     8          0.774              1.449              0.928
 Vibration     9          0.811              1.355              0.788
 Vibration    10          0.884              1.186              0.589

 Optimization completed.
    -- Stationary point found.
 Normal termination of Gaussian 09 at Tue Jan 28 14:40:54 2020.
