 Gaussian 09, Revision D.01,
 Gaussian 09:  ES64L-G09RevD.01 24-Apr-2013

 -----------------------------
 # b3lyp 6-31G(2df,p) opt Freq
 -----------------------------

 -----
 titel
 -----
 Symbolic Z-matrix:
 Charge =  0 Multiplicity = 1

 SCF Done:  E(RB3LYP) =  -423.123466903     A.U. after   13 cycles
 Optimization completed.
    -- Stationary point found.
 Normal termination of Gaussian 09 at Mon Jan 27 17:24:22 2020.

 ----------------------------------------------------------------------
 #N Geom=AllCheck Guess=TCheck SCRF=Check GenChk RB3LYP/6-31G(2df,p) Fr
 eq
 ----------------------------------------------------------------------

 Structure from the checkpoint file:  "/scratch/puck/g09_1f5f6188-5831-4205-a607-3df588fd3777/Gau-179337.chk"
 -----
 titel
 -----
 Charge =  0 Multiplicity = 1

                         Standard orientation:
 ---------------------------------------------------------------------
 Center     Atomic      Atomic             Coordinates (Angstroms)
 Number     Number       Type             X           Y           Z
 ---------------------------------------------------------------------
      1          8           0       -2.598472   -0.825397   -0.823472
      2          6           0       -1.680910   -0.200247    0.001602
      3          6           0       -1.872335    1.196114    0.518171
      4          6           0       -0.687133    0.890221   -0.373505
      5          6           0        0.410274    0.197492    0.451629
      6          6           0       -0.609365   -0.942980    0.807979
      7          6           0        1.587991   -0.282917   -0.349160
      8          6           0        2.914599   -0.477910    0.248309
      9          8           0        2.642266    0.657735   -0.574867
     10          1           0       -3.416715   -0.949340   -0.330184
     11          1           0       -2.668522    1.745052    0.024929
     12          1           0       -1.729694    1.443386    1.568763
     13          1           0       -0.536089    1.403289   -1.315225
     14          1           0        0.770332    0.784554    1.303516
     15          1           0       -0.334102   -1.888861    0.333221
     16          1           0       -0.812075   -1.122056    1.869093
     17          1           0        1.335384   -0.879494   -1.228790
     18          1           0        3.062516   -0.262717    1.306187
     19          1           0        3.599894   -1.211160   -0.174950
 ---------------------------------------------------------------------

 SCF Done:  E(RB3LYP) =  -423.123466903     A.U. after    1 cycles

 The electronic state is 1-A.
 Alpha  occ. eigenvalues --  -19.14852 -19.14581 -10.24108 -10.23442 -10.23035
 Alpha  occ. eigenvalues --  -10.19548 -10.18978 -10.18697 -10.18617  -1.06576
 Alpha  occ. eigenvalues --   -1.03484  -0.89044  -0.75124  -0.67954  -0.65615
 Alpha  occ. eigenvalues --   -0.60234  -0.59660  -0.54945  -0.52235  -0.49415
 Alpha  occ. eigenvalues --   -0.47268  -0.45748  -0.44318  -0.41979  -0.39040
 Alpha  occ. eigenvalues --   -0.38348  -0.36727  -0.35646  -0.34604  -0.31865
 Alpha  occ. eigenvalues --   -0.29129  -0.26858  -0.25546  -0.25399
 Alpha virt. eigenvalues --    0.07733   0.10161   0.10389   0.10685   0.11281
 Alpha virt. eigenvalues --    0.12063   0.13416   0.13914   0.14468   0.16339
 Alpha virt. eigenvalues --    0.17457   0.18764   0.18970   0.19735   0.22359

 Mulliken charges:
               1
     1  O   -0.462407
     2  C    0.410014
     3  C   -0.353853
     4  C   -0.111629
     5  C    0.002554
     6  C   -0.331393
     7  C    0.082775
     8  C   -0.189409
     9  O   -0.243190
    10  H    0.285663
    11  H    0.114124
    12  H    0.102003
    13  H    0.100849
    14  H    0.072176
    15  H    0.110952
    16  H    0.091267
    17  H    0.095386
    18  H    0.110611
    19  H    0.113506
 Sum of Mulliken charges =   0.00000

 Dipole moment (field-independent basis, Debye):
    X=             -1.4055    Y=             -1.1319    Z=              1.8088  Tot=              2.5550
 Quadrupole moment (field-independent basis, Debye-Ang):
   XX=            -49.6968   YY=            -54.0041   ZZ=            -53.7166
   XY=             -4.4852   XZ=             -0.2801   YZ=             -0.3006

  Exact polarizability:  93.846  -3.729  68.541   1.419   0.244  66.388
 Approx polarizability: 119.246   1.303 105.713   1.600  -0.742 102.974

                      1                      2                      3
                      A                      A                      A
 Frequencies --     69.5372                92.7545               176.2702
 Red. masses --      4.0766                 4.1917                 3.1593
 Frc consts  --      0.0116                 0.0212                 0.0578
 IR Inten    --      1.9252                 1.2085                 3.5091

                      4                      5                      6
                      A                      A                      A
 Frequencies --    246.3447               311.2462               340.7458
 Red. masses --      1.2553                 2.7682                 2.7507
 Frc consts  --      0.0449                 0.1580                 0.1882
 IR Inten    --     85.6670                 8.6627                 1.3595

                      7                      8                      9
                      A                      A                      A
 Frequencies --    382.1369               395.0160               443.1796
 Red. masses --      3.8682                 2.3759                 2.2621
 Frc consts  --      0.3328                 0.2184                 0.2618
 IR Inten    --      2.3592                 6.2735                 9.6625

                     10                     11                     12
                      A                      A                      A
 Frequencies --    487.3158               636.5293               746.7833
 Red. masses --      3.6696                 3.2439                 2.6286
 Frc consts  --      0.5134                 0.7744                 0.8637
 IR Inten    --      6.4939                 3.8577                 2.3471

                     13                     14                     15
                      A                      A                      A
 Frequencies --    799.8765               843.6488               866.1702
 Red. masses --      1.8888                 3.6650                 4.5763
 Frc consts  --      0.7120                 1.5369                 2.0229
 IR Inten    --      6.0914                30.9104                 7.8895

                     16                     17                     18
                      A                      A                      A
 Frequencies --    890.3277               904.1571               937.8683
 Red. masses --      1.7344                 2.0887                 1.7877
 Frc consts  --      0.8100                 1.0060                 0.9264
 IR Inten    --     14.4339                21.8620                 0.3913

                     19                     20                     21
                      A                      A                      A
 Frequencies --    957.7882               999.7231              1027.5945
 Red. masses --      1.8097                 1.4717                 2.7849
 Frc consts  --      0.9781                 0.8666                 1.7326
 IR Inten    --     13.2824                 3.4214                 3.3695

                     22                     23                     24
                      A                      A                      A
 Frequencies --   1033.5830              1046.9219              1079.6714
 Red. masses --      1.5872                 1.5445                 1.5393
 Frc consts  --      0.9990                 0.9974                 1.0572
 IR Inten    --      4.0153                17.5541                 7.4228

                     25                     26                     27
                      A                      A                      A
 Frequencies --   1098.9957              1116.4279              1155.2654
 Red. masses --      1.2364                 1.6088                 1.3932
 Frc consts  --      0.8799                 1.1814                 1.0955
 IR Inten    --      7.2985                 6.2863                 0.9695

                     28                     29                     30
                      A                      A                      A
 Frequencies --   1170.0766              1196.2893              1220.0431
 Red. masses --      1.3662                 1.8885                 1.5097
 Frc consts  --      1.1020                 1.5924                 1.3240
 IR Inten    --      2.7575                 6.1178                 1.6344

                     31                     32                     33
                      A                      A                      A
 Frequencies --   1231.7005              1250.4827              1278.3713
 Red. masses --      1.6801                 1.6840                 2.3561
 Frc consts  --      1.5018                 1.5514                 2.2686
 IR Inten    --      4.7901                40.1617                48.6372

                     34                     35                     36
                      A                      A                      A
 Frequencies --   1289.6891              1295.5023              1329.5222
 Red. masses --      1.5607                 1.4324                 1.6320
 Frc consts  --      1.5295                 1.4164                 1.6996
 IR Inten    --     23.7408                 8.2428                32.8486

                     37                     38                     39
                      A                      A                      A
 Frequencies --   1400.5836              1453.6963              1477.1540
 Red. masses --      2.0851                 1.7107                 1.1713
 Frc consts  --      2.4098                 2.1300                 1.5058
 IR Inten    --     43.9234                 9.6533                 6.3182

                     40                     41                     42
                      A                      A                      A
 Frequencies --   1503.2602              1531.4080              3039.8131
 Red. masses --      1.3778                 1.3959                 1.0663
 Frc consts  --      1.8344                 1.9288                 5.8051
 IR Inten    --     14.2764                 5.7997                33.3347

                     43                     44                     45
                      A                      A                      A
 Frequencies --   3048.4113              3079.1737              3085.6722
 Red. masses --      1.0784                 1.0521                 1.0865
 Frc consts  --      5.9044                 5.8772                 6.0948
 IR Inten    --     26.4158                34.7633                15.9428

                     46                     47                     48
                      A                      A                      A
 Frequencies --   3096.3445              3102.5075              3165.4337
 Red. masses --      1.0578                 1.1043                 1.1193
 Frc consts  --      5.9752                 6.2627                 6.6080
 IR Inten    --     18.6219                29.2091                29.1247

                     49                     50                     51
                      A                      A                      A
 Frequencies --   3190.3790              3200.1301              3795.5136
 Red. masses --      1.0988                 1.1063                 1.0662
 Frc consts  --      6.5897                 6.6752                 9.0496
 IR Inten    --      2.9284                13.8944                23.0550

 - Thermochemistry -
 -------------------
 Temperature   298.150 Kelvin.  Pressure   1.00000 Atm.
 Atom     1 has atomic number  8 and mass  15.99491

 Molecular mass:   126.06808 amu.
 Principal axes and moments of inertia in atomic units:
                           1         2         3
     Eigenvalues --   435.217811908.637612012.62930
           X            0.99977  -0.02124   0.00032
           Y            0.02124   0.99977  -0.00017
           Z           -0.00032   0.00017   1.00000
 This molecule is an asymmetric top.
 Rotational symmetry number  1.
 Warning -- assumption of classical behavior for rotation
           may cause significant error
 Rotational temperatures (Kelvin)      0.19901     0.04538     0.04304
 Rotational constants (GHZ):           4.14675     0.94557     0.89671
 Zero-point vibrational energy     415804.2 (Joules/Mol)
                                   99.37959 (Kcal/Mol)
 Warning -- explicit consideration of  10 degrees of freedom as
           vibrations may cause significant error
 Vibrational temperatures:    100.05   133.45   253.61   354.43   447.81
          (Kelvin)            490.26   549.81   568.34   637.64   701.14
                              915.82  1074.45  1150.84  1213.82  1246.22
                             1280.98  1300.88  1349.38  1378.04  1438.38
                             1478.48  1487.09  1506.29  1553.40  1581.21
                             1606.29  1662.17  1683.48  1721.19  1755.37
                             1772.14  1799.16  1839.29  1855.57  1863.94
                             1912.88  2015.12  2091.54  2125.29  2162.85
                             2203.35  4373.61  4385.98  4430.24  4439.59
                             4454.94  4463.81  4554.35  4590.24  4604.27
                             5460.89

 Zero-point correction=                           0.158371 (Hartree/Particle)
 Thermal correction to Energy=                    0.166784
 Thermal correction to Enthalpy=                  0.167728
 Thermal correction to Gibbs Free Energy=         0.124995
 Sum of electronic and zero-point Energies=           -422.965095
 Sum of electronic and thermal Energies=              -422.956683
 Sum of electronic and thermal Enthalpies=            -422.955739
 Sum of electronic and thermal Free Energies=         -422.998472

                     E (Thermal)             CV                S
                      KCal/Mol        Cal/Mol-Kelvin    Cal/Mol-Kelvin
 Total                  104.658             32.251             89.938
 Electronic               0.000              0.000              0.000
 Translational            0.889              2.981             40.409
 Rotational               0.889              2.981             28.904
 Vibrational            102.881             26.289             20.625
 Vibration     1          0.598              1.969              4.166
 Vibration     2          0.602              1.954              3.601
 Vibration     3          0.628              1.872              2.368
 Vibration     4          0.661              1.769              1.757
 Vibration     5          0.700              1.652              1.356
 Vibration     6          0.720              1.594              1.209
 Vibration     7          0.752              1.508              1.031
 Vibration     8          0.762              1.481              0.981
 Vibration     9          0.803              1.376              0.817
 Vibration    10          0.843              1.278              0.691

 Optimization completed.
    -- Stationary point found.
 Normal termination of Gaussian 09 at Mon Jan 27 18:02:40 2020.
