 Gaussian 09, Revision D.01,
 Gaussian 09:  ES64L-G09RevD.01 24-Apr-2013

 -----------------------------
 # b3lyp 6-31G(2df,p) opt Freq
 -----------------------------

 -----
 titel
 -----
 Symbolic Z-matrix:
 Charge =  0 Multiplicity = 1

 SCF Done:  E(RB3LYP) =  -423.112704432     A.U. after   13 cycles
 Optimization completed.
    -- Stationary point found.
 Normal termination of Gaussian 09 at Tue Jan 28 14:02:05 2020.

 ----------------------------------------------------------------------
 #N Geom=AllCheck Guess=TCheck SCRF=Check GenChk RB3LYP/6-31G(2df,p) Fr
 eq
 ----------------------------------------------------------------------

 Structure from the checkpoint file:  "/scratch/puck/g09_91f31def-56c8-4b51-965b-95f2336ea2d7/Gau-28485.chk"
 -----
 titel
 -----
 Charge =  0 Multiplicity = 1

                         Standard orientation:
 ---------------------------------------------------------------------
 Center     Atomic      Atomic             Coordinates (Angstroms)
 Number     Number       Type             X           Y           Z
 ---------------------------------------------------------------------
      1          6           0        2.978883   -0.965321    0.075634
      2          8           0        2.359220    0.297833   -0.077139
      3          6           0        1.036597    0.308159    0.349344
      4          6           0        0.198517    1.365634   -0.280379
      5          6           0       -1.190382    1.393975    0.375947
      6          6           0       -1.368609   -0.075503   -0.066097
      7          6           0       -2.590373   -0.757572   -0.485996
      8          8           0       -1.925311   -1.106740    0.737272
      9          6           0        0.004830   -0.116059   -0.680075
     10          1           0        2.473331   -1.741022   -0.516446
     11          1           0        4.008937   -0.860651   -0.272235
     12          1           0        2.988048   -1.284566    1.128263
     13          1           0        0.897481    0.040980    1.400897
     14          1           0        0.647749    2.156395   -0.865720
     15          1           0       -1.210822    1.572879    1.455601
     16          1           0       -1.893729    2.071204   -0.114496
     17          1           0       -3.554018   -0.261327   -0.371476
     18          1           0       -2.550118   -1.513199   -1.270405
     19          1           0        0.305094   -0.629306   -1.585312
 ---------------------------------------------------------------------

 SCF Done:  E(RB3LYP) =  -423.112704432     A.U. after    1 cycles

 The electronic state is 1-A.
 Alpha  occ. eigenvalues --  -19.14833 -19.14570 -10.24378 -10.23857 -10.23070
 Alpha  occ. eigenvalues --  -10.22593 -10.19738 -10.19211 -10.19113  -1.06715
 Alpha  occ. eigenvalues --   -1.04423  -0.89225  -0.73128  -0.67953  -0.66480
 Alpha  occ. eigenvalues --   -0.62955  -0.58218  -0.53532  -0.52203  -0.49747
 Alpha  occ. eigenvalues --   -0.47408  -0.46220  -0.44647  -0.43192  -0.41866
 Alpha  occ. eigenvalues --   -0.40333  -0.35715  -0.34746  -0.34490  -0.31951
 Alpha  occ. eigenvalues --   -0.29324  -0.27146  -0.26116  -0.24322
 Alpha virt. eigenvalues --    0.07877   0.09594   0.10448   0.11394   0.12322
 Alpha virt. eigenvalues --    0.12972   0.13754   0.14247   0.15319   0.16061
 Alpha virt. eigenvalues --    0.16541   0.17866   0.18699   0.19947   0.20253

 Mulliken charges:
               1
     1  C   -0.238997
     2  O   -0.251831
     3  C    0.117796
     4  C   -0.092630
     5  C   -0.349006
     6  C    0.461003
     7  C   -0.270672
     8  O   -0.274754
     9  C   -0.193615
    10  H    0.111037
    11  H    0.128095
    12  H    0.111553
    13  H    0.091196
    14  H    0.102927
    15  H    0.112196
    16  H    0.114285
    17  H    0.113119
    18  H    0.113860
    19  H    0.094438
 Sum of Mulliken charges =   0.00000

 Dipole moment (field-independent basis, Debye):
    X=             -0.0823    Y=              0.2304    Z=             -1.1608  Tot=              1.1863
 Quadrupole moment (field-independent basis, Debye-Ang):
   XX=            -50.9496   YY=            -53.2218   ZZ=            -52.9820
   XY=             -5.4607   XZ=              3.5015   YZ=              2.1959

  Exact polarizability:  94.387  -1.446  72.404   2.010   3.253  63.658
 Approx polarizability: 117.110   2.061 108.759   2.410   1.717 100.611

                      1                      2                      3
                      A                      A                      A
 Frequencies --     93.4313               114.5749               162.3706
 Red. masses --      3.0830                 3.4724                 1.7227
 Frc consts  --      0.0159                 0.0269                 0.0268
 IR Inten    --      4.2991                 2.6854                 0.2336

                      4                      5                      6
                      A                      A                      A
 Frequencies --    188.0623               252.4666               338.7592
 Red. masses --      1.6288                 2.6935                 2.6557
 Frc consts  --      0.0339                 0.1012                 0.1796
 IR Inten    --      0.7931                 1.3492                 4.3085

                      7                      8                      9
                      A                      A                      A
 Frequencies --    357.4767               414.5782               451.7694
 Red. masses --      3.1421                 4.4741                 2.4325
 Frc consts  --      0.2366                 0.4531                 0.2925
 IR Inten    --      0.8852                 1.2060                 3.5357

                     10                     11                     12
                      A                      A                      A
 Frequencies --    492.5071               589.0437               792.0532
 Red. masses --      3.5176                 5.5821                 2.9674
 Frc consts  --      0.5027                 1.1411                 1.0968
 IR Inten    --      2.5611                18.0946                 1.3373

                     13                     14                     15
                      A                      A                      A
 Frequencies --    812.4521               840.9946               862.0619
 Red. masses --      1.7742                 3.1014                 1.9957
 Frc consts  --      0.6900                 1.2924                 0.8738
 IR Inten    --      1.9294                24.8851                41.4549

                     16                     17                     18
                      A                      A                      A
 Frequencies --    898.8314               917.8802               956.1651
 Red. masses --      1.7675                 2.3004                 2.9392
 Frc consts  --      0.8414                 1.1419                 1.5833
 IR Inten    --      9.5111                 4.5993                21.8908

                     19                     20                     21
                      A                      A                      A
 Frequencies --    997.3664              1006.8634              1026.7403
 Red. masses --      1.2924                 3.2448                 2.2540
 Frc consts  --      0.7575                 1.9381                 1.4000
 IR Inten    --      2.4029                10.6083                13.8454

                     22                     23                     24
                      A                      A                      A
 Frequencies --   1073.0784              1103.3765              1119.6570
 Red. masses --      2.2690                 1.4960                 1.3490
 Frc consts  --      1.5394                 1.0731                 0.9964
 IR Inten    --     15.9784                 6.9803                16.1643

                     25                     26                     27
                      A                      A                      A
 Frequencies --   1133.0017              1148.9470              1173.2884
 Red. masses --      1.6111                 1.4933                 1.9210
 Frc consts  --      1.2185                 1.1614                 1.5581
 IR Inten    --     20.2476                 9.5686                51.4476

                     28                     29                     30
                      A                      A                      A
 Frequencies --   1179.3434              1183.1795              1186.5157
 Red. masses --      1.6747                 1.5956                 1.4726
 Frc consts  --      1.3724                 1.3160                 1.2215
 IR Inten    --      1.5260                11.1656                 2.4278

                     31                     32                     33
                      A                      A                      A
 Frequencies --   1235.4545              1247.3346              1262.2989
 Red. masses --      1.6191                 2.2546                 2.1026
 Frc consts  --      1.4561                 2.0668                 1.9739
 IR Inten    --     11.5078                65.1336                 5.6108

                     34                     35                     36
                      A                      A                      A
 Frequencies --   1306.7968              1412.1926              1444.4197
 Red. masses --      1.4830                 1.9728                 2.1071
 Frc consts  --      1.4921                 2.3180                 2.5902
 IR Inten    --      0.2450                45.9790                46.8137

                     37                     38                     39
                      A                      A                      A
 Frequencies --   1481.7246              1484.6566              1487.6058
 Red. masses --      1.1338                 1.1165                 1.1383
 Frc consts  --      1.4666                 1.4500                 1.4842
 IR Inten    --      1.3737                 4.8978                 5.2266

                     40                     41                     42
                      A                      A                      A
 Frequencies --   1508.0749              1538.5237              2988.9805
 Red. masses --      1.0687                 1.6410                 1.0357
 Frc consts  --      1.4320                 2.2885                 5.4518
 IR Inten    --      4.9874                12.3062                52.4604

                     43                     44                     45
                      A                      A                      A
 Frequencies --   3041.1404              3051.9087              3057.5124
 Red. masses --      1.1029                 1.0598                 1.0871
 Frc consts  --      6.0097                 5.8159                 5.9876
 IR Inten    --     50.3109                30.3697                28.1104

                     46                     47                     48
                      A                      A                      A
 Frequencies --   3073.3050              3108.9206              3122.0563
 Red. masses --      1.0504                 1.1062                 1.0981
 Frc consts  --      5.8455                 6.2994                 6.3064
 IR Inten    --     30.8705                16.2460                30.0554

                     49                     50                     51
                      A                      A                      A
 Frequencies --   3158.0599              3191.2696              3212.2743
 Red. masses --      1.1192                 1.0914                 1.0945
 Frc consts  --      6.5763                 6.5486                 6.6542
 IR Inten    --     22.8518                 9.2756                 7.2726

 - Thermochemistry -
 -------------------
 Temperature   298.150 Kelvin.  Pressure   1.00000 Atm.
 Atom     1 has atomic number  6 and mass  12.00000

 Molecular mass:   126.06808 amu.
 Principal axes and moments of inertia in atomic units:
                           1         2         3
     Eigenvalues --   491.621241705.786831968.51457
           X            0.99939  -0.03369   0.00905
           Y            0.03332   0.99872   0.03813
           Z           -0.01032  -0.03781   0.99923
 This molecule is an asymmetric top.
 Rotational symmetry number  1.
 Warning -- assumption of classical behavior for rotation
           may cause significant error
 Rotational temperatures (Kelvin)      0.17618     0.05078     0.04400
 Rotational constants (GHZ):           3.67100     1.05801     0.91680
 Zero-point vibrational energy     414394.5 (Joules/Mol)
                                   99.04266 (Kcal/Mol)
 Warning -- explicit consideration of  11 degrees of freedom as
           vibrations may cause significant error
 Vibrational temperatures:    134.43   164.85   233.61   270.58   363.24
          (Kelvin)            487.40   514.33   596.48   649.99   708.61
                              847.50  1139.59  1168.94  1210.00  1240.31
                             1293.22  1320.62  1375.71  1434.99  1448.65
                             1477.25  1543.92  1587.51  1610.93  1630.13
                             1653.08  1688.10  1696.81  1702.33  1707.13
                             1777.54  1794.63  1816.16  1880.19  2031.83
                             2078.20  2131.87  2136.09  2140.33  2169.78
                             2213.59  4300.47  4375.52  4391.01  4399.07
                             4421.79  4473.04  4491.94  4543.74  4591.52
                             4621.74

 Zero-point correction=                           0.157835 (Hartree/Particle)
 Thermal correction to Energy=                    0.166307
 Thermal correction to Enthalpy=                  0.167251
 Thermal correction to Gibbs Free Energy=         0.124560
 Sum of electronic and zero-point Energies=           -422.954870
 Sum of electronic and thermal Energies=              -422.946397
 Sum of electronic and thermal Enthalpies=            -422.945453
 Sum of electronic and thermal Free Energies=         -422.988144

                     E (Thermal)             CV                S
                      KCal/Mol        Cal/Mol-Kelvin    Cal/Mol-Kelvin
 Total                  104.359             32.020             89.851
 Electronic               0.000              0.000              0.000
 Translational            0.889              2.981             40.409
 Rotational               0.889              2.981             28.892
 Vibrational            102.582             26.058             20.551
 Vibration     1          0.602              1.954              3.587
 Vibration     2          0.608              1.937              3.190
 Vibration     3          0.622              1.889              2.522
 Vibration     4          0.633              1.856              2.247
 Vibration     5          0.664              1.759              1.713
 Vibration     6          0.719              1.598              1.218
 Vibration     7          0.733              1.560              1.133
 Vibration     8          0.778              1.439              0.911
 Vibration     9          0.810              1.357              0.790
 Vibration    10          0.848              1.267              0.677
 Vibration    11          0.946              1.055              0.469

 Optimization completed.
    -- Stationary point found.
 Normal termination of Gaussian 09 at Tue Jan 28 14:45:48 2020.
