 Gaussian 09, Revision D.01,
 Gaussian 09:  ES64L-G09RevD.01 24-Apr-2013

 -----------------------------
 # b3lyp 6-31G(2df,p) opt Freq
 -----------------------------

 -----
 titel
 -----
 Symbolic Z-matrix:
 Charge =  0 Multiplicity = 1

 SCF Done:  E(RB3LYP) =  -423.153889820     A.U. after   14 cycles
 Optimization completed.
    -- Stationary point found.
 Normal termination of Gaussian 09 at Tue Jan 28 14:02:37 2020.

 ----------------------------------------------------------------------
 #N Geom=AllCheck Guess=TCheck SCRF=Check GenChk RB3LYP/6-31G(2df,p) Fr
 eq
 ----------------------------------------------------------------------

 Structure from the checkpoint file:  "/scratch/puck/g09_2c03311c-c312-4f2d-90be-023801010104/Gau-143636.chk"
 -----
 titel
 -----
 Charge =  0 Multiplicity = 1

                         Standard orientation:
 ---------------------------------------------------------------------
 Center     Atomic      Atomic             Coordinates (Angstroms)
 Number     Number       Type             X           Y           Z
 ---------------------------------------------------------------------
      1          6           0        2.827524   -0.994303   -0.232500
      2          6           0        1.609198   -0.714365    0.653342
      3          6           0        0.371178   -0.333754   -0.149472
      4          6           0        0.346064    1.058156   -0.810278
      5          8           0        0.371846    2.040148    0.241402
      6          6           0       -0.875415    1.441439   -0.094006
      7          6           0       -0.928818    0.066942    0.633422
      8          6           0       -2.164735   -0.730025    0.301213
      9          8           0       -2.246076   -1.554499   -0.574514
     10          1           0        3.700700   -1.262710    0.369607
     11          1           0        2.633324   -1.819545   -0.926433
     12          1           0        3.095745   -0.114977   -0.828319
     13          1           0        1.381425   -1.600356    1.259325
     14          1           0        1.835238    0.096865    1.354629
     15          1           0        0.108910   -1.106933   -0.878182
     16          1           0        0.717930    1.370097   -1.778950
     17          1           0       -1.696261    2.095734   -0.364393
     18          1           0       -0.841467    0.171336    1.720411
     19          1           0       -3.051676   -0.479239    0.926880
 ---------------------------------------------------------------------

 SCF Done:  E(RB3LYP) =  -423.153889820     A.U. after    1 cycles

 The electronic state is 1-A.
 Alpha  occ. eigenvalues --  -19.16128 -19.14847 -10.27868 -10.25287 -10.24292
 Alpha  occ. eigenvalues --  -10.20686 -10.19783 -10.18285 -10.17613  -1.08809
 Alpha  occ. eigenvalues --   -1.05427  -0.82890  -0.76425  -0.69525  -0.65340
 Alpha  occ. eigenvalues --   -0.61732  -0.58905  -0.54243  -0.52419  -0.49085
 Alpha  occ. eigenvalues --   -0.46907  -0.44433  -0.43475  -0.42258  -0.40850
 Alpha  occ. eigenvalues --   -0.39054  -0.37478  -0.36641  -0.34916  -0.33588
 Alpha  occ. eigenvalues --   -0.32440  -0.29710  -0.26842  -0.25664
 Alpha virt. eigenvalues --   -0.03295   0.07113   0.09414   0.11767   0.11873
 Alpha virt. eigenvalues --    0.12555   0.13878   0.14300   0.14895   0.15503
 Alpha virt. eigenvalues --    0.17246   0.17794   0.18835   0.19289   0.19790

 Mulliken charges:
               1
     1  C   -0.384583
     2  C   -0.200043
     3  C   -0.016877
     4  C    0.022682
     5  O   -0.242367
     6  C    0.018955
     7  C   -0.163311
     8  C    0.129992
     9  O   -0.237065
    10  H    0.116144
    11  H    0.117512
    12  H    0.119098
    13  H    0.098353
    14  H    0.111863
    15  H    0.107151
    16  H    0.108359
    17  H    0.114369
    18  H    0.097475
    19  H    0.082295
 Sum of Mulliken charges =   0.00000

 Dipole moment (field-independent basis, Debye):
    X=             -0.0090    Y=              0.5385    Z=              0.5252  Tot=              0.7522
 Quadrupole moment (field-independent basis, Debye-Ang):
   XX=            -53.2059   YY=            -59.0747   ZZ=            -51.8331
   XY=             -6.4276   XZ=             -4.0705   YZ=             -4.1472

  Exact polarizability:  87.256  -1.197  74.073  -4.752   1.181  66.298
 Approx polarizability: 113.476   3.716 114.751  -4.948  10.794 107.126

                      1                      2                      3
                      A                      A                      A
 Frequencies --     68.5832                79.5787               149.6043
 Red. masses --      4.8671                 2.6483                 1.9349
 Frc consts  --      0.0135                 0.0099                 0.0255
 IR Inten    --      4.2197                 3.1876                 3.4291

                      4                      5                      6
                      A                      A                      A
 Frequencies --    167.8152               205.0700               229.0567
 Red. masses --      3.0837                 2.9265                 1.6421
 Frc consts  --      0.0512                 0.0725                 0.0508
 IR Inten    --      3.0100                 6.2631                 0.6891

                      7                      8                      9
                      A                      A                      A
 Frequencies --    267.3121               385.8809               407.0400
 Red. masses --      2.1716                 3.8352                 4.1902
 Frc consts  --      0.0914                 0.3365                 0.4090
 IR Inten    --      1.0458                 3.1154                 2.4822

                     10                     11                     12
                      A                      A                      A
 Frequencies --    576.6342               690.3556               694.7163
 Red. masses --      3.1371                 4.6061                 3.3542
 Frc consts  --      0.6146                 1.2934                 0.9538
 IR Inten    --      6.9637                24.9399                 0.2592

                     13                     14                     15
                      A                      A                      A
 Frequencies --    789.8360               825.0976               859.9156
 Red. masses --      1.4229                 4.3516                 2.2865
 Frc consts  --      0.5230                 1.7455                 0.9962
 IR Inten    --      4.9335                 6.5593                 5.1276

                     16                     17                     18
                      A                      A                      A
 Frequencies --    865.8195               895.6735               927.7733
 Red. masses --      1.5499                 2.1782                 2.3480
 Frc consts  --      0.6845                 1.0296                 1.1908
 IR Inten    --     21.7263                 3.6633                 0.3997

                     19                     20                     21
                      A                      A                      A
 Frequencies --    965.8756               992.6442              1034.7924
 Red. masses --      2.8530                 2.0019                 2.1645
 Frc consts  --      1.5682                 1.1622                 1.3656
 IR Inten    --      5.1902                19.6746                31.6627

                     22                     23                     24
                      A                      A                      A
 Frequencies --   1038.6697              1068.4337              1087.1629
 Red. masses --      1.3879                 1.8958                 1.8164
 Frc consts  --      0.8822                 1.2751                 1.2649
 IR Inten    --      5.0876                 7.9950                 0.8508

                     25                     26                     27
                      A                      A                      A
 Frequencies --   1106.7843              1142.2767              1194.8773
 Red. masses --      1.7406                 2.2428                 1.4842
 Frc consts  --      1.2562                 1.7242                 1.2485
 IR Inten    --      7.3144                 5.3083                12.6783

                     28                     29                     30
                      A                      A                      A
 Frequencies --   1224.9515              1234.4147              1251.9920
 Red. masses --      1.3669                 1.4212                 1.3609
 Frc consts  --      1.2085                 1.2759                 1.2569
 IR Inten    --     16.6548                 9.5204                 1.8747

                     31                     32                     33
                      A                      A                      A
 Frequencies --   1277.6977              1331.4104              1351.8904
 Red. masses --      1.3217                 1.5743                 1.4696
 Frc consts  --      1.2713                 1.6442                 1.5824
 IR Inten    --      2.5295                 1.3660                12.3875

                     34                     35                     36
                      A                      A                      A
 Frequencies --   1383.0304              1397.5237              1412.3409
 Red. masses --      2.6465                 1.8230                 1.2481
 Frc consts  --      2.9825                 2.0978                 1.4669
 IR Inten    --     27.4837                 3.2650                 1.5906

                     37                     38                     39
                      A                      A                      A
 Frequencies --   1425.6649              1489.1771              1498.9485
 Red. masses --      1.2245                 1.0611                 1.0401
 Frc consts  --      1.4664                 1.3864                 1.3768
 IR Inten    --      9.8493                 0.3423                 5.4656

                     40                     41                     42
                      A                      A                      A
 Frequencies --   1505.2009              1820.9098              2871.7039
 Red. masses --      1.0719                10.2720                 1.0827
 Frc consts  --      1.4309                20.0670                 5.2605
 IR Inten    --      3.2860               137.3073               139.1630

                     43                     44                     45
                      A                      A                      A
 Frequencies --   3027.3329              3031.4312              3057.4800
 Red. masses --      1.0602                 1.0373                 1.0845
 Frc consts  --      5.7248                 5.6165                 5.9734
 IR Inten    --     14.5976                29.4882                16.6914

                     46                     47                     48
                      A                      A                      A
 Frequencies --   3062.4210              3079.7496              3099.7140
 Red. masses --      1.0953                 1.0882                 1.1019
 Frc consts  --      6.0523                 6.0813                 6.2377
 IR Inten    --      2.1938                 6.0968                41.7231

                     49                     50                     51
                      A                      A                      A
 Frequencies --   3105.5660              3180.2154              3196.9190
 Red. masses --      1.1006                 1.0872                 1.1007
 Frc consts  --      6.2542                 6.4787                 6.6282
 IR Inten    --     32.9197                13.2928                16.9287

 - Thermochemistry -
 -------------------
 Temperature   298.150 Kelvin.  Pressure   1.00000 Atm.
 Atom     1 has atomic number  6 and mass  12.00000

 Molecular mass:   126.06808 amu.
 Principal axes and moments of inertia in atomic units:
                           1         2         3
     Eigenvalues --   795.229041349.588191865.49651
           X            0.99618  -0.08628  -0.01372
           Y            0.08602   0.99611  -0.01891
           Z            0.01530   0.01766   0.99973
 This molecule is an asymmetric top.
 Rotational symmetry number  1.
 Warning -- assumption of classical behavior for rotation
           may cause significant error
 Rotational temperatures (Kelvin)      0.10892     0.06418     0.04643
 Rotational constants (GHZ):           2.26946     1.33725     0.96743
 Zero-point vibrational energy     412920.8 (Joules/Mol)
                                   98.69044 (Kcal/Mol)
 Warning -- explicit consideration of  10 degrees of freedom as
           vibrations may cause significant error
 Vibrational temperatures:     98.68   114.50   215.25   241.45   295.05
          (Kelvin)            329.56   384.60   555.20   585.64   829.65
                              993.27   999.54  1136.40  1187.13  1237.23
                             1245.72  1288.67  1334.86  1389.68  1428.19
                             1488.83  1494.41  1537.24  1564.18  1592.41
                             1643.48  1719.16  1762.43  1776.05  1801.34
                             1838.32  1915.60  1945.07  1989.87  2010.72
                             2032.04  2051.21  2142.59  2156.65  2165.65
                             2619.88  4131.74  4355.65  4361.55  4399.03
                             4406.14  4431.07  4459.79  4468.21  4575.61
                             4599.65

 Zero-point correction=                           0.157273 (Hartree/Particle)
 Thermal correction to Energy=                    0.166258
 Thermal correction to Enthalpy=                  0.167202
 Thermal correction to Gibbs Free Energy=         0.122858
 Sum of electronic and zero-point Energies=           -422.996617
 Sum of electronic and thermal Energies=              -422.987632
 Sum of electronic and thermal Enthalpies=            -422.986688
 Sum of electronic and thermal Free Energies=         -423.031032

                     E (Thermal)             CV                S
                      KCal/Mol        Cal/Mol-Kelvin    Cal/Mol-Kelvin
 Total                  104.328             32.556             93.329
 Electronic               0.000              0.000              0.000
 Translational            0.889              2.981             40.409
 Rotational               0.889              2.981             29.083
 Vibrational            102.551             26.595             23.837
 Vibration     1          0.598              1.969              4.194
 Vibration     2          0.600              1.963              3.901
 Vibration     3          0.618              1.903              2.677
 Vibration     4          0.625              1.882              2.460
 Vibration     5          0.640              1.833              2.087
 Vibration     6          0.652              1.797              1.886
 Vibration     7          0.672              1.733              1.614
 Vibration     8          0.755              1.500              1.016
 Vibration     9          0.772              1.455              0.937
 Vibration    10          0.933              1.082              0.492

 Optimization completed.
    -- Stationary point found.
 Normal termination of Gaussian 09 at Tue Jan 28 14:47:55 2020.
