 Gaussian 09, Revision D.01,
 Gaussian 09:  ES64L-G09RevD.01 24-Apr-2013

 -----------------------------
 # b3lyp 6-31G(2df,p) opt Freq
 -----------------------------

 -----
 titel
 -----
 Symbolic Z-matrix:
 Charge =  0 Multiplicity = 1

 SCF Done:  E(RB3LYP) =  -423.170632552     A.U. after   14 cycles
 Optimization completed.
    -- Stationary point found.
 Normal termination of Gaussian 09 at Tue Jan 28 13:19:21 2020.

 ----------------------------------------------------------------------
 #N Geom=AllCheck Guess=TCheck SCRF=Check GenChk RB3LYP/6-31G(2df,p) Fr
 eq
 ----------------------------------------------------------------------

 Structure from the checkpoint file:  "/scratch/puck/g09_45fb4a80-5f33-45d2-b076-18fb1441007a/Gau-108723.chk"
 -----
 titel
 -----
 Charge =  0 Multiplicity = 1

                         Standard orientation:
 ---------------------------------------------------------------------
 Center     Atomic      Atomic             Coordinates (Angstroms)
 Number     Number       Type             X           Y           Z
 ---------------------------------------------------------------------
      1          6           0       -3.189528   -0.162011    0.015030
      2          6           0       -1.858211    0.526809   -0.301636
      3          6           0       -0.673319   -0.092608    0.431706
      4          6           0       -0.194562   -1.518564   -0.006437
      5          6           0        1.251822   -0.981933   -0.071468
      6          8           0        2.333459   -1.479894   -0.179544
      7          6           0        0.741103    0.439591    0.118878
      8          6           0        1.167953    1.637474   -0.626666
      9          8           0        1.417938    1.493664    0.769206
     10          1           0       -4.015858    0.308267   -0.526293
     11          1           0       -3.166830   -1.220500   -0.265275
     12          1           0       -3.416841   -0.107626    1.085182
     13          1           0       -1.669945    0.491132   -1.382895
     14          1           0       -1.925969    1.589442   -0.035089
     15          1           0       -0.841337   -0.063083    1.514092
     16          1           0       -0.352745   -2.340300    0.695076
     17          1           0       -0.561834   -1.822832   -0.992563
     18          1           0        2.045470    1.578903   -1.268359
     19          1           0        0.423160    2.383890   -0.897612
 ---------------------------------------------------------------------

 SCF Done:  E(RB3LYP) =  -423.170632552     A.U. after    1 cycles

 The electronic state is 1-A.
 Alpha  occ. eigenvalues --  -19.17022 -19.14322 -10.27306 -10.25036 -10.24979
 Alpha  occ. eigenvalues --  -10.20563 -10.19822 -10.19597 -10.18477  -1.09221
 Alpha  occ. eigenvalues --   -1.04984  -0.85355  -0.77014  -0.68160  -0.66371
 Alpha  occ. eigenvalues --   -0.64553  -0.58386  -0.53653  -0.50662  -0.48860
 Alpha  occ. eigenvalues --   -0.46704  -0.44822  -0.44214  -0.41931  -0.41365
 Alpha  occ. eigenvalues --   -0.39608  -0.38188  -0.36942  -0.35240  -0.34622
 Alpha  occ. eigenvalues --   -0.33370  -0.31048  -0.29105  -0.24207
 Alpha virt. eigenvalues --   -0.03749   0.07830   0.09370   0.10092   0.11682
 Alpha virt. eigenvalues --    0.12743   0.13483   0.14176   0.15142   0.15725
 Alpha virt. eigenvalues --    0.16855   0.18171   0.18383   0.19762   0.21504

 Mulliken charges:
               1
     1  C   -0.383382
     2  C   -0.201398
     3  C   -0.079426
     4  C   -0.380393
     5  C    0.337783
     6  O   -0.298646
     7  C    0.326675
     8  C   -0.248222
     9  O   -0.259384
    10  H    0.117715
    11  H    0.121314
    12  H    0.120076
    13  H    0.095799
    14  H    0.106686
    15  H    0.095092
    16  H    0.136791
    17  H    0.132051
    18  H    0.135110
    19  H    0.125760
 Sum of Mulliken charges =   0.00000

 Dipole moment (field-independent basis, Debye):
    X=             -3.3041    Y=              0.6782    Z=             -1.1580  Tot=              3.5662
 Quadrupole moment (field-independent basis, Debye-Ang):
   XX=            -60.4795   YY=            -54.1879   ZZ=            -52.0808
   XY=              3.3863   XZ=             -1.9674   YZ=             -3.5883

  Exact polarizability:  87.801   0.858  81.119  -2.834  -3.761  61.809
 Approx polarizability: 117.594  -1.652 118.698  -2.342  -2.217  99.693

                      1                      2                      3
                      A                      A                      A
 Frequencies --     64.8169               101.9360               141.1088
 Red. masses --      3.3213                 2.2696                 3.3419
 Frc consts  --      0.0082                 0.0139                 0.0392
 IR Inten    --      2.7327                 0.2783                 1.5698

                      4                      5                      6
                      A                      A                      A
 Frequencies --    205.5136               218.5539               230.4943
 Red. masses --      2.9417                 1.4463                 3.9552
 Frc consts  --      0.0732                 0.0407                 0.1238
 IR Inten    --      3.6041                 0.1854                 2.6432

                      7                      8                      9
                      A                      A                      A
 Frequencies --    298.1262               338.6065               425.6854
 Red. masses --      2.2280                 3.9952                 2.8963
 Frc consts  --      0.1167                 0.2699                 0.3092
 IR Inten    --      2.4461                 0.5493                 2.5439

                     10                     11                     12
                      A                      A                      A
 Frequencies --    500.7272               561.7252               621.2222
 Red. masses --      2.1069                 2.9741                 4.6040
 Frc consts  --      0.3112                 0.5529                 1.0468
 IR Inten    --      0.1653                 1.7054                 8.3753

                     13                     14                     15
                      A                      A                      A
 Frequencies --    701.9034               778.7715               802.2048
 Red. masses --      3.2957                 1.5351                 1.6660
 Frc consts  --      0.9566                 0.5485                 0.6317
 IR Inten    --      0.3614                 5.3284                 5.3999

                     16                     17                     18
                      A                      A                      A
 Frequencies --    839.1193               908.0206               918.3819
 Red. masses --      2.3710                 2.7757                 3.6972
 Frc consts  --      0.9836                 1.3484                 1.8373
 IR Inten    --     35.9431                 1.2079                11.7286

                     19                     20                     21
                      A                      A                      A
 Frequencies --    958.7591               982.7190              1027.6620
 Red. masses --      1.6343                 2.5082                 2.6737
 Frc consts  --      0.8851                 1.4272                 1.6637
 IR Inten    --      2.5446                 6.8688                41.9639

                     22                     23                     24
                      A                      A                      A
 Frequencies --   1059.7446              1071.4914              1119.8556
 Red. masses --      1.7760                 2.4870                 2.1652
 Frc consts  --      1.1752                 1.6823                 1.5998
 IR Inten    --     15.2940                15.1910                 4.5801

                     25                     26                     27
                      A                      A                      A
 Frequencies --   1128.9919              1153.4729              1162.1020
 Red. masses --      1.2940                 1.6377                 1.4286
 Frc consts  --      0.9718                 1.2838                 1.1367
 IR Inten    --      1.8444                15.9792                 4.8066

                     28                     29                     30
                      A                      A                      A
 Frequencies --   1182.4522              1223.7273              1246.6685
 Red. masses --      1.8513                 1.8551                 1.3761
 Frc consts  --      1.5251                 1.6368                 1.2601
 IR Inten    --      6.3948                 3.5624                 1.6420

                     31                     32                     33
                      A                      A                      A
 Frequencies --   1290.7467              1340.2642              1387.1211
 Red. masses --      1.2775                 1.3200                 1.5891
 Frc consts  --      1.2540                 1.3970                 1.8015
 IR Inten    --      1.6652                 5.4952                 1.6683

                     34                     35                     36
                      A                      A                      A
 Frequencies --   1402.7982              1413.9245              1440.4581
 Red. masses --      2.6961                 1.2391                 1.1812
 Frc consts  --      3.1259                 1.4595                 1.4440
 IR Inten    --      8.2137                 1.6634                10.4068

                     37                     38                     39
                      A                      A                      A
 Frequencies --   1486.9449              1499.6204              1506.2432
 Red. masses --      1.0621                 1.0401                 1.0719
 Frc consts  --      1.3836                 1.3781                 1.4329
 IR Inten    --      0.9628                 5.2360                 2.6601

                     40                     41                     42
                      A                      A                      A
 Frequencies --   1520.0715              1893.4612              3015.1040
 Red. masses --      1.3551                12.8416                 1.0594
 Frc consts  --      1.8448                27.1259                 5.6744
 IR Inten    --      5.4131               251.8879                18.1919

                     43                     44                     45
                      A                      A                      A
 Frequencies --   3033.3347              3042.1486              3055.2862
 Red. masses --      1.0359                 1.0912                 1.0685
 Frc consts  --      5.6156                 5.9500                 5.8769
 IR Inten    --     22.8732                 6.6785                 1.7632

                     46                     47                     48
                      A                      A                      A
 Frequencies --   3058.2772              3087.3748              3101.4190
 Red. masses --      1.0871                 1.0489                 1.1020
 Frc consts  --      5.9908                 5.8909                 6.2453
 IR Inten    --     26.6980                18.7465                38.7613

                     49                     50                     51
                      A                      A                      A
 Frequencies --   3107.2041              3120.9621              3181.9193
 Red. masses --      1.1013                 1.1021                 1.1205
 Frc consts  --      6.2644                 6.3248                 6.6842
 IR Inten    --     30.2151                 8.4461                14.3527

 - Thermochemistry -
 -------------------
 Temperature   298.150 Kelvin.  Pressure   1.00000 Atm.
 Atom     1 has atomic number  6 and mass  12.00000

 Molecular mass:   126.06808 amu.
 Principal axes and moments of inertia in atomic units:
                           1         2         3
     Eigenvalues --   705.214911453.825541960.92483
           X            0.99969   0.02410  -0.00638
           Y           -0.02430   0.99915  -0.03342
           Z            0.00557   0.03356   0.99942
 This molecule is an asymmetric top.
 Rotational symmetry number  1.
 Warning -- assumption of classical behavior for rotation
           may cause significant error
 Rotational temperatures (Kelvin)      0.12282     0.05958     0.04417
 Rotational constants (GHZ):           2.55914     1.24137     0.92035
 Zero-point vibrational energy     412467.9 (Joules/Mol)
                                   98.58219 (Kcal/Mol)
 Warning -- explicit consideration of  11 degrees of freedom as
           vibrations may cause significant error
 Vibrational temperatures:     93.26   146.66   203.02   295.69   314.45
          (Kelvin)            331.63   428.94   487.18   612.47   720.43
                              808.20   893.80  1009.88  1120.48  1154.19
                             1207.30  1306.44  1321.35  1379.44  1413.91
                             1478.57  1524.73  1541.64  1611.22  1624.37
                             1659.59  1672.00  1701.28  1760.67  1793.68
                             1857.09  1928.34  1995.76  2018.31  2034.32
                             2072.50  2139.38  2157.62  2167.15  2187.04
                             2724.26  4338.06  4364.29  4376.97  4395.87
                             4400.17  4442.04  4462.24  4470.57  4490.36
                             4578.07

 Zero-point correction=                           0.157101 (Hartree/Particle)
 Thermal correction to Energy=                    0.166182
 Thermal correction to Enthalpy=                  0.167126
 Thermal correction to Gibbs Free Energy=         0.122864
 Sum of electronic and zero-point Energies=           -423.013532
 Sum of electronic and thermal Energies=              -423.004450
 Sum of electronic and thermal Enthalpies=            -423.003506
 Sum of electronic and thermal Free Energies=         -423.047768

                     E (Thermal)             CV                S
                      KCal/Mol        Cal/Mol-Kelvin    Cal/Mol-Kelvin
 Total                  104.281             33.351             93.158
 Electronic               0.000              0.000              0.000
 Translational            0.889              2.981             40.409
 Rotational               0.889              2.981             29.088
 Vibrational            102.504             27.389             23.662
 Vibration     1          0.597              1.971              4.305
 Vibration     2          0.604              1.948              3.417
 Vibration     3          0.615              1.912              2.789
 Vibration     4          0.640              1.832              2.083
 Vibration     5          0.646              1.813              1.971
 Vibration     6          0.652              1.794              1.875
 Vibration     7          0.691              1.677              1.427
 Vibration     8          0.719              1.598              1.219
 Vibration     9          0.788              1.414              0.873
 Vibration    10          0.856              1.248              0.656
 Vibration    11          0.917              1.114              0.520

 Optimization completed.
    -- Stationary point found.
 Normal termination of Gaussian 09 at Tue Jan 28 13:58:21 2020.
