 Gaussian 09, Revision D.01,
 Gaussian 09:  ES64L-G09RevD.01 24-Apr-2013

 -----------------------------
 # b3lyp 6-31G(2df,p) opt Freq
 -----------------------------

 -----
 titel
 -----
 Symbolic Z-matrix:
 Charge =  0 Multiplicity = 1

 SCF Done:  E(RB3LYP) =  -423.206626034     A.U. after   14 cycles
 Optimization completed.
    -- Stationary point found.
 Normal termination of Gaussian 09 at Mon Jan 27 14:09:42 2020.

 ----------------------------------------------------------------------
 #N Geom=AllCheck Guess=TCheck SCRF=Check GenChk RB3LYP/6-31G(2df,p) Fr
 eq
 ----------------------------------------------------------------------

 Structure from the checkpoint file:  "/scratch/puck/g09_ff59e83f-d4a8-4610-b97c-2c2daa808f30/Gau-31509.chk"
 -----
 titel
 -----
 Charge =  0 Multiplicity = 1

                         Standard orientation:
 ---------------------------------------------------------------------
 Center     Atomic      Atomic             Coordinates (Angstroms)
 Number     Number       Type             X           Y           Z
 ---------------------------------------------------------------------
      1          6           0        2.016525    1.478731    0.240208
      2          6           0        1.576078    0.056560   -0.041172
      3          8           0        2.247431   -0.720445   -0.683510
      4          6           0        0.210894   -0.334639    0.495002
      5          6           0       -0.138574   -1.839391    0.597984
      6          6           0       -1.525732   -1.559030   -0.039819
      7          6           0       -0.965995   -0.180575   -0.521258
      8          6           0       -1.857392    1.020309   -0.405589
      9          8           0       -1.623178    1.985286    0.280353
     10          1           0        2.309717    1.557443    1.294798
     11          1           0        2.867693    1.746755   -0.386940
     12          1           0        1.184541    2.175531    0.096854
     13          1           0       -0.025808    0.230939    1.400201
     14          1           0        0.512013   -2.415927   -0.063062
     15          1           0       -0.129133   -2.283012    1.595096
     16          1           0       -1.880058   -2.245437   -0.810815
     17          1           0       -2.311740   -1.435334    0.710734
     18          1           0       -0.620522   -0.261717   -1.559517
     19          1           0       -2.795550    0.960246   -1.004233
 ---------------------------------------------------------------------

 SCF Done:  E(RB3LYP) =  -423.206626034     A.U. after    1 cycles

 The electronic state is 1-A.
 Alpha  occ. eigenvalues --  -19.15123 -19.12849 -10.28033 -10.26833 -10.21356
 Alpha  occ. eigenvalues --  -10.20351 -10.19900 -10.19125 -10.18472  -1.05650
 Alpha  occ. eigenvalues --   -1.03842  -0.86461  -0.75161  -0.71361  -0.68342
 Alpha  occ. eigenvalues --   -0.60339  -0.56927  -0.53769  -0.50128  -0.48008
 Alpha  occ. eigenvalues --   -0.45941  -0.44122  -0.43914  -0.42406  -0.41746
 Alpha  occ. eigenvalues --   -0.39632  -0.39156  -0.37318  -0.34628  -0.34284
 Alpha  occ. eigenvalues --   -0.32788  -0.32382  -0.26119  -0.24403
 Alpha virt. eigenvalues --   -0.03242  -0.01463   0.08510   0.09235   0.10286
 Alpha virt. eigenvalues --    0.12550   0.13451   0.14143   0.15931   0.16520
 Alpha virt. eigenvalues --    0.17140   0.17627   0.18848   0.21071   0.21883

 Mulliken charges:
               1
     1  C   -0.485574
     2  C    0.357416
     3  O   -0.308940
     4  C   -0.079157
     5  C   -0.241453
     6  C   -0.253649
     7  C   -0.076337
     8  C    0.134700
     9  O   -0.246182
    10  H    0.144940
    11  H    0.137310
    12  H    0.156382
    13  H    0.093531
    14  H    0.133367
    15  H    0.106913
    16  H    0.113902
    17  H    0.114096
    18  H    0.114054
    19  H    0.084682
 Sum of Mulliken charges =   0.00000

 Dipole moment (field-independent basis, Debye):
    X=             -1.6666    Y=             -0.6498    Z=              0.1821  Tot=              1.7981
 Quadrupole moment (field-independent basis, Debye-Ang):
   XX=            -56.3419   YY=            -57.6467   ZZ=            -51.5133
   XY=              7.4853   XZ=              5.1770   YZ=             -2.5463

  Exact polarizability:  83.741   2.134  83.176   2.073   3.347  64.062
 Approx polarizability: 112.681  -3.282 122.526  -1.217  13.574 104.139

                      1                      2                      3
                      A                      A                      A
 Frequencies --     38.5219                70.5203               117.4559
 Red. masses --      5.0864                 4.3565                 2.2916
 Frc consts  --      0.0044                 0.0128                 0.0186
 IR Inten    --      6.8930                 7.2629                 1.3526

                      4                      5                      6
                      A                      A                      A
 Frequencies --    146.2521               159.1650               200.4802
 Red. masses --      3.1159                 1.1188                 3.4210
 Frc consts  --      0.0393                 0.0167                 0.0810
 IR Inten    --      0.5792                 1.3422                 8.4244

                      7                      8                      9
                      A                      A                      A
 Frequencies --    259.0789               343.6020               367.1702
 Red. masses --      3.2370                 2.7021                 3.0361
 Frc consts  --      0.1280                 0.1880                 0.2412
 IR Inten    --      5.1753                 0.6529                 3.2605

                     10                     11                     12
                      A                      A                      A
 Frequencies --    557.3295               581.0388               597.1948
 Red. masses --      3.3949                 2.8256                 3.1952
 Frc consts  --      0.6213                 0.5620                 0.6714
 IR Inten    --      1.3787                 6.2644                 9.0690

                     13                     14                     15
                      A                      A                      A
 Frequencies --    671.6326               751.1136               813.7171
 Red. masses --      2.7736                 2.2059                 1.4241
 Frc consts  --      0.7371                 0.7332                 0.5556
 IR Inten    --     16.4864                 4.2629                 4.2282

                     16                     17                     18
                      A                      A                      A
 Frequencies --    884.8852               930.8179               943.9683
 Red. masses --      1.7594                 1.7542                 2.4215
 Frc consts  --      0.8117                 0.8955                 1.2713
 IR Inten    --      0.3968                 1.0820                 0.8210

                     19                     20                     21
                      A                      A                      A
 Frequencies --    957.6120               976.2561               990.3332
 Red. masses --      2.4972                 1.9278                 1.8854
 Frc consts  --      1.3492                 1.0825                 1.0895
 IR Inten    --     11.9795                 5.5343                 5.2302

                     22                     23                     24
                      A                      A                      A
 Frequencies --   1041.0177              1081.6986              1120.1840
 Red. masses --      2.0998                 2.1628                 2.5848
 Frc consts  --      1.3407                 1.4910                 1.9110
 IR Inten    --      0.6851                 6.0422                 3.7386

                     25                     26                     27
                      A                      A                      A
 Frequencies --   1126.8171              1187.1296              1212.8488
 Red. masses --      2.1138                 2.0197                 1.3521
 Frc consts  --      1.5813                 1.6770                 1.1718
 IR Inten    --      7.9154                58.0706                16.3571

                     28                     29                     30
                      A                      A                      A
 Frequencies --   1223.9058              1240.1437              1263.0013
 Red. masses --      1.3393                 1.1817                 1.3682
 Frc consts  --      1.1820                 1.0708                 1.2859
 IR Inten    --     20.9688                 1.8227                 9.5840

                     31                     32                     33
                      A                      A                      A
 Frequencies --   1268.4523              1331.7753              1374.5216
 Red. masses --      1.4338                 1.6426                 1.4040
 Frc consts  --      1.3592                 1.7165                 1.5628
 IR Inten    --      6.5565                 5.9233                 8.2925

                     34                     35                     36
                      A                      A                      A
 Frequencies --   1390.3334              1415.5081              1465.6444
 Red. masses --      1.5534                 1.2304                 1.0534
 Frc consts  --      1.7691                 1.4526                 1.3333
 IR Inten    --     53.7643                10.4056                10.7417

                     37                     38                     39
                      A                      A                      A
 Frequencies --   1473.3856              1485.1475              1499.5474
 Red. masses --      1.0578                 1.0838                 1.1242
 Frc consts  --      1.3529                 1.4084                 1.4894
 IR Inten    --      7.6498                 2.5758                 0.1703

                     40                     41                     42
                      A                      A                      A
 Frequencies --   1805.1696              1814.6949              2868.7288
 Red. masses --     10.5179                10.5063                 1.0825
 Frc consts  --     20.1937                20.3849                 5.2485
 IR Inten    --    178.3283               101.5597               128.7903

                     43                     44                     45
                      A                      A                      A
 Frequencies --   3033.4262              3039.3514              3061.1871
 Red. masses --      1.0388                 1.0826                 1.0592
 Frc consts  --      5.6318                 5.8925                 5.8481
 IR Inten    --      1.7496                 7.5085                32.6599

                     46                     47                     48
                      A                      A                      A
 Frequencies --   3075.6766              3080.7323              3097.9461
 Red. masses --      1.0583                 1.0845                 1.0942
 Frc consts  --      5.8983                 6.0644                 6.1874
 IR Inten    --     28.0514                 6.7435                 4.3221

                     49                     50                     51
                      A                      A                      A
 Frequencies --   3116.8942              3137.5248              3153.3634
 Red. masses --      1.1072                 1.1080                 1.1039
 Frc consts  --      6.3374                 6.4264                 6.4672
 IR Inten    --     14.6539                21.2914                10.2416

 - Thermochemistry -
 -------------------
 Temperature   298.150 Kelvin.  Pressure   1.00000 Atm.
 Atom     1 has atomic number  6 and mass  12.00000

 Molecular mass:   126.06808 amu.
 Principal axes and moments of inertia in atomic units:
                           1         2         3
     Eigenvalues --   863.889921251.639361880.97194
           X            0.98984   0.14098   0.01848
           Y           -0.14089   0.99001  -0.00613
           Z           -0.01916   0.00347   0.99981
 This molecule is an asymmetric top.
 Rotational symmetry number  1.
 Warning -- assumption of classical behavior for rotation
           may cause significant error
 Rotational temperatures (Kelvin)      0.10026     0.06920     0.04605
 Rotational constants (GHZ):           2.08909     1.44190     0.95947
 Zero-point vibrational energy     411778.0 (Joules/Mol)
                                   98.41730 (Kcal/Mol)
 Warning -- explicit consideration of  12 degrees of freedom as
           vibrations may cause significant error
 Vibrational temperatures:     55.42   101.46   168.99   210.42   229.00
          (Kelvin)            288.45   372.76   494.37   528.28   801.87
                              835.98   859.23   966.33  1080.68  1170.76
                             1273.15  1339.24  1358.16  1377.79  1404.61
                             1424.87  1497.79  1556.32  1611.69  1621.24
                             1708.01  1745.02  1760.93  1784.29  1817.17
                             1825.02  1916.13  1977.63  2000.38  2036.60
                             2108.73  2119.87  2136.79  2157.51  2597.23
                             2610.94  4127.46  4364.42  4372.94  4404.36
                             4425.21  4432.48  4457.25  4484.51  4514.19
                             4536.98

 Zero-point correction=                           0.156838 (Hartree/Particle)
 Thermal correction to Energy=                    0.166379
 Thermal correction to Enthalpy=                  0.167323
 Thermal correction to Gibbs Free Energy=         0.121208
 Sum of electronic and zero-point Energies=           -423.049788
 Sum of electronic and thermal Energies=              -423.040247
 Sum of electronic and thermal Enthalpies=            -423.039303
 Sum of electronic and thermal Free Energies=         -423.085418

                     E (Thermal)             CV                S
                      KCal/Mol        Cal/Mol-Kelvin    Cal/Mol-Kelvin
 Total                  104.404             33.574             97.057
 Electronic               0.000              0.000              0.000
 Translational            0.889              2.981             40.409
 Rotational               0.889              2.981             29.099
 Vibrational            102.627             27.612             27.549
 Vibration     1          0.594              1.981              5.334
 Vibration     2          0.598              1.968              4.139
 Vibration     3          0.608              1.935              3.142
 Vibration     4          0.617              1.907              2.720
 Vibration     5          0.621              1.892              2.560
 Vibration     6          0.638              1.839              2.129
 Vibration     7          0.668              1.747              1.668
 Vibration     8          0.722              1.588              1.195
 Vibration     9          0.740              1.540              1.092
 Vibration    10          0.913              1.124              0.529
 Vibration    11          0.938              1.072              0.483
 Vibration    12          0.955              1.038              0.455

 Normal termination of Gaussian 09 at Mon Jan 27 15:03:57 2020.
