 Gaussian 09, Revision D.01,
 Gaussian 09:  ES64L-G09RevD.01 24-Apr-2013

 -----------------------------
 # b3lyp 6-31G(2df,p) opt Freq
 -----------------------------

 -----
 titel
 -----
 Symbolic Z-matrix:
 Charge =  0 Multiplicity = 1

 SCF Done:  E(RB3LYP) =  -423.230598254     A.U. after   14 cycles
 Optimization completed.
    -- Stationary point found.
 Normal termination of Gaussian 09 at Tue Jan 28 00:01:05 2020.

 ----------------------------------------------------------------------
 #N Geom=AllCheck Guess=TCheck SCRF=Check GenChk RB3LYP/6-31G(2df,p) Fr
 eq
 ----------------------------------------------------------------------

 Structure from the checkpoint file:  "/scratch/puck/g09_6ebd355d-d6f5-41d1-a437-1c53a56ca97d/Gau-104924.chk"
 -----
 titel
 -----
 Charge =  0 Multiplicity = 1

                         Standard orientation:
 ---------------------------------------------------------------------
 Center     Atomic      Atomic             Coordinates (Angstroms)
 Number     Number       Type             X           Y           Z
 ---------------------------------------------------------------------
      1          6           0       -2.367102   -1.329301    0.343264
      2          6           0       -1.198132   -0.621020   -0.347543
      3          6           0        0.103845   -1.394310   -0.311057
      4          6           0        1.187810   -0.652178   -0.026703
      5          6           0        2.628112   -1.044873    0.027876
      6          6           0        0.737271    0.745838    0.152247
      7          8           0        1.401834    1.760940    0.149925
      8          6           0       -0.789443    0.732998    0.269858
      9          8           0       -1.374798    1.856945   -0.334035
     10          1           0       -3.270261   -0.713890    0.298226
     11          1           0       -2.587619   -2.287967   -0.137931
     12          1           0       -2.141812   -1.526402    1.397008
     13          1           0       -1.470601   -0.428540   -1.394143
     14          1           0        0.130084   -2.460132   -0.522774
     15          1           0        3.219501   -0.403817   -0.634500
     16          1           0        3.033989   -0.906140    1.036378
     17          1           0        2.776378   -2.087444   -0.263916
     18          1           0       -1.022836    0.699825    1.350656
     19          1           0       -0.697287    2.548502   -0.303777
 ---------------------------------------------------------------------

 SCF Done:  E(RB3LYP) =  -423.230598254     A.U. after    1 cycles

 The electronic state is 1-A.
 Alpha  occ. eigenvalues --  -19.13519 -19.13437 -10.26283 -10.23460 -10.21100
 Alpha  occ. eigenvalues --  -10.20358 -10.20338 -10.19177 -10.18501  -1.04815
 Alpha  occ. eigenvalues --   -1.01407  -0.86007  -0.77469  -0.71721  -0.68368
 Alpha  occ. eigenvalues --   -0.63220  -0.57093  -0.53861  -0.49533  -0.48242
 Alpha  occ. eigenvalues --   -0.46002  -0.43272  -0.42747  -0.41725  -0.41383
 Alpha  occ. eigenvalues --   -0.39105  -0.37978  -0.37406  -0.36952  -0.35055
 Alpha  occ. eigenvalues --   -0.33985  -0.27393  -0.26705  -0.24496
 Alpha virt. eigenvalues --   -0.04900   0.04738   0.10142   0.10673   0.11014
 Alpha virt. eigenvalues --    0.12942   0.13644   0.15103   0.15913   0.16311
 Alpha virt. eigenvalues --    0.16979   0.17561   0.20303   0.22186   0.22743

 Mulliken charges:
               1
     1  C   -0.411883
     2  C   -0.047274
     3  C   -0.153262
     4  C    0.194105
     5  C   -0.494771
     6  C    0.282683
     7  O   -0.352175
     8  C    0.041869
     9  O   -0.442775
    10  H    0.135048
    11  H    0.115625
    12  H    0.119119
    13  H    0.110734
    14  H    0.107968
    15  H    0.149251
    16  H    0.140625
    17  H    0.124417
    18  H    0.088899
    19  H    0.291799
 Sum of Mulliken charges =   0.00000

 Dipole moment (field-independent basis, Debye):
    X=             -0.0570    Y=             -2.9845    Z=              0.1944  Tot=              2.9914
 Quadrupole moment (field-independent basis, Debye-Ang):
   XX=            -55.2755   YY=            -54.0727   ZZ=            -52.5416
   XY=             -1.3519   XZ=             -0.8034   YZ=              0.7819

  Exact polarizability:  95.068   6.532  86.686   2.219   2.481  56.081
 Approx polarizability: 132.417  22.565 138.133   7.591   6.000  89.035

                      1                      2                      3
                      A                      A                      A
 Frequencies --     71.5832               111.5700               151.9786
 Red. masses --      6.0456                 1.0790                 2.4908
 Frc consts  --      0.0183                 0.0079                 0.0339
 IR Inten    --      1.0144                 0.3730                 0.3260

                      4                      5                      6
                      A                      A                      A
 Frequencies --    216.2768               233.1661               243.1893
 Red. masses --      2.7822                 1.3603                 2.0664
 Frc consts  --      0.0767                 0.0436                 0.0720
 IR Inten    --      9.1413                 0.3357                 0.4375

                      7                      8                      9
                      A                      A                      A
 Frequencies --    289.0720               328.4829               356.7962
 Red. masses --      4.0215                 3.3153                 3.2231
 Frc consts  --      0.1980                 0.2108                 0.2417
 IR Inten    --     17.6003                 5.7846                12.9015

                     10                     11                     12
                      A                      A                      A
 Frequencies --    410.7820               504.5940               525.2061
 Red. masses --      1.1871                 3.3073                 4.8516
 Frc consts  --      0.1180                 0.4961                 0.7885
 IR Inten    --     65.2271                 1.9348                 6.8138

                     13                     14                     15
                      A                      A                      A
 Frequencies --    575.9144               647.3339               718.5524
 Red. masses --      3.4272                 3.4344                 4.7710
 Frc consts  --      0.6697                 0.8479                 1.4514
 IR Inten    --      7.9805                 0.5778                 3.0912

                     16                     17                     18
                      A                      A                      A
 Frequencies --    839.5564               880.6224               906.1676
 Red. masses --      3.0598                 2.3440                 1.3611
 Frc consts  --      1.2707                 1.0710                 0.6585
 IR Inten    --      2.0684                 5.2132                 8.0126

                     19                     20                     21
                      A                      A                      A
 Frequencies --    943.1125               987.5505              1053.4877
 Red. masses --      1.9295                 2.3426                 2.3390
 Frc consts  --      1.0111                 1.3461                 1.5295
 IR Inten    --      2.8810                41.2668                66.0552

                     22                     23                     24
                      A                      A                      A
 Frequencies --   1065.7412              1068.4890              1092.8481
 Red. masses --      1.6002                 1.7372                 2.1217
 Frc consts  --      1.0708                 1.1685                 1.4930
 IR Inten    --      2.1363                 6.9793                 6.8461

                     25                     26                     27
                      A                      A                      A
 Frequencies --   1128.0436              1153.4314              1221.2289
 Red. masses --      1.5754                 3.9514                 1.4233
 Frc consts  --      1.1811                 3.0973                 1.2507
 IR Inten    --      1.7519                47.6697                 3.9403

                     28                     29                     30
                      A                      A                      A
 Frequencies --   1254.1846              1276.8883              1335.3559
 Red. masses --      1.4647                 1.6639                 1.5537
 Frc consts  --      1.3574                 1.5984                 1.6324
 IR Inten    --     22.7928                 3.5603                41.1528

                     31                     32                     33
                      A                      A                      A
 Frequencies --   1337.0647              1373.4775              1407.1251
 Red. masses --      1.7037                 1.8297                 1.3231
 Frc consts  --      1.7945                 2.0336                 1.5435
 IR Inten    --     19.8939                16.1753                17.2322

                     34                     35                     36
                      A                      A                      A
 Frequencies --   1413.9145              1419.3487              1474.6821
 Red. masses --      1.2823                 1.4867                 1.0433
 Frc consts  --      1.5104                 1.7646                 1.3367
 IR Inten    --      1.7238                21.7331                 6.4362

                     37                     38                     39
                      A                      A                      A
 Frequencies --   1486.8606              1497.2441              1499.4139
 Red. masses --      1.0653                 1.0479                 1.0481
 Frc consts  --      1.3876                 1.3840                 1.3883
 IR Inten    --      9.3964                 5.2333                 3.8284

                     40                     41                     42
                      A                      A                      A
 Frequencies --   1684.2625              1802.2294              2928.4693
 Red. masses --      7.3929                12.6299                 1.0795
 Frc consts  --     12.3562                24.1697                 5.4545
 IR Inten    --     10.3775               241.9168                32.9416

                     43                     44                     45
                      A                      A                      A
 Frequencies --   3019.8183              3032.5064              3035.8322
 Red. masses --      1.0820                 1.0355                 1.0366
 Frc consts  --      5.8135                 5.6105                 5.6287
 IR Inten    --      7.9347                28.2543                16.5117

                     46                     47                     48
                      A                      A                      A
 Frequencies --   3090.5266              3099.5768              3112.9747
 Red. masses --      1.0981                 1.1016                 1.1015
 Frc consts  --      6.1795                 6.2356                 6.2891
 IR Inten    --      9.2613                27.1836                16.5287

                     49                     50                     51
                      A                      A                      A
 Frequencies --   3122.9072              3169.5881              3725.9343
 Red. masses --      1.1021                 1.0931                 1.0653
 Frc consts  --      6.3324                 6.4704                 8.7137
 IR Inten    --     12.3316                12.8798                34.8445

 - Thermochemistry -
 -------------------
 Temperature   298.150 Kelvin.  Pressure   1.00000 Atm.
 Atom     1 has atomic number  6 and mass  12.00000

 Molecular mass:   126.06808 amu.
 Principal axes and moments of inertia in atomic units:
                           1         2         3
     Eigenvalues --   809.756741173.303481875.11748
           X            0.99996  -0.00375  -0.00811
           Y            0.00375   0.99999  -0.00078
           Z            0.00811   0.00075   0.99997
 This molecule is an asymmetric top.
 Rotational symmetry number  1.
 Warning -- assumption of classical behavior for rotation
           may cause significant error
 Rotational temperatures (Kelvin)      0.10696     0.07382     0.04619
 Rotational constants (GHZ):           2.22874     1.53817     0.96247
 Zero-point vibrational energy     414655.4 (Joules/Mol)
                                   99.10501 (Kcal/Mol)
 Warning -- explicit consideration of  13 degrees of freedom as
           vibrations may cause significant error
 Vibrational temperatures:    102.99   160.52   218.66   311.17   335.47
          (Kelvin)            349.89   415.91   472.61   513.35   591.02
                              726.00   755.65   828.61   931.37  1033.84
                             1207.93  1267.02  1303.77  1356.93  1420.86
                             1515.73  1533.36  1537.32  1572.36  1623.00
                             1659.53  1757.07  1804.49  1837.16  1921.28
                             1923.74  1976.13  2024.54  2034.31  2042.12
                             2121.74  2139.26  2154.20  2157.32  2423.28
                             2593.00  4213.41  4344.84  4363.09  4367.88
                             4446.57  4459.59  4478.87  4493.16  4560.32
                             5360.78

 Zero-point correction=                           0.157934 (Hartree/Particle)
 Thermal correction to Energy=                    0.167298
 Thermal correction to Enthalpy=                  0.168242
 Thermal correction to Gibbs Free Energy=         0.123795
 Sum of electronic and zero-point Energies=           -423.072664
 Sum of electronic and thermal Energies=              -423.063300
 Sum of electronic and thermal Enthalpies=            -423.062356
 Sum of electronic and thermal Free Energies=         -423.106803

                     E (Thermal)             CV                S
                      KCal/Mol        Cal/Mol-Kelvin    Cal/Mol-Kelvin
 Total                  104.981             34.459             93.547
 Electronic               0.000              0.000              0.000
 Translational            0.889              2.981             40.409
 Rotational               0.889              2.981             28.967
 Vibrational            103.204             28.498             24.171
 Vibration     1          0.598              1.968              4.109
 Vibration     2          0.607              1.940              3.241
 Vibration     3          0.619              1.900              2.647
 Vibration     4          0.645              1.816              1.990
 Vibration     5          0.654              1.790              1.854
 Vibration     6          0.659              1.774              1.779
 Vibration     7          0.686              1.694              1.479
 Vibration     8          0.712              1.619              1.268
 Vibration     9          0.732              1.561              1.136
 Vibration    10          0.775              1.447              0.924
 Vibration    11          0.860              1.240              0.647
 Vibration    12          0.880              1.194              0.598
 Vibration    13          0.932              1.083              0.493

 Optimization completed.
    -- Stationary point found.
 Normal termination of Gaussian 09 at Tue Jan 28 00:40:10 2020.
