 Gaussian 09, Revision D.01,
 Gaussian 09:  ES64L-G09RevD.01 24-Apr-2013

 -----------------------------
 # b3lyp 6-31G(2df,p) opt Freq
 -----------------------------

 -----
 titel
 -----
 Symbolic Z-matrix:
 Charge =  0 Multiplicity = 1

 SCF Done:  E(RB3LYP) =  -423.110989059     A.U. after   13 cycles
 Optimization completed.
    -- Stationary point found.
 Normal termination of Gaussian 09 at Tue Jan 28 09:18:15 2020.

 ----------------------------------------------------------------------
 #N Geom=AllCheck Guess=TCheck SCRF=Check GenChk RB3LYP/6-31G(2df,p) Fr
 eq
 ----------------------------------------------------------------------

 Structure from the checkpoint file:  "/scratch/puck/g09_023bb156-14c4-4e25-956b-aacb9bc2386b/Gau-109336.chk"
 -----
 titel
 -----
 Charge =  0 Multiplicity = 1

                         Standard orientation:
 ---------------------------------------------------------------------
 Center     Atomic      Atomic             Coordinates (Angstroms)
 Number     Number       Type             X           Y           Z
 ---------------------------------------------------------------------
      1          6           0        2.726722   -0.134085   -0.004742
      2          8           0        1.535184   -0.765197   -0.455604
      3          6           0        0.396063   -0.087207   -0.150202
      4          6           0       -0.310894    0.270810    1.149364
      5          6           0       -0.488957    1.724851    0.726930
      6          6           0       -0.324000    1.221135   -0.734222
      7          6           0       -1.594816    0.347513   -0.975392
      8          6           0       -0.997783   -0.600327    0.058929
      9          8           0       -1.412392   -1.865661    0.415607
     10          1           0        2.712138    0.003189    1.084110
     11          1           0        3.556427   -0.788950   -0.279072
     12          1           0        2.867163    0.844114   -0.484265
     13          1           0       -0.170864   -0.157829    2.133396
     14          1           0       -1.433396    2.226032    0.967496
     15          1           0        0.349348    2.349266    1.049498
     16          1           0        0.051816    1.869238   -1.522575
     17          1           0       -2.566484    0.812507   -0.773994
     18          1           0       -1.595337   -0.098816   -1.975157
     19          1           0       -1.191156   -2.468030   -0.303447
 ---------------------------------------------------------------------

 SCF Done:  E(RB3LYP) =  -423.110989059     A.U. after    1 cycles

 The electronic state is 1-A.
 Alpha  occ. eigenvalues --  -19.15799 -19.14630 -10.23215 -10.22927 -10.22913
 Alpha  occ. eigenvalues --  -10.19227 -10.18277 -10.18162 -10.17946  -1.05239
 Alpha  occ. eigenvalues --   -1.03006  -0.91296  -0.71881  -0.71486  -0.68974
 Alpha  occ. eigenvalues --   -0.61149  -0.55392  -0.53596  -0.52964  -0.47660
 Alpha  occ. eigenvalues --   -0.46167  -0.45677  -0.43327  -0.42937  -0.40139
 Alpha  occ. eigenvalues --   -0.38056  -0.36524  -0.35593  -0.33591  -0.31819
 Alpha  occ. eigenvalues --   -0.30416  -0.27948  -0.23613  -0.22316
 Alpha virt. eigenvalues --    0.07407   0.09160   0.11519   0.12075   0.12748
 Alpha virt. eigenvalues --    0.14037   0.14703   0.15380   0.16111   0.16507
 Alpha virt. eigenvalues --    0.17322   0.18161   0.18904   0.20904   0.22883

 Mulliken charges:
               1
     1  C   -0.255180
     2  O   -0.283087
     3  C    0.346094
     4  C   -0.190285
     5  C   -0.222182
     6  C   -0.145640
     7  C   -0.290436
     8  C    0.318404
     9  O   -0.467836
    10  H    0.118843
    11  H    0.128910
    12  H    0.115379
    13  H    0.092501
    14  H    0.090985
    15  H    0.095007
    16  H    0.074117
    17  H    0.091887
    18  H    0.093185
    19  H    0.289334
 Sum of Mulliken charges =   0.00000

 Dipole moment (field-independent basis, Debye):
    X=              1.2127    Y=              0.7408    Z=             -0.7346  Tot=              1.5997
 Quadrupole moment (field-independent basis, Debye-Ang):
   XX=            -51.4594   YY=            -51.8958   ZZ=            -52.8975
   XY=              0.2552   XZ=              2.8733   YZ=              2.2081

  Exact polarizability:  82.381  -0.572  75.044   2.179   1.498  69.137
 Approx polarizability: 112.057   0.502 110.055  -0.578   2.602 106.360

                      1                      2                      3
                      A                      A                      A
 Frequencies --     90.9554               127.6615               166.0289
 Red. masses --      2.8534                 2.7923                 1.1217
 Frc consts  --      0.0139                 0.0268                 0.0182
 IR Inten    --      2.1969                 6.4538                 0.3335

                      4                      5                      6
                      A                      A                      A
 Frequencies --    222.0060               301.1240               318.9831
 Red. masses --      2.2099                 1.7768                 2.5543
 Frc consts  --      0.0642                 0.0949                 0.1531
 IR Inten    --     14.0813                38.8967                49.9982

                      7                      8                      9
                      A                      A                      A
 Frequencies --    370.6228               392.0239               438.6921
 Red. masses --      3.0870                 2.7081                 2.0168
 Frc consts  --      0.2498                 0.2452                 0.2287
 IR Inten    --      0.5017                 2.4527                 2.8505

                     10                     11                     12
                      A                      A                      A
 Frequencies --    576.1008               606.9392               653.4755
 Red. masses --      3.0709                 4.5294                 4.5740
 Frc consts  --      0.6005                 0.9831                 1.1508
 IR Inten    --      3.5757                 2.7841                15.2045

                     13                     14                     15
                      A                      A                      A
 Frequencies --    684.4551               780.2635               863.1321
 Red. masses --      4.0186                 3.0363                 2.7803
 Frc consts  --      1.1092                 1.0891                 1.2204
 IR Inten    --      4.4528                 1.5732                12.6299

                     16                     17                     18
                      A                      A                      A
 Frequencies --    905.7437               925.5003               954.7959
 Red. masses --      1.7283                 2.2169                 1.9003
 Frc consts  --      0.8354                 1.1188                 1.0207
 IR Inten    --      0.8830                 2.7233                12.7580

                     19                     20                     21
                      A                      A                      A
 Frequencies --    984.3044               991.5125              1006.5190
 Red. masses --      1.7124                 1.6994                 3.6413
 Frc consts  --      0.9775                 0.9843                 2.1735
 IR Inten    --      7.4096                 1.8406                 8.0778

                     22                     23                     24
                      A                      A                      A
 Frequencies --   1044.5758              1058.2248              1103.4156
 Red. masses --      5.4100                 1.6839                 1.3046
 Frc consts  --      3.4780                 1.1110                 0.9359
 IR Inten    --     41.8730                13.0213                 6.5080

                     25                     26                     27
                      A                      A                      A
 Frequencies --   1114.4472              1148.3441              1161.8069
 Red. masses --      1.4015                 2.7873                 1.7487
 Frc consts  --      1.0255                 2.1656                 1.3907
 IR Inten    --      0.4053                47.5283                20.8921

                     28                     29                     30
                      A                      A                      A
 Frequencies --   1178.0136              1200.7537              1217.2157
 Red. masses --      1.2855                 1.6470                 1.5723
 Frc consts  --      1.0511                 1.3991                 1.3725
 IR Inten    --      2.2956                11.4707                 5.2303

                     31                     32                     33
                      A                      A                      A
 Frequencies --   1233.6077              1258.2685              1276.2186
 Red. masses --      1.7907                 1.8207                 1.5651
 Frc consts  --      1.6056                 1.6984                 1.5019
 IR Inten    --     19.6324                50.0955                21.6467

                     34                     35                     36
                      A                      A                      A
 Frequencies --   1324.1490              1373.4986              1449.5568
 Red. masses --      1.7808                 2.5224                 1.6329
 Frc consts  --      1.8397                 2.8037                 2.0215
 IR Inten    --     99.4785                73.8992                40.6564

                     37                     38                     39
                      A                      A                      A
 Frequencies --   1485.3794              1489.2322              1498.5109
 Red. masses --      1.0624                 1.1699                 1.2187
 Frc consts  --      1.3810                 1.5287                 1.6124
 IR Inten    --      7.4011                 4.8372                 8.1007

                     40                     41                     42
                      A                      A                      A
 Frequencies --   1503.5639              1527.6545              3000.8501
 Red. masses --      1.0497                 2.0612                 1.0340
 Frc consts  --      1.3982                 2.8341                 5.4862
 IR Inten    --     11.3889                39.4019                47.8711

                     43                     44                     45
                      A                      A                      A
 Frequencies --   3030.0591              3036.5218              3060.3950
 Red. masses --      1.0579                 1.0576                 1.1040
 Frc consts  --      5.7224                 5.7455                 6.0923
 IR Inten    --     47.2795                60.7032                36.4914

                     46                     47                     48
                      A                      A                      A
 Frequencies --   3088.1775              3091.8261              3126.3204
 Red. masses --      1.1060                 1.1075                 1.0999
 Frc consts  --      6.2145                 6.2378                 6.3338
 IR Inten    --     22.8777                41.2341                27.9569

                     49                     50                     51
                      A                      A                      A
 Frequencies --   3142.0314              3203.4432              3792.8138
 Red. masses --      1.0915                 1.0929                 1.0660
 Frc consts  --      6.3489                 6.6078                 9.0355
 IR Inten    --     28.7283                 7.6531                24.5191

 - Thermochemistry -
 -------------------
 Temperature   298.150 Kelvin.  Pressure   1.00000 Atm.
 Atom     1 has atomic number  6 and mass  12.00000

 Molecular mass:   126.06808 amu.
 Principal axes and moments of inertia in atomic units:
                           1         2         3
     Eigenvalues --   746.851951111.642771419.66269
           X            0.99959  -0.01545   0.02402
           Y            0.01503   0.99973   0.01753
           Z           -0.02428  -0.01716   0.99956
 This molecule is an asymmetric top.
 Rotational symmetry number  1.
 Warning -- assumption of classical behavior for rotation
           may cause significant error
 Rotational temperatures (Kelvin)      0.11597     0.07792     0.06101
 Rotational constants (GHZ):           2.41646     1.62349     1.27125
 Zero-point vibrational energy     416179.1 (Joules/Mol)
                                   99.46920 (Kcal/Mol)
 Warning -- explicit consideration of  11 degrees of freedom as
           vibrations may cause significant error
 Vibrational temperatures:    130.86   183.68   238.88   319.42   433.25
          (Kelvin)            458.94   533.24   564.03   631.18   828.88
                              873.25   940.20   984.78  1122.62  1241.85
                             1303.16  1331.59  1373.74  1416.19  1426.56
                             1448.15  1502.91  1522.55  1587.57  1603.44
                             1652.21  1671.58  1694.90  1727.61  1751.30
                             1774.88  1810.37  1836.19  1905.15  1976.16
                             2085.59  2137.13  2142.67  2156.02  2163.29
                             2197.95  4317.55  4359.57  4368.87  4403.22
                             4443.19  4448.44  4498.07  4520.68  4609.03
                             5457.01

 Zero-point correction=                           0.158514 (Hartree/Particle)
 Thermal correction to Energy=                    0.166946
 Thermal correction to Enthalpy=                  0.167890
 Thermal correction to Gibbs Free Energy=         0.125595
 Sum of electronic and zero-point Energies=           -422.952475
 Sum of electronic and thermal Energies=              -422.944043
 Sum of electronic and thermal Enthalpies=            -422.943099
 Sum of electronic and thermal Free Energies=         -422.985395

                     E (Thermal)             CV                S
                      KCal/Mol        Cal/Mol-Kelvin    Cal/Mol-Kelvin
 Total                  104.760             32.419             89.018
 Electronic               0.000              0.000              0.000
 Translational            0.889              2.981             40.409
 Rotational               0.889              2.981             28.557
 Vibrational            102.983             26.457             20.053
 Vibration     1          0.602              1.956              3.639
 Vibration     2          0.611              1.926              2.981
 Vibration     3          0.624              1.884              2.480
 Vibration     4          0.648              1.808              1.943
 Vibration     5          0.693              1.672              1.411
 Vibration     6          0.705              1.637              1.315
 Vibration     7          0.743              1.533              1.077
 Vibration     8          0.759              1.487              0.992
 Vibration     9          0.799              1.386              0.831
 Vibration    10          0.933              1.083              0.493
 Vibration    11          0.966              1.017              0.438

 Optimization completed.
    -- Stationary point found.
 Normal termination of Gaussian 09 at Tue Jan 28 10:05:15 2020.
