 Gaussian 09, Revision D.01,
 Gaussian 09:  ES64L-G09RevD.01 24-Apr-2013

 -----------------------------
 # b3lyp 6-31G(2df,p) opt Freq
 -----------------------------

 -----
 titel
 -----
 Symbolic Z-matrix:
 Charge =  0 Multiplicity = 1

 SCF Done:  E(RB3LYP) =  -423.128342090     A.U. after   14 cycles
 Optimization completed.
    -- Stationary point found.
 Normal termination of Gaussian 09 at Tue Jan 28 14:10:41 2020.

 ----------------------------------------------------------------------
 #N Geom=AllCheck Guess=TCheck SCRF=Check GenChk RB3LYP/6-31G(2df,p) Fr
 eq
 ----------------------------------------------------------------------

 Structure from the checkpoint file:  "/scratch/puck/g09_70c97e86-ff5e-4659-9ea9-82de0a5a3c39/Gau-147430.chk"
 -----
 titel
 -----
 Charge =  0 Multiplicity = 1

                         Standard orientation:
 ---------------------------------------------------------------------
 Center     Atomic      Atomic             Coordinates (Angstroms)
 Number     Number       Type             X           Y           Z
 ---------------------------------------------------------------------
      1          6           0       -3.573770    0.438213   -0.029366
      2          6           0       -2.291778   -0.318288   -0.385319
      3          6           0       -1.141470   -0.038712    0.592474
      4          6           0        0.124709   -0.807522    0.250358
      5          6           0        1.499391   -0.451609    0.881090
      6          8           0        2.156008   -1.133114   -0.265751
      7          6           0        1.054859   -0.381671   -0.923385
      8          6           0        1.549414    0.800994   -0.041329
      9          8           0        1.897000    1.933134   -0.083457
     10          1           0       -4.375085    0.219076   -0.741422
     11          1           0       -3.930778    0.163994    0.969459
     12          1           0       -3.408838    1.521157   -0.035685
     13          1           0       -2.493126   -1.397196   -0.406177
     14          1           0       -1.976909   -0.048622   -1.401690
     15          1           0       -0.933890    1.039474    0.614268
     16          1           0       -1.453730   -0.308950    1.609911
     17          1           0       -0.009802   -1.893331    0.239353
     18          1           0        1.890767   -0.646975    1.877487
     19          1           0        0.939188   -0.497224   -1.998982
 ---------------------------------------------------------------------

 SCF Done:  E(RB3LYP) =  -423.128342090     A.U. after    1 cycles

 The electronic state is 1-A.
 Alpha  occ. eigenvalues --  -19.16390 -19.15292 -10.28643 -10.25880 -10.25867
 Alpha  occ. eigenvalues --  -10.21565 -10.19632 -10.19317 -10.18154  -1.08619
 Alpha  occ. eigenvalues --   -1.05476  -0.82387  -0.77601  -0.70283  -0.67630
 Alpha  occ. eigenvalues --   -0.63493  -0.59654  -0.53980  -0.49607  -0.47886
 Alpha  occ. eigenvalues --   -0.45760  -0.44578  -0.44225  -0.42755  -0.40862
 Alpha  occ. eigenvalues --   -0.39310  -0.38054  -0.36860  -0.35610  -0.34095
 Alpha  occ. eigenvalues --   -0.33701  -0.32590  -0.26666  -0.25816
 Alpha virt. eigenvalues --   -0.01180   0.07800   0.09006   0.11078   0.11402
 Alpha virt. eigenvalues --    0.11909   0.12285   0.12682   0.14149   0.16428
 Alpha virt. eigenvalues --    0.16839   0.16856   0.17336   0.18296   0.19241

 Mulliken charges:
               1
     1  C   -0.382189
     2  C   -0.160763
     3  C   -0.236818
     4  C    0.021997
     5  C   -0.098921
     6  O   -0.303119
     7  C   -0.079944
     8  C    0.454694
     9  O   -0.310657
    10  H    0.116354
    11  H    0.116836
    12  H    0.120479
    13  H    0.100734
    14  H    0.102002
    15  H    0.113218
    16  H    0.106133
    17  H    0.095701
    18  H    0.111689
    19  H    0.112576
 Sum of Mulliken charges =   0.00000

 Dipole moment (field-independent basis, Debye):
    X=             -2.6417    Y=             -1.5276    Z=              0.4850  Tot=              3.0899
 Quadrupole moment (field-independent basis, Debye-Ang):
   XX=            -58.7221   YY=            -59.6621   ZZ=            -49.5870
   XY=             -1.7728   XZ=              1.6839   YZ=             -0.6011

  Exact polarizability:  84.505   1.742  73.781   1.510  -0.488  70.189
 Approx polarizability: 107.334   1.951 124.022   1.005  -0.148 109.519

                      1                      2                      3
                      A                      A                      A
 Frequencies --     63.7868                83.9058               119.2052
 Red. masses --      3.4911                 1.7879                 4.0517
 Frc consts  --      0.0084                 0.0074                 0.0339
 IR Inten    --      0.9178                 0.1590                 1.0356

                      4                      5                      6
                      A                      A                      A
 Frequencies --    159.1624               244.3413               295.8798
 Red. masses --      4.3240                 1.1335                 3.1183
 Frc consts  --      0.0645                 0.0399                 0.1608
 IR Inten    --      2.9880                 0.1773                 2.1429

                      7                      8                      9
                      A                      A                      A
 Frequencies --    334.2766               371.8113               431.8929
 Red. masses --      3.5272                 3.6324                 4.0048
 Frc consts  --      0.2322                 0.2959                 0.4401
 IR Inten    --      2.5504                 0.3420                 1.3288

                     10                     11                     12
                      A                      A                      A
 Frequencies --    585.7247               654.7992               734.7047
 Red. masses --      4.8054                 3.5000                 1.2675
 Frc consts  --      0.9713                 0.8842                 0.4031
 IR Inten    --      5.5272                 0.1789                 2.1891

                     13                     14                     15
                      A                      A                      A
 Frequencies --    775.4535               801.1466               808.1831
 Red. masses --      3.5159                 3.1691                 2.7507
 Frc consts  --      1.2456                 1.1984                 1.0586
 IR Inten    --     11.5065                 6.6726                 7.6537

                     16                     17                     18
                      A                      A                      A
 Frequencies --    871.2410               886.6477               910.8188
 Red. masses --      3.4899                 4.7139                 1.9035
 Frc consts  --      1.5608                 2.1834                 0.9304
 IR Inten    --     10.6352                34.5477                10.8461

                     19                     20                     21
                      A                      A                      A
 Frequencies --    924.9596               943.7292              1016.1807
 Red. masses --      1.6188                 2.0558                 1.4225
 Frc consts  --      0.8160                 1.0787                 0.8655
 IR Inten    --      4.6773                 3.1655                 2.0215

                     22                     23                     24
                      A                      A                      A
 Frequencies --   1044.8947              1071.3083              1120.5726
 Red. masses --      2.6883                 1.6158                 2.9904
 Frc consts  --      1.7293                 1.0926                 2.2124
 IR Inten    --      1.3176                 3.3459                 1.4891

                     25                     26                     27
                      A                      A                      A
 Frequencies --   1124.4970              1138.5046              1169.4951
 Red. masses --      2.1846                 1.3545                 2.5103
 Frc consts  --      1.6275                 1.0344                 2.0229
 IR Inten    --      0.1607                 2.2866                 4.1011

                     28                     29                     30
                      A                      A                      A
 Frequencies --   1212.9275              1217.3768              1249.0395
 Red. masses --      1.5832                 1.5742                 1.4732
 Frc consts  --      1.3723                 1.3745                 1.3541
 IR Inten    --      0.6092                 0.7405                 4.0196

                     31                     32                     33
                      A                      A                      A
 Frequencies --   1263.6811              1306.8680              1330.7360
 Red. masses --      1.3768                 1.3498                 1.1131
 Frc consts  --      1.2954                 1.3582                 1.1614
 IR Inten    --      1.7703                 5.4619                 0.3737

                     34                     35                     36
                      A                      A                      A
 Frequencies --   1375.6841              1404.2128              1416.3415
 Red. masses --      1.4567                 1.6519                 1.2418
 Frc consts  --      1.6242                 1.9191                 1.4677
 IR Inten    --      0.8162                 5.5789                 0.5847

                     37                     38                     39
                      A                      A                      A
 Frequencies --   1483.6280              1493.8753              1499.7994
 Red. masses --      1.0736                 1.0634                 1.0399
 Frc consts  --      1.3923                 1.3982                 1.3782
 IR Inten    --      0.9736                 1.2744                 5.8099

                     40                     41                     42
                      A                      A                      A
 Frequencies --   1510.2790              1936.2359              3012.8047
 Red. masses --      1.0832                12.2877                 1.0583
 Frc consts  --      1.4557                27.1416                 5.6599
 IR Inten    --      3.8196               347.6490                 0.6584

                     43                     44                     45
                      A                      A                      A
 Frequencies --   3022.0843              3032.5818              3038.5058
 Red. masses --      1.0593                 1.0360                 1.1000
 Frc consts  --      5.7002                 5.6136                 5.9834
 IR Inten    --     34.2694                33.4522                 0.3443

                     46                     47                     48
                      A                      A                      A
 Frequencies --   3060.3685              3082.1965              3099.5907
 Red. masses --      1.1021                 1.0867                 1.1021
 Frc consts  --      6.0816                 6.0824                 6.2387
 IR Inten    --     19.5853                17.9266                48.0674

                     49                     50                     51
                      A                      A                      A
 Frequencies --   3106.2265              3148.9686              3153.8019
 Red. masses --      1.1011                 1.0910                 1.0972
 Frc consts  --      6.2594                 6.3740                 6.4302
 IR Inten    --     31.9877                38.9545                 1.9316

 - Thermochemistry -
 -------------------
 Temperature   298.150 Kelvin.  Pressure   1.00000 Atm.
 Atom     1 has atomic number  6 and mass  12.00000

 Molecular mass:   126.06808 amu.
 Principal axes and moments of inertia in atomic units:
                           1         2         3
     Eigenvalues --   554.050101919.141462174.42606
           X            0.99990  -0.01341   0.00437
           Y            0.01341   0.99991   0.00018
           Z           -0.00438  -0.00012   0.99999
 This molecule is an asymmetric top.
 Rotational symmetry number  1.
 Warning -- assumption of classical behavior for rotation
           may cause significant error
 Rotational temperatures (Kelvin)      0.15633     0.04513     0.03983
 Rotational constants (GHZ):           3.25736     0.94039     0.82999
 Zero-point vibrational energy     413578.6 (Joules/Mol)
                                   98.84765 (Kcal/Mol)
 Warning -- explicit consideration of  10 degrees of freedom as
           vibrations may cause significant error
 Vibrational temperatures:     91.77   120.72   171.51   229.00   351.55
          (Kelvin)            425.70   480.95   534.95   621.40   842.73
                              942.11  1057.07  1115.70  1152.67  1162.79
                             1253.52  1275.69  1310.46  1330.81  1357.81
                             1462.06  1503.37  1541.37  1612.25  1617.90
                             1638.05  1682.64  1745.13  1751.53  1797.09
                             1818.15  1880.29  1914.63  1979.30  2020.35
                             2037.80  2134.61  2149.35  2157.87  2172.95
                             2785.81  4334.75  4348.10  4363.20  4371.73
                             4403.18  4434.59  4459.61  4469.16  4530.66
                             4537.61

 Zero-point correction=                           0.157524 (Hartree/Particle)
 Thermal correction to Energy=                    0.166376
 Thermal correction to Enthalpy=                  0.167320
 Thermal correction to Gibbs Free Energy=         0.123138
 Sum of electronic and zero-point Energies=           -422.970818
 Sum of electronic and thermal Energies=              -422.961966
 Sum of electronic and thermal Enthalpies=            -422.961022
 Sum of electronic and thermal Free Energies=         -423.005204

                     E (Thermal)             CV                S
                      KCal/Mol        Cal/Mol-Kelvin    Cal/Mol-Kelvin
 Total                  104.402             32.530             92.988
 Electronic               0.000              0.000              0.000
 Translational            0.889              2.981             40.409
 Rotational               0.889              2.981             29.226
 Vibrational            102.625             26.569             23.353
 Vibration     1          0.597              1.972              4.336
 Vibration     2          0.601              1.960              3.797
 Vibration     3          0.609              1.933              3.113
 Vibration     4          0.621              1.892              2.560
 Vibration     5          0.660              1.772              1.771
 Vibration     6          0.690              1.681              1.440
 Vibration     7          0.716              1.607              1.239
 Vibration     8          0.744              1.530              1.072
 Vibration     9          0.793              1.401              0.852
 Vibration    10          0.943              1.062              0.475

 Optimization completed.
    -- Stationary point found.
 Normal termination of Gaussian 09 at Tue Jan 28 14:47:55 2020.
