 Gaussian 09, Revision D.01,
 Gaussian 09:  ES64L-G09RevD.01 24-Apr-2013

 -----------------------------
 # b3lyp 6-31G(2df,p) opt Freq
 -----------------------------

 -----
 titel
 -----
 Symbolic Z-matrix:
 Charge =  0 Multiplicity = 1

 SCF Done:  E(RB3LYP) =  -423.184933919     A.U. after   14 cycles
 Optimization completed.
    -- Stationary point found.
 Normal termination of Gaussian 09 at Mon Jan 27 18:33:15 2020.

 ----------------------------------------------------------------------
 #N Geom=AllCheck Guess=TCheck SCRF=Check GenChk RB3LYP/6-31G(2df,p) Fr
 eq
 ----------------------------------------------------------------------

 Structure from the checkpoint file:  "/scratch/puck/g09_706d1a6c-7f20-461e-8f59-951f76511535/Gau-75344.chk"
 -----
 titel
 -----
 Charge =  0 Multiplicity = 1

                         Standard orientation:
 ---------------------------------------------------------------------
 Center     Atomic      Atomic             Coordinates (Angstroms)
 Number     Number       Type             X           Y           Z
 ---------------------------------------------------------------------
      1          8           0       -1.002713    1.301706   -1.062901
      2          6           0       -0.158708    0.766237   -0.061891
      3          6           0       -0.797412    0.716657    1.358609
      4          6           0       -1.126055   -0.791313    1.167197
      5          6           0       -0.223342   -0.802587   -0.103914
      6          8           0       -0.745433   -1.404507   -1.259795
      7          6           0        1.213203   -1.189112    0.120788
      8          6           0        2.033444   -0.137653    0.101500
      9          6           0        1.322319    1.174316   -0.152454
     10          1           0       -1.270352    2.189696   -0.806581
     11          1           0       -0.073808    0.911710    2.153513
     12          1           0       -1.656740    1.378830    1.496327
     13          1           0       -0.850146   -1.467893    1.979462
     14          1           0       -2.171092   -0.966010    0.898577
     15          1           0       -1.343178   -0.752843   -1.650421
     16          1           0        1.512361   -2.221596    0.263605
     17          1           0        3.108626   -0.191108    0.238443
     18          1           0        1.591366    1.948846    0.577295
     19          1           0        1.557431    1.573514   -1.147657
 ---------------------------------------------------------------------

 SCF Done:  E(RB3LYP) =  -423.184933919     A.U. after    1 cycles

 The electronic state is 1-A.
 Alpha  occ. eigenvalues --  -19.15065 -19.12321 -10.23195 -10.22576 -10.18436
 Alpha  occ. eigenvalues --  -10.18256 -10.18244 -10.17537 -10.17397  -1.03768
 Alpha  occ. eigenvalues --   -1.00456  -0.85112  -0.77664  -0.70713  -0.64601
 Alpha  occ. eigenvalues --   -0.62346  -0.57403  -0.52848  -0.51802  -0.48165
 Alpha  occ. eigenvalues --   -0.46237  -0.44918  -0.41498  -0.40449  -0.38443
 Alpha  occ. eigenvalues --   -0.37980  -0.37168  -0.35925  -0.33688  -0.33572
 Alpha  occ. eigenvalues --   -0.28133  -0.27219  -0.25088  -0.24240
 Alpha virt. eigenvalues --    0.01867   0.06585   0.10160   0.11319   0.12116
 Alpha virt. eigenvalues --    0.13099   0.14668   0.15326   0.16271   0.17341
 Alpha virt. eigenvalues --    0.18439   0.19675   0.21600   0.21669   0.22520

 Mulliken charges:
               1
     1  O   -0.505008
     2  C    0.342949
     3  C   -0.282315
     4  C   -0.282854
     5  C    0.369500
     6  O   -0.491984
     7  C   -0.117429
     8  C   -0.060218
     9  C   -0.345676
    10  H    0.283783
    11  H    0.104189
    12  H    0.091908
    13  H    0.097888
    14  H    0.101688
    15  H    0.287874
    16  H    0.098570
    17  H    0.095472
    18  H    0.097331
    19  H    0.114333
 Sum of Mulliken charges =   0.00000

 Dipole moment (field-independent basis, Debye):
    X=             -0.0453    Y=              2.3488    Z=              1.3913  Tot=              2.7303
 Quadrupole moment (field-independent basis, Debye-Ang):
   XX=            -49.8539   YY=            -50.8900   ZZ=            -55.5784
   XY=             -2.4685   XZ=              0.5636   YZ=             -2.2321

  Exact polarizability:  81.002   2.875  79.717   0.040  -1.871  64.586
 Approx polarizability: 114.781   9.324 123.092   3.519  -1.301  96.953

                      1                      2                      3
                      A                      A                      A
 Frequencies --    102.1593               182.3575               231.9372
 Red. masses --      2.6598                 1.0627                 2.8434
 Frc consts  --      0.0164                 0.0208                 0.0901
 IR Inten    --      0.5307                80.8040                 0.7498

                      4                      5                      6
                      A                      A                      A
 Frequencies --    248.3907               288.6404               337.4024
 Red. masses --      3.6623                 2.3830                 1.6500
 Frc consts  --      0.1331                 0.1170                 0.1107
 IR Inten    --     15.9961                 3.1569                44.5388

                      7                      8                      9
                      A                      A                      A
 Frequencies --    378.9859               390.0443               470.3590
 Red. masses --      1.9647                 3.0565                 2.1846
 Frc consts  --      0.1663                 0.2740                 0.2848
 IR Inten    --      4.7389                31.8982                 6.2378

                     10                     11                     12
                      A                      A                      A
 Frequencies --    531.4652               555.8151               653.5032
 Red. masses --      3.0454                 4.5194                 2.8950
 Frc consts  --      0.5068                 0.8226                 0.7284
 IR Inten    --      9.0430                 4.5287                 3.3200

                     13                     14                     15
                      A                      A                      A
 Frequencies --    677.9417               750.1862               753.5127
 Red. masses --      4.8883                 1.4425                 1.6785
 Frc consts  --      1.3237                 0.4783                 0.5615
 IR Inten    --      7.7026                 3.9601                10.7710

                     16                     17                     18
                      A                      A                      A
 Frequencies --    783.0031               890.2170               903.5452
 Red. masses --      2.6930                 2.0160                 1.9116
 Frc consts  --      0.9728                 0.9413                 0.9195
 IR Inten    --      6.2654                 2.9840                 1.5359

                     19                     20                     21
                      A                      A                      A
 Frequencies --    944.2788               954.5071               978.8075
 Red. masses --      2.5892                 2.3724                 1.3441
 Frc consts  --      1.3602                 1.2735                 0.7587
 IR Inten    --      1.7903                 6.6926                 3.9036

                     22                     23                     24
                      A                      A                      A
 Frequencies --    994.7956              1013.4019              1047.5971
 Red. masses --      2.4127                 1.5398                 2.5032
 Frc consts  --      1.4067                 0.9317                 1.6186
 IR Inten    --     27.4697                20.1233                15.9069

                     25                     26                     27
                      A                      A                      A
 Frequencies --   1117.7813              1133.2957              1150.0425
 Red. masses --      1.9983                 1.4268                 1.6626
 Frc consts  --      1.4710                 1.0797                 1.2956
 IR Inten    --     17.9436                41.9456                10.5837

                     28                     29                     30
                      A                      A                      A
 Frequencies --   1177.7971              1203.0563              1204.7436
 Red. masses --      2.0450                 2.4321                 1.3222
 Frc consts  --      1.6714                 2.0740                 1.1307
 IR Inten    --     69.7692                53.1170                 3.0957

                     31                     32                     33
                      A                      A                      A
 Frequencies --   1236.3649              1257.4719              1279.1580
 Red. masses --      1.9933                 1.4298                 1.6494
 Frc consts  --      1.7953                 1.3321                 1.5901
 IR Inten    --     80.1790                10.8181                 1.7264

                     34                     35                     36
                      A                      A                      A
 Frequencies --   1287.5644              1348.1427              1371.3514
 Red. masses --      1.8560                 1.4822                 1.8173
 Frc consts  --      1.8129                 1.5872                 2.0136
 IR Inten    --     25.5177                25.2393                19.3726

                     37                     38                     39
                      A                      A                      A
 Frequencies --   1417.0197              1462.9238              1478.7038
 Red. masses --      1.8274                 1.0892                 1.1054
 Frc consts  --      2.1619                 1.3735                 1.4240
 IR Inten    --     22.9282                 2.5205                 3.2973

                     40                     41                     42
                      A                      A                      A
 Frequencies --   1483.9227              1677.7670              3016.7228
 Red. masses --      1.1209                 6.5352                 1.0585
 Frc consts  --      1.4543                10.8386                 5.6755
 IR Inten    --      4.4853                 2.3682                34.6806

                     43                     44                     45
                      A                      A                      A
 Frequencies --   3050.0981              3055.1293              3063.0149
 Red. masses --      1.1028                 1.0581                 1.0599
 Frc consts  --      6.0449                 5.8187                 5.8588
 IR Inten    --     16.7538                37.2667                28.3475

                     46                     47                     48
                      A                      A                      A
 Frequencies --   3105.4085              3123.5180              3178.2303
 Red. masses --      1.1081                 1.1076                 1.0851
 Frc consts  --      6.2959                 6.3669                 6.4579
 IR Inten    --      2.3274                37.2179                 8.7249

                     49                     50                     51
                      A                      A                      A
 Frequencies --   3204.6694              3758.8985              3821.1345
 Red. masses --      1.1026                 1.0652                 1.0664
 Frc consts  --      6.6716                 8.8674                 9.1739
 IR Inten    --     20.3730                42.3342                27.5631

 - Thermochemistry -
 -------------------
 Temperature   298.150 Kelvin.  Pressure   1.00000 Atm.
 Atom     1 has atomic number  8 and mass  15.99491

 Molecular mass:   126.06808 amu.
 Principal axes and moments of inertia in atomic units:
                           1         2         3
     Eigenvalues --   866.83683 946.887921104.48842
           X            0.99862   0.03242  -0.04125
           Y           -0.03385   0.99883  -0.03458
           Z            0.04008   0.03593   0.99855
 This molecule is an asymmetric top.
 Rotational symmetry number  1.
 Warning -- assumption of classical behavior for rotation
           may cause significant error
 Rotational temperatures (Kelvin)      0.09992     0.09147     0.07842
 Rotational constants (GHZ):           2.08198     1.90597     1.63401
 Zero-point vibrational energy     417058.8 (Joules/Mol)
                                   99.67944 (Kcal/Mol)
 Warning -- explicit consideration of  11 degrees of freedom as
           vibrations may cause significant error
 Vibrational temperatures:    146.98   262.37   333.71   357.38   415.29
          (Kelvin)            485.45   545.28   561.19   676.74   764.66
                              799.69   940.24   975.41  1079.35  1084.14
                             1126.57  1280.82  1300.00  1358.60  1373.32
                             1408.28  1431.29  1458.06  1507.26  1608.24
                             1630.56  1654.65  1694.59  1730.93  1733.36
                             1778.85  1809.22  1840.42  1852.52  1939.67
                             1973.07  2038.77  2104.82  2127.52  2135.03
                             2413.93  4340.39  4388.41  4395.64  4406.99
                             4467.98  4494.04  4572.76  4610.80  5408.21
                             5497.75

 Zero-point correction=                           0.158849 (Hartree/Particle)
 Thermal correction to Energy=                    0.167176
 Thermal correction to Enthalpy=                  0.168120
 Thermal correction to Gibbs Free Energy=         0.126571
 Sum of electronic and zero-point Energies=           -423.026085
 Sum of electronic and thermal Energies=              -423.017758
 Sum of electronic and thermal Enthalpies=            -423.016814
 Sum of electronic and thermal Free Energies=         -423.058363

                     E (Thermal)             CV                S
                      KCal/Mol        Cal/Mol-Kelvin    Cal/Mol-Kelvin
 Total                  104.904             33.226             87.447
 Electronic               0.000              0.000              0.000
 Translational            0.889              2.981             40.409
 Rotational               0.889              2.981             28.296
 Vibrational            103.127             27.264             18.743
 Vibration     1          0.604              1.947              3.413
 Vibration     2          0.630              1.864              2.304
 Vibration     3          0.653              1.792              1.864
 Vibration     4          0.662              1.765              1.742
 Vibration     5          0.685              1.695              1.482
 Vibration     6          0.718              1.601              1.224
 Vibration     7          0.749              1.515              1.043
 Vibration     8          0.758              1.491              1.000
 Vibration     9          0.827              1.316              0.737
 Vibration    10          0.886              1.180              0.584
 Vibration    11          0.911              1.127              0.532

 Optimization completed.
    -- Stationary point found.
 Normal termination of Gaussian 09 at Mon Jan 27 19:30:19 2020.
