 Gaussian 09, Revision D.01,
 Gaussian 09:  ES64L-G09RevD.01 24-Apr-2013

 -----------------------------
 # b3lyp 6-31G(2df,p) opt Freq
 -----------------------------

 -----
 titel
 -----
 Symbolic Z-matrix:
 Charge =  0 Multiplicity = 1

 SCF Done:  E(RB3LYP) =  -423.167526325     A.U. after   14 cycles
 Optimization completed.
    -- Stationary point found.
 Normal termination of Gaussian 09 at Mon Jan 27 22:03:12 2020.

 ----------------------------------------------------------------------
 #N Geom=AllCheck Guess=TCheck SCRF=Check GenChk RB3LYP/6-31G(2df,p) Fr
 eq
 ----------------------------------------------------------------------

 Structure from the checkpoint file:  "/scratch/puck/g09_93426279-df92-4314-8511-82b1e5bb6657/Gau-53250.chk"
 -----
 titel
 -----
 Charge =  0 Multiplicity = 1

                         Standard orientation:
 ---------------------------------------------------------------------
 Center     Atomic      Atomic             Coordinates (Angstroms)
 Number     Number       Type             X           Y           Z
 ---------------------------------------------------------------------
      1          6           0        1.416194    2.113852    0.009541
      2          6           0        1.102522    0.652606    0.010240
      3          6           0       -0.077621    0.024296   -0.007813
      4          6           0        0.145756   -1.468328   -0.019411
      5          8           0        1.557856   -1.642775    0.022783
      6          6           0        2.202236   -0.377577    0.032883
      7          6           0       -1.423794    0.619138   -0.045453
      8          6           0       -2.583613    0.031114    0.654826
      9          8           0       -2.438449   -0.120095   -0.752883
     10          1           0        2.086401    2.368459   -0.820946
     11          1           0        0.521480    2.734498   -0.077025
     12          1           0        1.936505    2.405424    0.930831
     13          1           0       -0.312297   -1.973613    0.845754
     14          1           0       -0.270688   -1.935147   -0.923487
     15          1           0        2.839275   -0.285063    0.928674
     16          1           0        2.868653   -0.282149   -0.841330
     17          1           0       -1.461449    1.692048   -0.230221
     18          1           0       -2.460480   -0.877414    1.241419
     19          1           0       -3.392724    0.685308    0.978245
 ---------------------------------------------------------------------

 SCF Done:  E(RB3LYP) =  -423.167526325     A.U. after    1 cycles

 The electronic state is 1-A.
 Alpha  occ. eigenvalues --  -19.15611 -19.13189 -10.24738 -10.23937 -10.22876
 Alpha  occ. eigenvalues --  -10.22676 -10.19528 -10.19427 -10.18979  -1.07453
 Alpha  occ. eigenvalues --   -1.03141  -0.81639  -0.75211  -0.69844  -0.67699
 Alpha  occ. eigenvalues --   -0.64662  -0.59560  -0.54468  -0.49772  -0.49383
 Alpha  occ. eigenvalues --   -0.47839  -0.44807  -0.42442  -0.42179  -0.41900
 Alpha  occ. eigenvalues --   -0.40381  -0.39437  -0.37848  -0.34946  -0.33286
 Alpha  occ. eigenvalues --   -0.31421  -0.27747  -0.25688  -0.22554
 Alpha virt. eigenvalues --    0.00747   0.08209   0.09916   0.11110   0.11409
 Alpha virt. eigenvalues --    0.11601   0.12549   0.14103   0.15943   0.17083
 Alpha virt. eigenvalues --    0.18196   0.18302   0.19403   0.21228   0.22182

 Mulliken charges:
               1
     1  C   -0.503847
     2  C    0.153396
     3  C    0.221824
     4  C   -0.160217
     5  O   -0.266278
     6  C   -0.137306
     7  C   -0.038023
     8  C   -0.185720
     9  O   -0.233149
    10  H    0.133641
    11  H    0.130660
    12  H    0.134373
    13  H    0.099246
    14  H    0.120771
    15  H    0.100428
    16  H    0.101476
    17  H    0.091382
    18  H    0.118950
    19  H    0.118392
 Sum of Mulliken charges =   0.00000

 Dipole moment (field-independent basis, Debye):
    X=              0.1310    Y=              2.2425    Z=              1.4050  Tot=              2.6495
 Quadrupole moment (field-independent basis, Debye-Ang):
   XX=            -53.3363   YY=            -53.4802   ZZ=            -53.9067
   XY=              3.1187   XZ=             -4.5108   YZ=             -0.5616

  Exact polarizability: 105.549  10.822  78.631  -4.211  -1.349  57.730
 Approx polarizability: 149.877  21.310 111.586  -2.622  -0.798  91.940

                      1                      2                      3
                      A                      A                      A
 Frequencies --     51.1989                88.0114               145.7629
 Red. masses --      3.2159                 2.7267                 1.2427
 Frc consts  --      0.0050                 0.0124                 0.0156
 IR Inten    --      2.9674                 4.7937                 1.4062

                      4                      5                      6
                      A                      A                      A
 Frequencies --    159.4421               174.4206               225.3836
 Red. masses --      1.9542                 3.6228                 2.6394
 Frc consts  --      0.0293                 0.0649                 0.0790
 IR Inten    --      1.2991                 0.4743                 2.2196

                      7                      8                      9
                      A                      A                      A
 Frequencies --    278.6930               385.3910               456.3983
 Red. masses --      3.2740                 2.8577                 3.8233
 Frc consts  --      0.1498                 0.2501                 0.4692
 IR Inten    --      0.2351                 1.8368                 0.2658

                     10                     11                     12
                      A                      A                      A
 Frequencies --    569.2683               587.9548               648.5093
 Red. masses --      3.0622                 3.7778                 4.2100
 Frc consts  --      0.5847                 0.7694                 1.0432
 IR Inten    --      0.4992                 7.7103                 5.5916

                     13                     14                     15
                      A                      A                      A
 Frequencies --    813.4734               831.8027               901.9136
 Red. masses --      4.1686                 6.0321                 3.6352
 Frc consts  --      1.6253                 2.4590                 1.7422
 IR Inten    --     11.5639                24.6617                19.6457

                     16                     17                     18
                      A                      A                      A
 Frequencies --    936.0317               953.6608               963.3846
 Red. masses --      1.9212                 3.4393                 1.4514
 Frc consts  --      0.9917                 1.8429                 0.7937
 IR Inten    --      3.0815                17.5078                 2.9875

                     19                     20                     21
                      A                      A                      A
 Frequencies --    988.9294              1050.6154              1079.8413
 Red. masses --      1.6025                 1.5661                 3.3250
 Frc consts  --      0.9234                 1.0185                 2.2843
 IR Inten    --     18.0481                 2.0144                43.6250

                     22                     23                     24
                      A                      A                      A
 Frequencies --   1091.9022              1094.7184              1119.8295
 Red. masses --      1.4955                 1.3981                 4.7299
 Frc consts  --      1.0505                 0.9872                 3.4947
 IR Inten    --      0.8455                 0.2934                32.7269

                     25                     26                     27
                      A                      A                      A
 Frequencies --   1151.7792              1167.9079              1173.7088
 Red. masses --      1.4461                 1.3356                 1.1057
 Frc consts  --      1.1303                 1.0734                 0.8975
 IR Inten    --      1.0205                 1.9013                 0.9268

                     28                     29                     30
                      A                      A                      A
 Frequencies --   1214.6150              1224.1859              1276.5598
 Red. masses --      3.2515                 1.0658                 2.1801
 Frc consts  --      2.8262                 0.9411                 2.0932
 IR Inten    --      2.7767                 0.0477                 6.0666

                     31                     32                     33
                      A                      A                      A
 Frequencies --   1303.3057              1381.1998              1391.1042
 Red. masses --      1.6132                 1.7475                 1.5754
 Frc consts  --      1.6145                 1.9641                 1.7962
 IR Inten    --     11.9022                 3.2723                 8.1188

                     34                     35                     36
                      A                      A                      A
 Frequencies --   1418.2510              1423.3729              1478.1562
 Red. masses --      1.7404                 1.5169                 1.0436
 Frc consts  --      2.0625                 1.8107                 1.3434
 IR Inten    --      6.6488                 5.6888                 6.5579

                     37                     38                     39
                      A                      A                      A
 Frequencies --   1489.7544              1516.9728              1524.3100
 Red. masses --      1.0591                 1.0830                 1.2254
 Frc consts  --      1.3849                 1.4684                 1.6776
 IR Inten    --      5.6035                 2.6895                 1.0654

                     40                     41                     42
                      A                      A                      A
 Frequencies --   1530.5883              1748.0230              2954.9297
 Red. masses --      1.0977                 8.1297                 1.0554
 Frc consts  --      1.5151                14.6359                 5.4294
 IR Inten    --      0.6534                 3.8250               116.9924

                     43                     44                     45
                      A                      A                      A
 Frequencies --   2968.1623              2975.4067              3010.1501
 Red. masses --      1.1043                 1.0681                 1.0933
 Frc consts  --      5.7321                 5.5714                 5.8367
 IR Inten    --     43.9559                50.5779                36.4224

                     46                     47                     48
                      A                      A                      A
 Frequencies --   3021.3150              3065.8504              3083.8411
 Red. masses --      1.0394                 1.0985                 1.0502
 Frc consts  --      5.5900                 6.0833                 5.8847
 IR Inten    --     34.3795                16.7067                31.4366

                     49                     50                     51
                      A                      A                      A
 Frequencies --   3113.6979              3121.5006              3172.5996
 Red. masses --      1.0909                 1.0942                 1.1189
 Frc consts  --      6.2314                 6.2817                 6.6355
 IR Inten    --      9.2679                28.1944                26.9510

 - Thermochemistry -
 -------------------
 Temperature   298.150 Kelvin.  Pressure   1.00000 Atm.
 Atom     1 has atomic number  6 and mass  12.00000

 Molecular mass:   126.06808 amu.
 Principal axes and moments of inertia in atomic units:
                           1         2         3
     Eigenvalues --   665.404151436.232101948.56128
           X            0.99920   0.03658  -0.01594
           Y           -0.03666   0.99932  -0.00475
           Z            0.01576   0.00533   0.99986
 This molecule is an asymmetric top.
 Rotational symmetry number  1.
 Warning -- assumption of classical behavior for rotation
           may cause significant error
 Rotational temperatures (Kelvin)      0.13017     0.06031     0.04445
 Rotational constants (GHZ):           2.71225     1.25658     0.92619
 Zero-point vibrational energy     415689.1 (Joules/Mol)
                                   99.35207 (Kcal/Mol)
 Warning -- explicit consideration of  11 degrees of freedom as
           vibrations may cause significant error
 Vibrational temperatures:     73.66   126.63   209.72   229.40   250.95
          (Kelvin)            324.28   400.98   554.49   656.65   819.05
                              845.93   933.06  1170.41  1196.78  1297.65
                             1346.74  1372.10  1386.09  1422.85  1511.60
                             1553.65  1571.00  1575.05  1611.18  1657.15
                             1680.36  1688.70  1747.56  1761.33  1836.68
                             1875.16  1987.24  2001.49  2040.54  2047.91
                             2126.73  2143.42  2182.58  2193.14  2202.17
                             2515.01  4251.48  4270.52  4280.94  4330.93
                             4346.99  4411.07  4436.95  4479.91  4491.14
                             4564.66

 Zero-point correction=                           0.158328 (Hartree/Particle)
 Thermal correction to Energy=                    0.167330
 Thermal correction to Enthalpy=                  0.168274
 Thermal correction to Gibbs Free Energy=         0.123677
 Sum of electronic and zero-point Energies=           -423.009199
 Sum of electronic and thermal Energies=              -423.000196
 Sum of electronic and thermal Enthalpies=            -422.999252
 Sum of electronic and thermal Free Energies=         -423.043849

                     E (Thermal)             CV                S
                      KCal/Mol        Cal/Mol-Kelvin    Cal/Mol-Kelvin
 Total                  105.001             32.091             93.863
 Electronic               0.000              0.000              0.000
 Translational            0.889              2.981             40.409
 Rotational               0.889              2.981             29.011
 Vibrational            103.224             26.129             24.443
 Vibration     1          0.595              1.977              4.771
 Vibration     2          0.601              1.958              3.704
 Vibration     3          0.617              1.907              2.727
 Vibration     4          0.621              1.892              2.556
 Vibration     5          0.627              1.874              2.387
 Vibration     6          0.650              1.802              1.915
 Vibration     7          0.679              1.713              1.542
 Vibration     8          0.754              1.501              1.018
 Vibration     9          0.815              1.347              0.777
 Vibration    10          0.925              1.098              0.506
 Vibration    11          0.945              1.057              0.471

 Optimization completed.
    -- Stationary point found.
 Normal termination of Gaussian 09 at Mon Jan 27 22:47:49 2020.
