 Gaussian 09, Revision D.01,
 Gaussian 09:  ES64L-G09RevD.01 24-Apr-2013

 -----------------------------
 # b3lyp 6-31G(2df,p) opt Freq
 -----------------------------

 -----
 titel
 -----
 Symbolic Z-matrix:
 Charge =  0 Multiplicity = 1

 SCF Done:  E(RB3LYP) =  -423.106734344     A.U. after   12 cycles
 Optimization completed.
    -- Stationary point found.
 Normal termination of Gaussian 09 at Tue Jan 28 10:05:10 2020.

 ----------------------------------------------------------------------
 #N Geom=AllCheck Guess=TCheck SCRF=Check GenChk RB3LYP/6-31G(2df,p) Fr
 eq
 ----------------------------------------------------------------------

 Structure from the checkpoint file:  "/scratch/puck/g09_96556aec-cd71-4a41-b77b-3691c4952518/Gau-191382.chk"
 -----
 titel
 -----
 Charge =  0 Multiplicity = 1

                         Standard orientation:
 ---------------------------------------------------------------------
 Center     Atomic      Atomic             Coordinates (Angstroms)
 Number     Number       Type             X           Y           Z
 ---------------------------------------------------------------------
      1          8           0       -2.438134    0.289118    0.034873
      2          6           0       -1.570527   -0.609305    0.745122
      3          6           0       -0.203153   -0.611561    0.121970
      4          6           0        0.269123   -1.212086   -1.224591
      5          6           0        1.490008   -0.424513   -0.709969
      6          6           0        1.206521   -0.797724    0.787892
      7          6           0        1.283704    0.672747    1.254991
      8          6           0        0.595409    0.718268   -0.126400
      9          8           0        0.108397    1.799410   -0.831832
     10          1           0       -2.585281   -0.085080   -0.840417
     11          1           0       -1.525874   -0.220087    1.767769
     12          1           0       -2.006930   -1.617482    0.794279
     13          1           0        0.362359   -2.301936   -1.274117
     14          1           0       -0.204347   -0.823409   -2.132148
     15          1           0        2.476913   -0.307479   -1.158773
     16          1           0        1.559773   -1.695238    1.291821
     17          1           0        0.682509    0.951642    2.126784
     18          1           0        2.283521    1.112543    1.320627
     19          1           0       -0.831262    1.863354   -0.614236
 ---------------------------------------------------------------------

 SCF Done:  E(RB3LYP) =  -423.106734344     A.U. after    1 cycles

 The electronic state is 1-A.
 Alpha  occ. eigenvalues --  -19.15125 -19.13691 -10.23929 -10.23508 -10.20067
 Alpha  occ. eigenvalues --  -10.19809 -10.19474 -10.18354 -10.17882  -1.03202
 Alpha  occ. eigenvalues --   -1.02168  -0.93164  -0.74474  -0.71835  -0.62129
 Alpha  occ. eigenvalues --   -0.61181  -0.60527  -0.53328  -0.51766  -0.48521
 Alpha  occ. eigenvalues --   -0.46994  -0.45397  -0.44177  -0.42002  -0.40395
 Alpha  occ. eigenvalues --   -0.36682  -0.35847  -0.32537  -0.31983  -0.31636
 Alpha  occ. eigenvalues --   -0.30137  -0.27864  -0.26637  -0.25515
 Alpha virt. eigenvalues --    0.05471   0.10535   0.11306   0.12179   0.12270
 Alpha virt. eigenvalues --    0.13148   0.13656   0.15082   0.15871   0.16874
 Alpha virt. eigenvalues --    0.17651   0.18414   0.20036   0.20658   0.21437

 Mulliken charges:
               1
     1  O   -0.417009
     2  C   -0.229934
     3  C    0.273193
     4  C   -0.334261
     5  C   -0.086593
     6  C   -0.109720
     7  C   -0.330395
     8  C    0.403078
     9  O   -0.487232
    10  H    0.290390
    11  H    0.119035
    12  H    0.099140
    13  H    0.088561
    14  H    0.093110
    15  H    0.074932
    16  H    0.078640
    17  H    0.090785
    18  H    0.096615
    19  H    0.287664
 Sum of Mulliken charges =   0.00000

 Dipole moment (field-independent basis, Debye):
    X=             -0.5790    Y=             -1.9456    Z=              0.2355  Tot=              2.0436
 Quadrupole moment (field-independent basis, Debye-Ang):
   XX=            -52.8638   YY=            -55.2662   ZZ=            -52.4628
   XY=              0.4415   XZ=              3.0453   YZ=              1.3823

  Exact polarizability:  79.098   0.742  72.278   2.140   2.938  74.139
 Approx polarizability: 112.829  -1.199 110.458   2.509   0.467 111.141

                      1                      2                      3
                      A                      A                      A
 Frequencies --     98.7227               134.0257               236.4494
 Red. masses --      3.6871                 5.6858                 1.4449
 Frc consts  --      0.0212                 0.0602                 0.0476
 IR Inten    --      1.7245                 7.9146                56.7857

                      4                      5                      6
                      A                      A                      A
 Frequencies --    270.5309               300.0220               340.0554
 Red. masses --      2.4476                 2.1368                 2.7175
 Frc consts  --      0.1055                 0.1133                 0.1851
 IR Inten    --     36.5597                15.5856                64.0681

                      7                      8                      9
                      A                      A                      A
 Frequencies --    408.9104               458.1143               482.8631
 Red. masses --      2.2204                 1.9366                 2.0808
 Frc consts  --      0.2187                 0.2395                 0.2858
 IR Inten    --     10.1574                 7.1914                 7.5759

                     10                     11                     12
                      A                      A                      A
 Frequencies --    499.4129               654.6209               696.5957
 Red. masses --      1.5307                 4.0041                 3.1650
 Frc consts  --      0.2249                 1.0110                 0.9049
 IR Inten    --     29.6118                 8.4276                 4.4579

                     13                     14                     15
                      A                      A                      A
 Frequencies --    736.0451               783.7031               856.0301
 Red. masses --      3.3547                 4.0324                 2.0102
 Frc consts  --      1.0708                 1.4592                 0.8679
 IR Inten    --      7.0453                 0.5779                 0.5251

                     16                     17                     18
                      A                      A                      A
 Frequencies --    891.6167               914.1734               929.2760
 Red. masses --      2.2927                 1.9007                 2.2711
 Frc consts  --      1.0739                 0.9359                 1.1555
 IR Inten    --      4.8701                 3.9239                 1.1626

                     19                     20                     21
                      A                      A                      A
 Frequencies --    943.2330               988.7228              1007.6494
 Red. masses --      2.2807                 1.4313                 1.3389
 Frc consts  --      1.1955                 0.8244                 0.8010
 IR Inten    --      6.9571                 9.4605                 1.5544

                     22                     23                     24
                      A                      A                      A
 Frequencies --   1018.4769              1061.3940              1077.1961
 Red. masses --      4.7426                 1.8050                 1.7935
 Frc consts  --      2.8985                 1.1981                 1.2261
 IR Inten    --     69.6488                12.3405                12.4938

                     25                     26                     27
                      A                      A                      A
 Frequencies --   1089.9301              1115.2150              1122.9246
 Red. masses --      1.6941                 1.3066                 1.9048
 Frc consts  --      1.1857                 0.9574                 1.4151
 IR Inten    --      9.7162                 1.2261                 1.2234

                     28                     29                     30
                      A                      A                      A
 Frequencies --   1150.3744              1188.7054              1197.6072
 Red. masses --      1.5005                 1.7857                 1.6776
 Frc consts  --      1.1699                 1.4867                 1.4176
 IR Inten    --      4.4265                18.3372                 6.6267

                     31                     32                     33
                      A                      A                      A
 Frequencies --   1216.6517              1233.1594              1276.8047
 Red. masses --      1.7521                 1.5506                 2.3410
 Frc consts  --      1.5280                 1.3892                 2.2485
 IR Inten    --     20.4172                23.7322                48.1611

                     34                     35                     36
                      A                      A                      A
 Frequencies --   1304.9202              1340.5436              1365.2794
 Red. masses --      2.1786                 2.7445                 1.4589
 Frc consts  --      2.1857                 2.9059                 1.6022
 IR Inten    --     75.1207               112.4498                 6.2337

                     37                     38                     39
                      A                      A                      A
 Frequencies --   1394.2651              1408.9504              1494.7984
 Red. masses --      1.6202                 1.3558                 1.1016
 Frc consts  --      1.8558                 1.5858                 1.4502
 IR Inten    --      2.1237                40.7476                 2.1894

                     40                     41                     42
                      A                      A                      A
 Frequencies --   1504.9090              1513.9550              2999.6541
 Red. masses --      1.1659                 1.1824                 1.0677
 Frc consts  --      1.5557                 1.5968                 5.6602
 IR Inten    --      0.6601                 8.9009                56.9587

                     43                     44                     45
                      A                      A                      A
 Frequencies --   3035.2820              3039.5314              3075.6501
 Red. masses --      1.0546                 1.0557                 1.0951
 Frc consts  --      5.7244                 5.7463                 6.1036
 IR Inten    --     75.5942                20.9846                23.9971

                     46                     47                     48
                      A                      A                      A
 Frequencies --   3092.2238              3098.6279              3110.2837
 Red. masses --      1.1093                 1.1089                 1.0902
 Frc consts  --      6.2497                 6.2732                 6.2140
 IR Inten    --     31.7340                32.4616                49.7800

                     49                     50                     51
                      A                      A                      A
 Frequencies --   3138.2694              3759.0734              3811.3219
 Red. masses --      1.0929                 1.0657                 1.0662
 Frc consts  --      6.3416                 8.8725                 9.1250
 IR Inten    --     35.3002                79.6372                21.2883

 - Thermochemistry -
 -------------------
 Temperature   298.150 Kelvin.  Pressure   1.00000 Atm.
 Atom     1 has atomic number  8 and mass  15.99491

 Molecular mass:   126.06808 amu.
 Principal axes and moments of inertia in atomic units:
                           1         2         3
     Eigenvalues --   740.332381111.616241219.90021
           X            0.99982   0.01070   0.01571
           Y           -0.01248   0.99293   0.11802
           Z           -0.01434  -0.11819   0.99289
 This molecule is an asymmetric top.
 Rotational symmetry number  1.
 Warning -- assumption of classical behavior for rotation
           may cause significant error
 Rotational temperatures (Kelvin)      0.11699     0.07792     0.07100
 Rotational constants (GHZ):           2.43774     1.62353     1.47942
 Zero-point vibrational energy     417896.0 (Joules/Mol)
                                   99.87953 (Kcal/Mol)
 Warning -- explicit consideration of  10 degrees of freedom as
           vibrations may cause significant error
 Vibrational temperatures:    142.04   192.83   340.20   389.23   431.66
          (Kelvin)            489.26   588.33   659.12   694.73   718.54
                              941.85  1002.24  1059.00  1127.57  1231.63
                             1282.84  1315.29  1337.02  1357.10  1422.55
                             1449.78  1465.36  1527.11  1549.84  1568.16
                             1604.54  1615.64  1655.13  1710.28  1723.09
                             1750.49  1774.24  1837.03  1877.49  1928.74
                             1964.33  2006.03  2027.16  2150.68  2165.23
                             2178.24  4315.83  4367.09  4373.20  4425.17
                             4449.01  4458.23  4475.00  4515.26  5408.46
                             5483.64

 Zero-point correction=                           0.159168 (Hartree/Particle)
 Thermal correction to Energy=                    0.167272
 Thermal correction to Enthalpy=                  0.168216
 Thermal correction to Gibbs Free Energy=         0.126826
 Sum of electronic and zero-point Energies=           -422.947566
 Sum of electronic and thermal Energies=              -422.939463
 Sum of electronic and thermal Enthalpies=            -422.938519
 Sum of electronic and thermal Free Energies=         -422.979909

                     E (Thermal)             CV                S
                      KCal/Mol        Cal/Mol-Kelvin    Cal/Mol-Kelvin
 Total                  104.964             32.172             87.113
 Electronic               0.000              0.000              0.000
 Translational            0.889              2.981             40.409
 Rotational               0.889              2.981             28.398
 Vibrational            103.187             26.210             18.307
 Vibration     1          0.604              1.950              3.479
 Vibration     2          0.613              1.919              2.887
 Vibration     3          0.655              1.785              1.829
 Vibration     4          0.674              1.727              1.593
 Vibration     5          0.693              1.674              1.417
 Vibration     6          0.720              1.595              1.212
 Vibration     7          0.773              1.451              0.930
 Vibration     8          0.816              1.343              0.772
 Vibration     9          0.839              1.288              0.702
 Vibration    10          0.855              1.251              0.660

 Optimization completed.
    -- Stationary point found.
 Normal termination of Gaussian 09 at Tue Jan 28 10:42:37 2020.
