 Gaussian 09, Revision D.01,
 Gaussian 09:  ES64L-G09RevD.01 24-Apr-2013

 -----------------------------
 # b3lyp 6-31G(2df,p) opt Freq
 -----------------------------

 -----
 titel
 -----
 Symbolic Z-matrix:
 Charge =  0 Multiplicity = 1

 SCF Done:  E(RB3LYP) =  -423.225093898     A.U. after   14 cycles
 Optimization completed.
    -- Stationary point found.
 Normal termination of Gaussian 09 at Tue Jan 28 00:03:04 2020.

 ----------------------------------------------------------------------
 #N Geom=AllCheck Guess=TCheck SCRF=Check GenChk RB3LYP/6-31G(2df,p) Fr
 eq
 ----------------------------------------------------------------------

 Structure from the checkpoint file:  "/scratch/puck/g09_7f7fc75d-cc47-4b67-8cc8-bbbb46d03472/Gau-184668.chk"
 -----
 titel
 -----
 Charge =  0 Multiplicity = 1

                         Standard orientation:
 ---------------------------------------------------------------------
 Center     Atomic      Atomic             Coordinates (Angstroms)
 Number     Number       Type             X           Y           Z
 ---------------------------------------------------------------------
      1          8           0        2.146217   -1.012169   -0.513965
      2          6           0        0.805605   -0.624895   -0.698799
      3          6           0        0.524677    0.899148   -0.764608
      4          6           0        0.843440    1.346057    0.682446
      5          6           0        0.357590    0.135296    1.546173
      6          6           0       -0.161929   -0.884781    0.488120
      7          6           0       -1.449321   -0.279576   -0.062710
      8          8           0       -2.579732   -0.635295    0.144285
      9          6           0       -1.005156    0.902597   -0.948195
     10          1           0        2.484256   -0.606224    0.290407
     11          1           0        0.483626   -1.138933   -1.609951
     12          1           0        1.077291    1.437432   -1.535755
     13          1           0        1.914791    1.528989    0.813735
     14          1           0        0.333123    2.276622    0.943568
     15          1           0        1.173843   -0.309184    2.124253
     16          1           0       -0.419720    0.407937    2.263492
     17          1           0       -0.269641   -1.907859    0.844379
     18          1           0       -1.300372    0.696290   -1.983750
     19          1           0       -1.498514    1.831571   -0.647502
 ---------------------------------------------------------------------

 SCF Done:  E(RB3LYP) =  -423.225093898     A.U. after    1 cycles

 The electronic state is 1-A.
 Alpha  occ. eigenvalues --  -19.14802 -19.12913 -10.26660 -10.24141 -10.20245
 Alpha  occ. eigenvalues --  -10.19762 -10.19742 -10.19364 -10.19358  -1.04050
 Alpha  occ. eigenvalues --   -1.03234  -0.87505  -0.75378  -0.73285  -0.68615
 Alpha  occ. eigenvalues --   -0.60378  -0.58008  -0.53434  -0.52049  -0.49723
 Alpha  occ. eigenvalues --   -0.47723  -0.42820  -0.41805  -0.41427  -0.40784
 Alpha  occ. eigenvalues --   -0.39320  -0.37951  -0.37173  -0.35224  -0.34711
 Alpha  occ. eigenvalues --   -0.33084  -0.32281  -0.27336  -0.23446
 Alpha virt. eigenvalues --   -0.01581   0.05499   0.09331   0.10536   0.13264
 Alpha virt. eigenvalues --    0.14012   0.14809   0.15088   0.16131   0.16582
 Alpha virt. eigenvalues --    0.17974   0.18284   0.19440   0.21637   0.21930

 Mulliken charges:
               1
     1  O   -0.452252
     2  C    0.152630
     3  C   -0.053937
     4  C   -0.234280
     5  C   -0.249465
     6  C   -0.149630
     7  C    0.420884
     8  O   -0.329851
     9  C   -0.335849
    10  H    0.284888
    11  H    0.091906
    12  H    0.073765
    13  H    0.099480
    14  H    0.108967
    15  H    0.106112
    16  H    0.123804
    17  H    0.085004
    18  H    0.130953
    19  H    0.126873
 Sum of Mulliken charges =   0.00000

 Dipole moment (field-independent basis, Debye):
    X=              2.0600    Y=              1.8899    Z=              0.5756  Tot=              2.8542
 Quadrupole moment (field-independent basis, Debye-Ang):
   XX=            -63.0804   YY=            -53.5409   ZZ=            -50.6801
   XY=             -0.5512   XZ=              4.4953   YZ=             -0.7141

  Exact polarizability:  80.395   1.569  69.692   2.280  -1.736  70.560
 Approx polarizability: 122.433   3.265 103.356   0.640  -1.281 104.297

                      1                      2                      3
                      A                      A                      A
 Frequencies --    111.6351               199.7790               230.6166
 Red. masses --      4.4775                 1.2146                 2.7273
 Frc consts  --      0.0329                 0.0286                 0.0855
 IR Inten    --      4.6817                52.1823                 5.8319

                      4                      5                      6
                      A                      A                      A
 Frequencies --    250.0356               318.2056               375.3882
 Red. masses --      1.9385                 5.5249                 2.0959
 Frc consts  --      0.0714                 0.3296                 0.1740
 IR Inten    --     10.3767                17.2945                 7.3528

                      7                      8                      9
                      A                      A                      A
 Frequencies --    449.1296               527.0879               559.6434
 Red. masses --      4.9252                 4.7858                 3.6255
 Frc consts  --      0.5854                 0.7834                 0.6690
 IR Inten    --      5.4206                 2.7821                 1.9959

                     10                     11                     12
                      A                      A                      A
 Frequencies --    580.7909               706.6139               746.8029
 Red. masses --      2.5827                 3.1459                 2.6970
 Frc consts  --      0.5133                 0.9255                 0.8862
 IR Inten    --      1.3029                 1.8257                16.2449

                     13                     14                     15
                      A                      A                      A
 Frequencies --    785.6027               834.6471               865.4630
 Red. masses --      3.0823                 1.7852                 1.9424
 Frc consts  --      1.1208                 0.7327                 0.8572
 IR Inten    --      3.4285                 1.3733                 3.4578

                     16                     17                     18
                      A                      A                      A
 Frequencies --    884.0322               889.3865               917.2254
 Red. masses --      2.6346                 4.2013                 1.8407
 Frc consts  --      1.2131                 1.9580                 0.9124
 IR Inten    --      6.1229                 0.2012                 1.4141

                     19                     20                     21
                      A                      A                      A
 Frequencies --    951.6654              1004.5857              1020.7730
 Red. masses --      2.2143                 2.3618                 1.9159
 Frc consts  --      1.1816                 1.4043                 1.1762
 IR Inten    --      3.0628                 6.0117                 2.3094

                     22                     23                     24
                      A                      A                      A
 Frequencies --   1062.0198              1080.2592              1100.6836
 Red. masses --      1.6713                 1.4976                 1.8724
 Frc consts  --      1.1106                 1.0297                 1.3365
 IR Inten    --      6.9673                 6.9551                75.4976

                     25                     26                     27
                      A                      A                      A
 Frequencies --   1139.4305              1168.7709              1185.1614
 Red. masses --      1.7610                 1.7708                 1.5279
 Frc consts  --      1.3470                 1.4252                 1.2645
 IR Inten    --     78.8576                16.2389                20.2610

                     28                     29                     30
                      A                      A                      A
 Frequencies --   1204.1029              1234.2275              1255.1344
 Red. masses --      1.3868                 1.6250                 1.5232
 Frc consts  --      1.1847                 1.4585                 1.4138
 IR Inten    --      2.9473                 4.0024                23.7507

                     31                     32                     33
                      A                      A                      A
 Frequencies --   1267.9083              1284.2734              1301.7488
 Red. masses --      1.3330                 1.4409                 1.5600
 Frc consts  --      1.2626                 1.4002                 1.5575
 IR Inten    --      0.2598                 4.9413                 2.9160

                     34                     35                     36
                      A                      A                      A
 Frequencies --   1319.9303              1331.4326              1345.8828
 Red. masses --      1.5559                 1.5602                 1.5138
 Frc consts  --      1.5971                 1.6296                 1.6156
 IR Inten    --      5.4271                 0.5410                 5.7333

                     37                     38                     39
                      A                      A                      A
 Frequencies --   1440.3115              1454.0055              1503.8101
 Red. masses --      1.1716                 1.1377                 1.0735
 Frc consts  --      1.4320                 1.4172                 1.4304
 IR Inten    --     30.8053                38.6404                 1.6010

                     40                     41                     42
                      A                      A                      A
 Frequencies --   1520.0117              1854.3720              3045.4739
 Red. masses --      1.0943                12.3965                 1.0631
 Frc consts  --      1.4896                25.1155                 5.8093
 IR Inten    --      4.6443               237.5111                 9.1554

                     43                     44                     45
                      A                      A                      A
 Frequencies --   3046.7026              3058.6815              3068.4298
 Red. masses --      1.0655                 1.0642                 1.0858
 Frc consts  --      5.8274                 5.8662                 6.0230
 IR Inten    --     18.3322                42.6885                22.9884

                     46                     47                     48
                      A                      A                      A
 Frequencies --   3089.8026              3096.4196              3107.7639
 Red. masses --      1.1003                 1.1004                 1.0886
 Frc consts  --      6.1893                 6.2163                 6.1945
 IR Inten    --      5.0562                 8.5180                29.9245

                     49                     50                     51
                      A                      A                      A
 Frequencies --   3109.5955              3138.1994              3825.3741
 Red. masses --      1.1016                 1.0893                 1.0653
 Frc consts  --      6.2758                 6.3208                 9.1844
 IR Inten    --     31.4175                13.1353                12.8436

 - Thermochemistry -
 -------------------
 Temperature   298.150 Kelvin.  Pressure   1.00000 Atm.
 Atom     1 has atomic number  8 and mass  15.99491

 Molecular mass:   126.06808 amu.
 Principal axes and moments of inertia in atomic units:
                           1         2         3
     Eigenvalues --   660.640921223.457221265.54144
           X            0.99956   0.00049   0.02976
           Y            0.00209   0.99622  -0.08685
           Z           -0.02969   0.08687   0.99578
 This molecule is an asymmetric top.
 Rotational symmetry number  1.
 Warning -- assumption of classical behavior for rotation
           may cause significant error
 Rotational temperatures (Kelvin)      0.13111     0.07079     0.06844
 Rotational constants (GHZ):           2.73180     1.47512     1.42606
 Zero-point vibrational energy     423771.3 (Joules/Mol)
                                  101.28377 (Kcal/Mol)
 Warning -- explicit consideration of  10 degrees of freedom as
           vibrations may cause significant error
 Vibrational temperatures:    160.62   287.44   331.81   359.74   457.83
          (Kelvin)            540.10   646.20   758.36   805.20   835.63
                             1016.66  1074.48  1130.31  1200.87  1245.21
                             1271.92  1279.63  1319.68  1369.23  1445.37
                             1468.66  1528.01  1554.25  1583.64  1639.38
                             1681.60  1705.18  1732.43  1775.78  1805.86
                             1824.24  1847.78  1872.92  1899.08  1915.63
                             1936.42  2072.28  2091.99  2163.64  2186.96
                             2668.02  4381.75  4383.52  4400.75  4414.78
                             4445.53  4455.05  4471.37  4474.01  4515.16
                             5503.85

 Zero-point correction=                           0.161406 (Hartree/Particle)
 Thermal correction to Energy=                    0.169037
 Thermal correction to Enthalpy=                  0.169981
 Thermal correction to Gibbs Free Energy=         0.129556
 Sum of electronic and zero-point Energies=           -423.063688
 Sum of electronic and thermal Energies=              -423.056057
 Sum of electronic and thermal Enthalpies=            -423.055113
 Sum of electronic and thermal Free Energies=         -423.095538

                     E (Thermal)             CV                S
                      KCal/Mol        Cal/Mol-Kelvin    Cal/Mol-Kelvin
 Total                  106.072             30.606             85.082
 Electronic               0.000              0.000              0.000
 Translational            0.889              2.981             40.409
 Rotational               0.889              2.981             28.416
 Vibrational            104.295             24.644             16.257
 Vibration     1          0.607              1.940              3.240
 Vibration     2          0.638              1.840              2.135
 Vibration     3          0.652              1.794              1.874
 Vibration     4          0.663              1.763              1.730
 Vibration     5          0.705              1.639              1.319
 Vibration     6          0.746              1.523              1.058
 Vibration     7          0.808              1.363              0.798
 Vibration     8          0.882              1.190              0.594
 Vibration     9          0.915              1.119              0.525
 Vibration    10          0.937              1.073              0.484

 Normal termination of Gaussian 09 at Tue Jan 28 00:53:23 2020.
