 Gaussian 09, Revision D.01,
 Gaussian 09:  ES64L-G09RevD.01 24-Apr-2013

 -----------------------------
 # b3lyp 6-31G(2df,p) opt Freq
 -----------------------------

 -----
 titel
 -----
 Symbolic Z-matrix:
 Charge =  0 Multiplicity = 1

 SCF Done:  E(RB3LYP) =  -423.064760874     A.U. after   14 cycles
 Optimization completed.
    -- Stationary point found.
 Normal termination of Gaussian 09 at Mon Jan 27 16:01:44 2020.

 ----------------------------------------------------------------------
 #N Geom=AllCheck Guess=TCheck SCRF=Check GenChk RB3LYP/6-31G(2df,p) Fr
 eq
 ----------------------------------------------------------------------

 Structure from the checkpoint file:  "/scratch/puck/g09_e484f6e4-45dd-4bd8-827e-b779259ac7f0/Gau-82168.chk"
 -----
 titel
 -----
 Charge =  0 Multiplicity = 1

                         Standard orientation:
 ---------------------------------------------------------------------
 Center     Atomic      Atomic             Coordinates (Angstroms)
 Number     Number       Type             X           Y           Z
 ---------------------------------------------------------------------
      1          6           0       -1.903624    1.392955    0.085719
      2          6           0       -1.167286    0.072310    0.062009
      3          8           0       -2.031507   -0.910014    0.512908
      4          6           0       -0.222887   -0.390241   -1.176767
      5          8           0        0.376160   -1.355163   -0.253448
      6          6           0        0.352073   -0.033689    0.498940
      7          6           0        1.712307    0.130158    1.196135
      8          6           0        2.293851    0.322893   -0.261632
      9          6           0        0.841119    0.647844   -0.784433
     10          1           0       -2.262291    1.589799    1.100340
     11          1           0       -1.284315    2.230327   -0.235373
     12          1           0       -2.778562    1.331003   -0.567850
     13          1           0       -1.507094   -1.725610    0.479853
     14          1           0       -0.556952   -0.769561   -2.147650
     15          1           0        1.770358    1.050225    1.783406
     16          1           0        2.063134   -0.715567    1.791061
     17          1           0        2.987919    1.157146   -0.375558
     18          1           0        2.737337   -0.583483   -0.667536
     19          1           0        0.639921    1.703755   -0.956190
 ---------------------------------------------------------------------

 SCF Done:  E(RB3LYP) =  -423.064760874     A.U. after    1 cycles

 The electronic state is 1-A.
 Alpha  occ. eigenvalues --  -19.13694 -19.13612 -10.25762 -10.24857 -10.24364
 Alpha  occ. eigenvalues --  -10.19891 -10.19431 -10.18785 -10.18051  -1.07140
 Alpha  occ. eigenvalues --   -1.01464  -0.82978  -0.77232  -0.71070  -0.65816
 Alpha  occ. eigenvalues --   -0.61040  -0.59249  -0.53830  -0.51314  -0.47623
 Alpha  occ. eigenvalues --   -0.45956  -0.44234  -0.43188  -0.40646  -0.39021
 Alpha  occ. eigenvalues --   -0.37781  -0.36567  -0.35837  -0.34766  -0.33155
 Alpha  occ. eigenvalues --   -0.31450  -0.27196  -0.25021  -0.24184
 Alpha virt. eigenvalues --    0.06678   0.08259   0.09274   0.10833   0.11373
 Alpha virt. eigenvalues --    0.12659   0.13267   0.14490   0.14939   0.16074
 Alpha virt. eigenvalues --    0.17315   0.18497   0.18995   0.20416   0.21259

 Mulliken charges:
               1
     1  C   -0.461805
     2  C    0.367480
     3  O   -0.471508
     4  C   -0.041974
     5  O   -0.367692
     6  C    0.292200
     7  C   -0.324512
     8  C   -0.251139
     9  C   -0.050362
    10  H    0.135501
    11  H    0.120494
    12  H    0.134740
    13  H    0.288158
    14  H    0.086642
    15  H    0.113741
    16  H    0.117618
    17  H    0.102208
    18  H    0.129481
    19  H    0.080729
 Sum of Mulliken charges =   0.00000

 Dipole moment (field-independent basis, Debye):
    X=              0.9631    Y=              1.6042    Z=             -0.2572  Tot=              1.8887
 Quadrupole moment (field-independent basis, Debye-Ang):
   XX=            -55.5658   YY=            -52.3296   ZZ=            -52.0852
   XY=             -0.0032   XZ=              2.5158   YZ=              0.1104

  Exact polarizability:  89.289   1.159  70.977   3.172   0.651  69.434
 Approx polarizability: 121.579   3.184 113.196   3.817  -0.134 109.406

                      1                      2                      3
                      A                      A                      A
 Frequencies --    164.3211               196.2662               242.3073
 Red. masses --      1.0635                 2.6214                 2.9741
 Frc consts  --      0.0169                 0.0595                 0.1029
 IR Inten    --      0.4279                 0.3627                 0.6309

                      4                      5                      6
                      A                      A                      A
 Frequencies --    245.8393               323.4726               385.2059
 Red. masses --      3.3245                 2.3016                 3.1321
 Frc consts  --      0.1184                 0.1419                 0.2738
 IR Inten    --      0.7657                 0.4369                 1.5269

                      7                      8                      9
                      A                      A                      A
 Frequencies --    424.5905               520.0286               573.7783
 Red. masses --      4.2802                 3.1170                 3.6158
 Frc consts  --      0.4546                 0.4966                 0.7014
 IR Inten    --     18.8062                 3.6219                 2.5989

                     10                     11                     12
                      A                      A                      A
 Frequencies --    621.3377               641.3852               652.8796
 Red. masses --      3.9968                 1.7221                 2.1042
 Frc consts  --      0.9091                 0.4174                 0.5284
 IR Inten    --      9.6297                27.6907                 8.3586

                     13                     14                     15
                      A                      A                      A
 Frequencies --    704.0884               728.7224               757.7872
 Red. masses --      2.3570                 1.7021                 3.5587
 Frc consts  --      0.6884                 0.5325                 1.2040
 IR Inten    --     52.5340                 9.5577                10.7475

                     16                     17                     18
                      A                      A                      A
 Frequencies --    837.4078               846.2227               868.4803
 Red. masses --      2.0968                 3.6800                 3.0372
 Frc consts  --      0.8663                 1.5526                 1.3497
 IR Inten    --      3.0584                 6.7095                 4.2564

                     19                     20                     21
                      A                      A                      A
 Frequencies --    921.9183               965.3543               981.2588
 Red. masses --      2.9091                 2.2780                 1.9154
 Frc consts  --      1.4568                 1.2508                 1.0866
 IR Inten    --      9.6757                18.9840                17.6325

                     22                     23                     24
                      A                      A                      A
 Frequencies --   1019.8282              1060.5071              1090.6075
 Red. masses --      2.4312                 2.4231                 1.4192
 Frc consts  --      1.4898                 1.6057                 0.9946
 IR Inten    --     13.8324                 2.5846                 7.7438

                     25                     26                     27
                      A                      A                      A
 Frequencies --   1091.1745              1104.1593              1132.7780
 Red. masses --      2.0521                 1.8366                 1.4549
 Frc consts  --      1.4396                 1.3193                 1.0999
 IR Inten    --     29.6239                 6.4714                 0.9418

                     28                     29                     30
                      A                      A                      A
 Frequencies --   1159.7128              1192.5663              1200.9866
 Red. masses --      2.0162                 2.5215                 1.3069
 Frc consts  --      1.5976                 2.1129                 1.1107
 IR Inten    --     42.9205                16.3459                 8.3716

                     31                     32                     33
                      A                      A                      A
 Frequencies --   1236.4998              1243.2539              1261.5199
 Red. masses --      1.2299                 1.4888                 2.8989
 Frc consts  --      1.1079                 1.3558                 2.7181
 IR Inten    --      6.2937                14.4454                81.8616

                     34                     35                     36
                      A                      A                      A
 Frequencies --   1267.0503              1334.9116              1396.2291
 Red. masses --      1.8515                 1.6267                 1.2853
 Frc consts  --      1.7513                 1.7079                 1.4762
 IR Inten    --     50.1626                 0.5152                76.2531

                     37                     38                     39
                      A                      A                      A
 Frequencies --   1437.8895              1459.8856              1472.5659
 Red. masses --      1.7692                 1.0898                 1.1181
 Frc consts  --      2.1551                 1.3685                 1.4285
 IR Inten    --     87.5787                 1.1466                 0.6286

                     40                     41                     42
                      A                      A                      A
 Frequencies --   1479.6062              1496.8514              3053.2690
 Red. masses --      1.0465                 1.0743                 1.0376
 Frc consts  --      1.3498                 1.4181                 5.6992
 IR Inten    --      3.1338                 6.9276                14.1751

                     43                     44                     45
                      A                      A                      A
 Frequencies --   3062.9817              3067.0597              3090.0647
 Red. masses --      1.0869                 1.0600                 1.0631
 Frc consts  --      6.0080                 5.8751                 5.9805
 IR Inten    --     99.4181                 7.9786                37.9596

                     46                     47                     48
                      A                      A                      A
 Frequencies --   3115.5488              3126.6627              3128.3929
 Red. masses --      1.1008                 1.0932                 1.1039
 Frc consts  --      6.2952                 6.2967                 6.3655
 IR Inten    --     10.5922                28.5168                 0.7101

                     49                     50                     51
                      A                      A                      A
 Frequencies --   3152.8765              3167.6424              3705.7596
 Red. masses --      1.0976                 1.1047                 1.0629
 Frc consts  --      6.4283                 6.5309                 8.5996
 IR Inten    --     20.0395                17.8661                33.7275

 - Thermochemistry -
 -------------------
 Temperature   298.150 Kelvin.  Pressure   1.00000 Atm.
 Atom     1 has atomic number  6 and mass  12.00000

 Molecular mass:   126.06808 amu.
 Principal axes and moments of inertia in atomic units:
                           1         2         3
     Eigenvalues --   563.993071226.483791328.13614
           X            0.99970  -0.01997   0.01452
           Y            0.01989   0.99979   0.00571
           Z           -0.01463  -0.00542   0.99988
 This molecule is an asymmetric top.
 Rotational symmetry number  1.
 Warning -- assumption of classical behavior for rotation
           may cause significant error
 Rotational temperatures (Kelvin)      0.15357     0.07062     0.06521
 Rotational constants (GHZ):           3.19994     1.47148     1.35885
 Zero-point vibrational energy     415172.9 (Joules/Mol)
                                   99.22871 (Kcal/Mol)
 Warning -- explicit consideration of   9 degrees of freedom as
           vibrations may cause significant error
 Vibrational temperatures:    236.42   282.38   348.63   353.71   465.40
          (Kelvin)            554.22   610.89   748.20   825.54   893.97
                              922.81   939.35  1013.02  1048.47  1090.29
                             1204.84  1217.52  1249.55  1326.43  1388.93
                             1411.81  1467.30  1525.83  1569.14  1569.95
                             1588.64  1629.81  1668.57  1715.83  1727.95
                             1779.05  1788.76  1815.04  1823.00  1920.64
                             2008.86  2068.80  2100.45  2118.69  2128.82
                             2153.63  4392.97  4406.94  4412.81  4445.91
                             4482.57  4498.56  4501.05  4536.28  4557.53
                             5331.75

 Zero-point correction=                           0.158131 (Hartree/Particle)
 Thermal correction to Energy=                    0.165891
 Thermal correction to Enthalpy=                  0.166835
 Thermal correction to Gibbs Free Energy=         0.126526
 Sum of electronic and zero-point Energies=           -422.906630
 Sum of electronic and thermal Energies=              -422.898870
 Sum of electronic and thermal Enthalpies=            -422.897926
 Sum of electronic and thermal Free Energies=         -422.938235

                     E (Thermal)             CV                S
                      KCal/Mol        Cal/Mol-Kelvin    Cal/Mol-Kelvin
 Total                  104.098             32.026             84.837
 Electronic               0.000              0.000              0.000
 Translational            0.889              2.981             40.409
 Rotational               0.889              2.981             28.309
 Vibrational            102.321             26.065             16.119
 Vibration     1          0.623              1.886              2.499
 Vibration     2          0.636              1.845              2.168
 Vibration     3          0.659              1.775              1.786
 Vibration     4          0.660              1.770              1.760
 Vibration     5          0.708              1.628              1.292
 Vibration     6          0.754              1.502              1.019
 Vibration     7          0.787              1.417              0.877
 Vibration     8          0.875              1.206              0.610
 Vibration     9          0.930              1.088              0.497

 Optimization completed.
    -- Stationary point found.
 Normal termination of Gaussian 09 at Mon Jan 27 16:46:17 2020.
