 Gaussian 09, Revision D.01,
 Gaussian 09:  ES64L-G09RevD.01 24-Apr-2013

 -----------------------------
 # b3lyp 6-31G(2df,p) opt Freq
 -----------------------------

 -----
 titel
 -----
 Symbolic Z-matrix:
 Charge =  0 Multiplicity = 1

 SCF Done:  E(RB3LYP) =  -423.173367193     A.U. after   14 cycles
 Optimization completed.
    -- Stationary point found.
 Normal termination of Gaussian 09 at Mon Jan 27 18:52:10 2020.

 ----------------------------------------------------------------------
 #N Geom=AllCheck Guess=TCheck SCRF=Check GenChk RB3LYP/6-31G(2df,p) Fr
 eq
 ----------------------------------------------------------------------

 Structure from the checkpoint file:  "/scratch/puck/g09_44cc6592-3ab6-4008-a803-4b562203097e/Gau-64492.chk"
 -----
 titel
 -----
 Charge =  0 Multiplicity = 1

                         Standard orientation:
 ---------------------------------------------------------------------
 Center     Atomic      Atomic             Coordinates (Angstroms)
 Number     Number       Type             X           Y           Z
 ---------------------------------------------------------------------
      1          6           0        1.938582   -0.965119    0.885009
      2          6           0        0.844739   -0.331695    0.048704
      3          8           0        1.407881    0.554944   -0.980120
      4          6           0        0.450244    1.590337   -0.679304
      5          6           0        0.058393    0.870118    0.632166
      6          8           0       -1.275038    0.689147    1.016389
      7          6           0       -2.093070   -0.033557    0.110986
      8          6           0       -1.402327   -1.179634   -0.568497
      9          6           0       -0.080448   -1.330763   -0.583834
     10          1           0        1.504273   -1.520674    1.722785
     11          1           0        2.528065   -1.663781    0.281561
     12          1           0        2.613062   -0.199031    1.277543
     13          1           0        0.921815    2.574156   -0.589679
     14          1           0       -0.354717    1.641782   -1.424583
     15          1           0        0.556689    1.305300    1.501238
     16          1           0       -2.941355   -0.396453    0.703484
     17          1           0       -2.516421    0.643025   -0.652364
     18          1           0       -2.051338   -1.886402   -1.080100
     19          1           0        0.380507   -2.168769   -1.101404
 ---------------------------------------------------------------------

 SCF Done:  E(RB3LYP) =  -423.173367193     A.U. after    1 cycles

 The electronic state is 1-A.
 Alpha  occ. eigenvalues --  -19.14844 -19.12966 -10.23870 -10.23688 -10.23488
 Alpha  occ. eigenvalues --  -10.22378 -10.19239 -10.18515 -10.17718  -1.05127
 Alpha  occ. eigenvalues --   -1.02303  -0.80275  -0.76550  -0.72444  -0.67866
 Alpha  occ. eigenvalues --   -0.62579  -0.60113  -0.51901  -0.50841  -0.48535
 Alpha  occ. eigenvalues --   -0.47660  -0.45133  -0.43246  -0.42010  -0.40381
 Alpha  occ. eigenvalues --   -0.38995  -0.38018  -0.37272  -0.35525  -0.34782
 Alpha  occ. eigenvalues --   -0.29110  -0.26498  -0.25005  -0.24136
 Alpha virt. eigenvalues --    0.00793   0.08535   0.09652   0.10660   0.12282
 Alpha virt. eigenvalues --    0.12328   0.14551   0.15303   0.16521   0.17403
 Alpha virt. eigenvalues --    0.17839   0.18957   0.19956   0.20383   0.22100

 Mulliken charges:
               1
     1  C   -0.459412
     2  C    0.351582
     3  O   -0.323509
     4  C   -0.127662
     5  C    0.037274
     6  O   -0.266089
     7  C   -0.127290
     8  C   -0.088757
     9  C   -0.092932
    10  H    0.126626
    11  H    0.124983
    12  H    0.120592
    13  H    0.106146
    14  H    0.100251
    15  H    0.095075
    16  H    0.121023
    17  H    0.107910
    18  H    0.100001
    19  H    0.094189
 Sum of Mulliken charges =   0.00000

 Dipole moment (field-independent basis, Debye):
    X=             -0.9786    Y=             -0.5751    Z=              0.1508  Tot=              1.1450
 Quadrupole moment (field-independent basis, Debye-Ang):
   XX=            -52.2594   YY=            -50.4305   ZZ=            -55.7977
   XY=              0.7821   XZ=              4.8330   YZ=              0.2302

  Exact polarizability:  90.674   0.514  75.986   3.881   1.222  62.144
 Approx polarizability: 135.491  -0.978 106.287  -0.023   2.407  94.867

                      1                      2                      3
                      A                      A                      A
 Frequencies --    112.2611               181.9943               204.5728
 Red. masses --      2.5923                 3.0882                 1.1723
 Frc consts  --      0.0192                 0.0603                 0.0289
 IR Inten    --      1.6015                 2.6573                 0.6458

                      4                      5                      6
                      A                      A                      A
 Frequencies --    252.3954               274.4165               354.0210
 Red. masses --      2.2571                 2.3676                 3.4605
 Frc consts  --      0.0847                 0.1050                 0.2555
 IR Inten    --      1.5681                 0.6938                 5.3298

                      7                      8                      9
                      A                      A                      A
 Frequencies --    401.9229               478.1276               516.6540
 Red. masses --      3.6596                 2.3607                 4.4191
 Frc consts  --      0.3483                 0.3180                 0.6950
 IR Inten    --      5.4670                12.8360                 3.9499

                     10                     11                     12
                      A                      A                      A
 Frequencies --    559.4175               630.0107               720.5250
 Red. masses --      4.1737                 3.1007                 3.8650
 Frc consts  --      0.7696                 0.7251                 1.1822
 IR Inten    --      0.5735                 0.6861                 3.8860

                     13                     14                     15
                      A                      A                      A
 Frequencies --    738.5240               839.0799               873.9080
 Red. masses --      1.6683                 2.6237                 2.5769
 Frc consts  --      0.5361                 1.0883                 1.1595
 IR Inten    --     11.3950                22.8471                11.5065

                     16                     17                     18
                      A                      A                      A
 Frequencies --    903.5819               925.0153               968.4283
 Red. masses --      2.5525                 2.6993                 1.6945
 Frc consts  --      1.2279                 1.3608                 0.9363
 IR Inten    --      7.6229                 9.2190                 1.8922

                     19                     20                     21
                      A                      A                      A
 Frequencies --    996.6370               998.6352              1036.6521
 Red. masses --      4.6286                 1.3273                 2.0994
 Frc consts  --      2.7088                 0.7799                 1.3293
 IR Inten    --     68.1949                 4.5715                18.3929

                     22                     23                     24
                      A                      A                      A
 Frequencies --   1042.1028              1072.5309              1119.0913
 Red. masses --      2.1102                 2.9904                 2.1348
 Frc consts  --      1.3502                 2.0268                 1.5752
 IR Inten    --     12.4814                 6.4220                10.7766

                     25                     26                     27
                      A                      A                      A
 Frequencies --   1154.7376              1167.6612              1184.6357
 Red. masses --      1.3315                 1.4743                 2.5567
 Frc consts  --      1.0460                 1.1843                 2.1140
 IR Inten    --     22.7399                39.0127                50.5191

                     28                     29                     30
                      A                      A                      A
 Frequencies --   1222.7690              1264.1156              1275.9699
 Red. masses --      2.7163                 1.1751                 1.4812
 Frc consts  --      2.3928                 1.1063                 1.4209
 IR Inten    --     40.5822                 4.4141                11.7868

                     31                     32                     33
                      A                      A                      A
 Frequencies --   1293.9151              1331.7640              1377.3850
 Red. masses --      2.0038                 1.4911                 1.2555
 Frc consts  --      1.9766                 1.5581                 1.4033
 IR Inten    --      4.7417                 9.7190                 2.2728

                     34                     35                     36
                      A                      A                      A
 Frequencies --   1402.1514              1415.8491              1428.0676
 Red. masses --      1.3023                 1.7035                 1.4356
 Frc consts  --      1.5085                 2.0120                 1.7249
 IR Inten    --      8.4439                 6.7500                 8.3327

                     37                     38                     39
                      A                      A                      A
 Frequencies --   1480.7787              1492.2461              1495.3297
 Red. masses --      1.0629                 1.0553                 1.0948
 Frc consts  --      1.3732                 1.3845                 1.4423
 IR Inten    --      3.8706                 3.1800                 4.1694

                     40                     41                     42
                      A                      A                      A
 Frequencies --   1518.9997              1723.5977              2949.4804
 Red. masses --      1.1025                 7.1261                 1.0731
 Frc consts  --      1.4989                12.4731                 5.5000
 IR Inten    --      1.5339                 1.8543                44.2188

                     43                     44                     45
                      A                      A                      A
 Frequencies --   3014.5341              3033.3977              3048.7953
 Red. masses --      1.0607                 1.0348                 1.0867
 Frc consts  --      5.6789                 5.6099                 5.9513
 IR Inten    --     59.9428                13.1277                32.5793

                     46                     47                     48
                      A                      A                      A
 Frequencies --   3070.1856              3091.6013              3104.1094
 Red. masses --      1.1006                 1.0913                 1.1008
 Frc consts  --      6.1124                 6.1456                 6.2491
 IR Inten    --     21.8781                43.0983                17.7865

                     49                     50                     51
                      A                      A                      A
 Frequencies --   3116.4073              3145.7180              3168.2084
 Red. masses --      1.1020                 1.0835                 1.0974
 Frc consts  --      6.3061                 6.3171                 6.4900
 IR Inten    --     22.0344                 7.5037                22.0817

 - Thermochemistry -
 -------------------
 Temperature   298.150 Kelvin.  Pressure   1.00000 Atm.
 Atom     1 has atomic number  6 and mass  12.00000

 Molecular mass:   126.06808 amu.
 Principal axes and moments of inertia in atomic units:
                           1         2         3
     Eigenvalues --   712.484851067.496691266.23653
           X            0.99825  -0.01654   0.05672
           Y            0.01820   0.99941  -0.02898
           Z           -0.05621   0.02996   0.99797
 This molecule is an asymmetric top.
 Rotational symmetry number  1.
 Warning -- assumption of classical behavior for rotation
           may cause significant error
 Rotational temperatures (Kelvin)      0.12157     0.08114     0.06840
 Rotational constants (GHZ):           2.53302     1.69063     1.42528
 Zero-point vibrational energy     419727.2 (Joules/Mol)
                                  100.31722 (Kcal/Mol)
 Warning -- explicit consideration of  10 degrees of freedom as
           vibrations may cause significant error
 Vibrational temperatures:    161.52   261.85   294.33   363.14   394.82
          (Kelvin)            509.36   578.28   687.92   743.35   804.88
                              906.44  1036.67  1062.57  1207.25  1257.36
                             1300.05  1330.89  1393.35  1433.94  1436.81
                             1491.51  1499.35  1543.13  1610.12  1661.41
                             1680.00  1704.42  1759.29  1818.78  1835.83
                             1861.65  1916.11  1981.75  2017.38  2037.09
                             2054.67  2130.51  2147.01  2151.44  2185.50
                             2479.87  4243.64  4337.24  4364.38  4386.53
                             4417.31  4448.12  4466.12  4483.81  4525.98
                             4558.34

 Zero-point correction=                           0.159866 (Hartree/Particle)
 Thermal correction to Energy=                    0.167767
 Thermal correction to Enthalpy=                  0.168711
 Thermal correction to Gibbs Free Energy=         0.127765
 Sum of electronic and zero-point Energies=           -423.013502
 Sum of electronic and thermal Energies=              -423.005601
 Sum of electronic and thermal Enthalpies=            -423.004656
 Sum of electronic and thermal Free Energies=         -423.045603

                     E (Thermal)             CV                S
                      KCal/Mol        Cal/Mol-Kelvin    Cal/Mol-Kelvin
 Total                  105.275             30.993             86.179
 Electronic               0.000              0.000              0.000
 Translational            0.889              2.981             40.409
 Rotational               0.889              2.981             28.356
 Vibrational            103.498             25.031             17.414
 Vibration     1          0.607              1.939              3.229
 Vibration     2          0.630              1.864              2.308
 Vibration     3          0.640              1.833              2.092
 Vibration     4          0.664              1.759              1.714
 Vibration     5          0.677              1.721              1.568
 Vibration     6          0.730              1.567              1.148
 Vibration     7          0.768              1.466              0.956
 Vibration     8          0.835              1.299              0.715
 Vibration     9          0.872              1.213              0.618
 Vibration    10          0.915              1.119              0.525

 Optimization completed.
    -- Stationary point found.
 Normal termination of Gaussian 09 at Mon Jan 27 19:37:08 2020.
