 Gaussian 09, Revision D.01,
 Gaussian 09:  ES64L-G09RevD.01 24-Apr-2013

 -----------------------------
 # b3lyp 6-31G(2df,p) opt Freq
 -----------------------------

 -----
 titel
 -----
 Symbolic Z-matrix:
 Charge =  0 Multiplicity = 1

 SCF Done:  E(RB3LYP) =  -423.172585532     A.U. after   14 cycles
 Optimization completed.
    -- Stationary point found.
 Normal termination of Gaussian 09 at Mon Jan 27 22:03:46 2020.

 ----------------------------------------------------------------------
 #N Geom=AllCheck Guess=TCheck SCRF=Check GenChk RB3LYP/6-31G(2df,p) Fr
 eq
 ----------------------------------------------------------------------

 Structure from the checkpoint file:  "/scratch/puck/g09_32238b24-5cce-48e1-94e0-e3334a2f8fd0/Gau-181015.chk"
 -----
 titel
 -----
 Charge =  0 Multiplicity = 1

                         Standard orientation:
 ---------------------------------------------------------------------
 Center     Atomic      Atomic             Coordinates (Angstroms)
 Number     Number       Type             X           Y           Z
 ---------------------------------------------------------------------
      1          6           0        2.638162   -0.098417    0.051159
      2          6           0        1.182853    0.268629    0.106034
      3          6           0        0.687656    1.426456   -0.333775
      4          6           0       -0.770888    1.781633   -0.321719
      5          8           0       -1.571063    0.973838    0.527602
      6          6           0       -1.241140   -0.382604    0.569361
      7          6           0       -1.288320   -1.284776   -0.690100
      8          8           0        0.008634   -1.831059   -0.363785
      9          6           0        0.247307   -0.784570    0.629079
     10          1           0        3.034700   -0.295208    1.055438
     11          1           0        2.773917   -1.019112   -0.528506
     12          1           0        3.239376    0.691936   -0.406087
     13          1           0        1.347663    2.178291   -0.762615
     14          1           0       -0.910128    2.809322    0.034068
     15          1           0       -1.163553    1.756686   -1.353864
     16          1           0       -1.823663   -0.803270    1.391108
     17          1           0       -2.063497   -2.057100   -0.723637
     18          1           0       -1.281258   -0.736360   -1.641413
     19          1           0        0.612094   -1.225523    1.564726
 ---------------------------------------------------------------------

 SCF Done:  E(RB3LYP) =  -423.172585532     A.U. after    1 cycles

 The electronic state is 1-A.
 Alpha  occ. eigenvalues --  -19.14782 -19.13320 -10.23695 -10.23674 -10.23110
 Alpha  occ. eigenvalues --  -10.22571 -10.19135 -10.18572 -10.18114  -1.05189
 Alpha  occ. eigenvalues --   -1.02433  -0.81238  -0.75484  -0.71321  -0.68834
 Alpha  occ. eigenvalues --   -0.63604  -0.59402  -0.51982  -0.50842  -0.48554
 Alpha  occ. eigenvalues --   -0.47637  -0.44914  -0.43074  -0.41690  -0.40719
 Alpha  occ. eigenvalues --   -0.39358  -0.38857  -0.36458  -0.35648  -0.35272
 Alpha  occ. eigenvalues --   -0.29187  -0.25696  -0.24999  -0.24154
 Alpha virt. eigenvalues --    0.01188   0.08464   0.09193   0.10535   0.11656
 Alpha virt. eigenvalues --    0.12752   0.14346   0.15695   0.16790   0.17297
 Alpha virt. eigenvalues --    0.17961   0.18528   0.19466   0.20426   0.24070

 Mulliken charges:
               1
     1  C   -0.486218
     2  C    0.319500
     3  C   -0.170963
     4  C   -0.129292
     5  O   -0.261729
     6  C    0.082323
     7  C   -0.126660
     8  O   -0.291951
     9  C   -0.023546
    10  H    0.124018
    11  H    0.144261
    12  H    0.118919
    13  H    0.090209
    14  H    0.120007
    15  H    0.105841
    16  H    0.099810
    17  H    0.107264
    18  H    0.102519
    19  H    0.075691
 Sum of Mulliken charges =   0.00000

 Dipole moment (field-independent basis, Debye):
    X=              0.3396    Y=              0.9859    Z=             -0.1354  Tot=              1.0515
 Quadrupole moment (field-independent basis, Debye-Ang):
   XX=            -52.2415   YY=            -54.3084   ZZ=            -52.4449
   XY=              3.1302   XZ=              1.7523   YZ=             -3.4117

  Exact polarizability:  83.239  -1.304  84.714   3.564  -6.916  62.628
 Approx polarizability: 111.322  -9.063 130.211   5.564 -12.076  97.534

                      1                      2                      3
                      A                      A                      A
 Frequencies --     87.4035               163.8278               197.8035
 Red. masses --      3.0735                 2.3356                 1.2031
 Frc consts  --      0.0138                 0.0369                 0.0277
 IR Inten    --      1.1591                 0.8592                 1.8794

                      4                      5                      6
                      A                      A                      A
 Frequencies --    223.7206               272.0914               326.2432
 Red. masses --      3.2599                 2.1041                 2.9503
 Frc consts  --      0.0961                 0.0918                 0.1850
 IR Inten    --      6.4669                 1.2905                 1.2418

                      7                      8                      9
                      A                      A                      A
 Frequencies --    385.0280               463.3666               553.1082
 Red. masses --      3.8839                 3.8475                 5.2449
 Frc consts  --      0.3392                 0.4867                 0.9454
 IR Inten    --      8.9960                 2.9305                 1.1776

                     10                     11                     12
                      A                      A                      A
 Frequencies --    574.5734               708.4117               745.4282
 Red. masses --      3.8216                 3.4803                 4.4151
 Frc consts  --      0.7433                 1.0290                 1.4455
 IR Inten    --      3.3001                 1.2546                 8.0513

                     13                     14                     15
                      A                      A                      A
 Frequencies --    803.6752               863.1760               878.6076
 Red. masses --      1.4069                 1.9190                 2.7318
 Frc consts  --      0.5354                 0.8424                 1.2425
 IR Inten    --      0.9962                 2.6920                18.0089

                     16                     17                     18
                      A                      A                      A
 Frequencies --    903.9732               975.8906               991.9365
 Red. masses --      2.3438                 4.3619                 3.8032
 Frc consts  --      1.1284                 2.4475                 2.2048
 IR Inten    --      7.6926                40.9554                52.7390

                     19                     20                     21
                      A                      A                      A
 Frequencies --   1014.0269              1038.3964              1040.9372
 Red. masses --      2.7083                 1.9133                 1.7946
 Frc consts  --      1.6408                 1.2155                 1.1457
 IR Inten    --     15.9000                 6.2076                 4.5831

                     22                     23                     24
                      A                      A                      A
 Frequencies --   1065.9654              1074.4968              1101.1027
 Red. masses --      1.6974                 2.5202                 2.2540
 Frc consts  --      1.1364                 1.7144                 1.6101
 IR Inten    --      0.8995                11.3120                16.7486

                     25                     26                     27
                      A                      A                      A
 Frequencies --   1153.2412              1190.1433              1215.9347
 Red. masses --      1.1914                 2.2613                 4.6643
 Frc consts  --      0.9336                 1.8872                 4.0631
 IR Inten    --      2.4701                 1.6094               115.3586

                     28                     29                     30
                      A                      A                      A
 Frequencies --   1257.3712              1269.5232              1272.6109
 Red. masses --      1.2431                 1.3323                 1.3100
 Frc consts  --      1.1579                 1.2651                 1.2500
 IR Inten    --      3.9053                 7.8589                 0.3542

                     31                     32                     33
                      A                      A                      A
 Frequencies --   1328.2192              1332.9388              1380.4436
 Red. masses --      1.3009                 1.3880                 1.2898
 Frc consts  --      1.3521                 1.4530                 1.4481
 IR Inten    --      2.6345                 2.2096                 3.2557

                     34                     35                     36
                      A                      A                      A
 Frequencies --   1393.5044              1408.2382              1428.2658
 Red. masses --      1.9736                 1.3024                 1.4543
 Frc consts  --      2.2580                 1.5217                 1.7479
 IR Inten    --      7.5204                 1.2842                21.8158

                     37                     38                     39
                      A                      A                      A
 Frequencies --   1476.4464              1493.3224              1495.9944
 Red. masses --      1.0469                 1.0597                 1.0914
 Frc consts  --      1.3446                 1.3923                 1.4391
 IR Inten    --      6.1092                 7.1010                 3.3977

                     40                     41                     42
                      A                      A                      A
 Frequencies --   1516.7617              1745.5704              2945.5317
 Red. masses --      1.0987                 7.1704                 1.0732
 Frc consts  --      1.4892                12.8727                 5.4863
 IR Inten    --      1.6441                 1.8963                47.3253

                     43                     44                     45
                      A                      A                      A
 Frequencies --   3014.6424              3020.0819              3031.1768
 Red. masses --      1.0604                 1.0400                 1.0831
 Frc consts  --      5.6779                 5.5886                 5.8630
 IR Inten    --     63.4953                21.8463                38.4057

                     46                     47                     48
                      A                      A                      A
 Frequencies --   3048.9177              3072.0641              3074.1126
 Red. masses --      1.0865                 1.1026                 1.0974
 Frc consts  --      5.9510                 6.1308                 6.1100
 IR Inten    --     34.5795                26.6730                14.4641

                     49                     50                     51
                      A                      A                      A
 Frequencies --   3098.8165              3113.6152              3144.8391
 Red. masses --      1.0903                 1.1007                 1.0894
 Frc consts  --      6.1687                 6.2873                 6.3478
 IR Inten    --     51.1674                18.0910                19.1927

 - Thermochemistry -
 -------------------
 Temperature   298.150 Kelvin.  Pressure   1.00000 Atm.
 Atom     1 has atomic number  6 and mass  12.00000

 Molecular mass:   126.06808 amu.
 Principal axes and moments of inertia in atomic units:
                           1         2         3
     Eigenvalues --   788.38867 958.132611495.43150
           X            0.99810   0.05998   0.01420
           Y           -0.05956   0.99782  -0.02836
           Z           -0.01587   0.02746   0.99950
 This molecule is an asymmetric top.
 Rotational symmetry number  1.
 Warning -- assumption of classical behavior for rotation
           may cause significant error
 Rotational temperatures (Kelvin)      0.10986     0.09040     0.05792
 Rotational constants (GHZ):           2.28915     1.88360     1.20684
 Zero-point vibrational energy     420939.1 (Joules/Mol)
                                  100.60685 (Kcal/Mol)
 Warning -- explicit consideration of  10 degrees of freedom as
           vibrations may cause significant error
 Vibrational temperatures:    125.75   235.71   284.59   321.88   391.48
          (Kelvin)            469.39   553.97   666.68   795.80   826.68
                             1019.25  1072.50  1156.31  1241.92  1264.12
                             1300.61  1404.09  1427.17  1458.96  1494.02
                             1497.67  1533.68  1545.96  1584.24  1659.25
                             1712.35  1749.46  1809.07  1826.56  1831.00
                             1911.01  1917.80  1986.15  2004.94  2026.14
                             2054.95  2124.27  2148.56  2152.40  2182.28
                             2511.48  4237.96  4337.39  4345.22  4361.18
                             4386.71  4420.01  4422.96  4458.50  4479.79
                             4524.72

 Zero-point correction=                           0.160327 (Hartree/Particle)
 Thermal correction to Energy=                    0.168287
 Thermal correction to Enthalpy=                  0.169231
 Thermal correction to Gibbs Free Energy=         0.127821
 Sum of electronic and zero-point Energies=           -423.012258
 Sum of electronic and thermal Energies=              -423.004298
 Sum of electronic and thermal Enthalpies=            -423.003354
 Sum of electronic and thermal Free Energies=         -423.044764

                     E (Thermal)             CV                S
                      KCal/Mol        Cal/Mol-Kelvin    Cal/Mol-Kelvin
 Total                  105.602             30.515             87.155
 Electronic               0.000              0.000              0.000
 Translational            0.889              2.981             40.409
 Rotational               0.889              2.981             28.515
 Vibrational            103.824             24.553             18.232
 Vibration     1          0.601              1.958              3.717
 Vibration     2          0.623              1.887              2.505
 Vibration     3          0.637              1.843              2.153
 Vibration     4          0.649              1.805              1.929
 Vibration     5          0.675              1.725              1.583
 Vibration     6          0.710              1.623              1.279
 Vibration     7          0.754              1.502              1.019
 Vibration     8          0.821              1.331              0.756
 Vibration     9          0.908              1.133              0.538
 Vibration    10          0.931              1.086              0.496

 Normal termination of Gaussian 09 at Mon Jan 27 22:49:41 2020.
