 Gaussian 09, Revision D.01,
 Gaussian 09:  ES64L-G09RevD.01 24-Apr-2013

 -----------------------------
 # b3lyp 6-31G(2df,p) opt Freq
 -----------------------------

 -----
 titel
 -----
 Symbolic Z-matrix:
 Charge =  0 Multiplicity = 1

 SCF Done:  E(RB3LYP) =  -423.113540253     A.U. after   14 cycles
 Optimization completed.
    -- Stationary point found.
 Normal termination of Gaussian 09 at Mon Jan 27 23:04:25 2020.

 ----------------------------------------------------------------------
 #N Geom=AllCheck Guess=TCheck SCRF=Check GenChk RB3LYP/6-31G(2df,p) Fr
 eq
 ----------------------------------------------------------------------

 Structure from the checkpoint file:  "/scratch/puck/g09_5103d495-1ce2-413d-8bd0-2493aded158a/Gau-29545.chk"
 -----
 titel
 -----
 Charge =  0 Multiplicity = 1

                         Standard orientation:
 ---------------------------------------------------------------------
 Center     Atomic      Atomic             Coordinates (Angstroms)
 Number     Number       Type             X           Y           Z
 ---------------------------------------------------------------------
      1          8           0       -1.649104    1.636201   -0.091721
      2          6           0       -1.686419    0.232247   -0.009608
      3          6           0       -0.722652   -0.526046   -0.950196
      4          6           0       -0.920510   -1.747969    0.000450
      5          6           0       -0.725082   -0.532390    0.956464
      6          6           0        0.426244   -0.102526    0.008225
      7          6           0        1.199895    1.224283    0.009847
      8          6           0        2.452574    0.331144   -0.006198
      9          8           0        1.643126   -0.865427    0.007384
     10          1           0       -2.178171    1.992950    0.628277
     11          1           0       -2.717233   -0.144811   -0.012967
     12          1           0       -0.722560   -0.518915   -2.040547
     13          1           0       -1.910890   -2.211098   -0.004236
     14          1           0       -0.121347   -2.486254   -0.001176
     15          1           0       -0.728526   -0.534078    2.047797
     16          1           0        1.044193    1.850100   -0.868686
     17          1           0        1.064643    1.832818    0.904655
     18          1           0        3.072857    0.389603   -0.908489
     19          1           0        3.100555    0.391037    0.876171
 ---------------------------------------------------------------------

 SCF Done:  E(RB3LYP) =  -423.113540253     A.U. after    1 cycles

 The electronic state is 1-A.
 Alpha  occ. eigenvalues --  -19.14184 -19.12568 -10.23823 -10.23693 -10.22282
 Alpha  occ. eigenvalues --  -10.19200 -10.19118 -10.18551 -10.17787  -1.03636
 Alpha  occ. eigenvalues --   -1.02516  -0.89833  -0.73462  -0.66725  -0.64971
 Alpha  occ. eigenvalues --   -0.63023  -0.58572  -0.52111  -0.49859  -0.49679
 Alpha  occ. eigenvalues --   -0.47400  -0.47017  -0.42209  -0.40003  -0.38880
 Alpha  occ. eigenvalues --   -0.37202  -0.34955  -0.34459  -0.32540  -0.31644
 Alpha  occ. eigenvalues --   -0.29557  -0.29058  -0.26355  -0.23351
 Alpha virt. eigenvalues --    0.07401   0.10203   0.11271   0.12200   0.12650
 Alpha virt. eigenvalues --    0.14347   0.14700   0.15621   0.16563   0.16981
 Alpha virt. eigenvalues --    0.17876   0.19002   0.19406   0.20073   0.21690

 Mulliken charges:
               1
     1  O   -0.440425
     2  C    0.147070
     3  C   -0.160659
     4  C   -0.248870
     5  C   -0.192803
     6  C    0.552627
     7  C   -0.364242
     8  C   -0.095491
     9  O   -0.336902
    10  H    0.284422
    11  H    0.068167
    12  H    0.073776
    13  H    0.088559
    14  H    0.128832
    15  H    0.066690
    16  H    0.120370
    17  H    0.107609
    18  H    0.101170
    19  H    0.100100
 Sum of Mulliken charges =   0.00000

 Dipole moment (field-independent basis, Debye):
    X=             -1.0931    Y=              1.1244    Z=              1.0123  Tot=              1.8665
 Quadrupole moment (field-independent basis, Debye-Ang):
   XX=            -49.3856   YY=            -54.4708   ZZ=            -51.3710
   XY=              2.1235   XZ=             -2.6955   YZ=              2.6017

  Exact polarizability:  85.962   3.664  74.670  -0.981   1.037  66.243
 Approx polarizability: 112.974   1.143 109.680  -1.395   0.713 103.980

                      1                      2                      3
                      A                      A                      A
 Frequencies --     90.1841               191.3092               198.7821
 Red. masses --      2.2119                 4.6236                 3.0853
 Frc consts  --      0.0106                 0.0997                 0.0718
 IR Inten    --      2.1716                 2.7601                 2.3503

                      4                      5                      6
                      A                      A                      A
 Frequencies --    258.1484               334.7427               376.1675
 Red. masses --      1.0989                 4.4705                 3.1596
 Frc consts  --      0.0431                 0.2951                 0.2634
 IR Inten    --    105.2706                 1.2654                 3.4853

                      7                      8                      9
                      A                      A                      A
 Frequencies --    389.4159               468.9945               561.0438
 Red. masses --      2.9301                 3.9000                 3.1089
 Frc consts  --      0.2618                 0.5054                 0.5766
 IR Inten    --      1.9327                 1.5871                 0.2925

                     10                     11                     12
                      A                      A                      A
 Frequencies --    648.5644               763.4428               788.5002
 Red. masses --      5.1228                 1.6104                 2.2253
 Frc consts  --      1.2696                 0.5530                 0.8152
 IR Inten    --     16.5204                 0.4967                 0.4346

                     13                     14                     15
                      A                      A                      A
 Frequencies --    817.5960               872.9819               879.7098
 Red. masses --      1.8899                 4.5823                 2.5093
 Frc consts  --      0.7443                 2.0575                 1.1441
 IR Inten    --      0.6523                35.0200                13.6042

                     16                     17                     18
                      A                      A                      A
 Frequencies --    894.4335               902.7504               974.9786
 Red. masses --      2.1044                 1.9050                 2.6186
 Frc consts  --      0.9919                 0.9147                 1.4666
 IR Inten    --      1.8879                 4.9940                 1.4199

                     19                     20                     21
                      A                      A                      A
 Frequencies --   1007.8702              1016.3684              1029.8499
 Red. masses --      2.0554                 1.0716                 3.1394
 Frc consts  --      1.2301                 0.6522                 1.9617
 IR Inten    --     43.8416                 1.9174                97.9072

                     22                     23                     24
                      A                      A                      A
 Frequencies --   1068.5378              1072.4037              1093.5356
 Red. masses --      1.7085                 2.4688                 1.4484
 Frc consts  --      1.1494                 1.6728                 1.0205
 IR Inten    --     10.8453                 7.7139                 2.0080

                     25                     26                     27
                      A                      A                      A
 Frequencies --   1114.2752              1147.2596              1150.6549
 Red. masses --      4.3859                 1.8041                 3.2084
 Frc consts  --      3.2084                 1.3990                 2.5029
 IR Inten    --     45.8988                 8.3335                43.3890

                     28                     29                     30
                      A                      A                      A
 Frequencies --   1167.5519              1195.5325              1197.5673
 Red. masses --      1.1727                 1.4888                 2.0392
 Frc consts  --      0.9419                 1.2538                 1.7231
 IR Inten    --      0.3541                14.5064                18.2061

                     31                     32                     33
                      A                      A                      A
 Frequencies --   1211.7228              1226.0973              1245.6041
 Red. masses --      1.2708                 1.4358                 1.6493
 Frc consts  --      1.0993                 1.2718                 1.5077
 IR Inten    --      3.4909                40.9781                 7.2489

                     34                     35                     36
                      A                      A                      A
 Frequencies --   1256.3605              1304.7414              1330.8896
 Red. masses --      1.7038                 1.6421                 2.2473
 Frc consts  --      1.5845                 1.6470                 2.3453
 IR Inten    --     20.9132                31.6358                61.2816

                     37                     38                     39
                      A                      A                      A
 Frequencies --   1353.9232              1438.3223              1484.6788
 Red. masses --      1.5427                 1.3043                 1.1104
 Frc consts  --      1.6661                 1.5897                 1.4421
 IR Inten    --     11.4493                 6.5540                 4.1367

                     40                     41                     42
                      A                      A                      A
 Frequencies --   1514.5006              1532.5614              3018.8805
 Red. masses --      1.1273                 1.1193                 1.0745
 Frc consts  --      1.5234                 1.5490                 5.7696
 IR Inten    --      5.0373                 0.6512               148.5583

                     43                     44                     45
                      A                      A                      A
 Frequencies --   3019.8949              3059.6224              3066.1954
 Red. masses --      1.0649                 1.1116                 1.0610
 Frc consts  --      5.7218                 6.1309                 5.8773
 IR Inten    --     13.1324                35.8225                51.7726

                     46                     47                     48
                      A                      A                      A
 Frequencies --   3092.3292              3100.4872              3114.2000
 Red. masses --      1.0609                 1.0910                 1.0932
 Frc consts  --      5.9771                 6.1793                 6.2465
 IR Inten    --     17.9511                70.3325                26.5855

                     49                     50                     51
                      A                      A                      A
 Frequencies --   3145.8313              3164.4685              3823.2968
 Red. masses --      1.1078                 1.1038                 1.0662
 Frc consts  --      6.4595                 6.5124                 9.1824
 IR Inten    --     15.6471                12.4603                30.0454

 - Thermochemistry -
 -------------------
 Temperature   298.150 Kelvin.  Pressure   1.00000 Atm.
 Atom     1 has atomic number  8 and mass  15.99491

 Molecular mass:   126.06808 amu.
 Principal axes and moments of inertia in atomic units:
                           1         2         3
     Eigenvalues --   623.738551099.868051481.21474
           X            0.99837   0.05687  -0.00527
           Y           -0.05681   0.99832   0.01141
           Z            0.00591  -0.01109   0.99992
 This molecule is an asymmetric top.
 Rotational symmetry number  1.
 Warning -- assumption of classical behavior for rotation
           may cause significant error
 Rotational temperatures (Kelvin)      0.13886     0.07875     0.05847
 Rotational constants (GHZ):           2.89343     1.64087     1.21842
 Zero-point vibrational energy     419756.2 (Joules/Mol)
                                  100.32414 (Kcal/Mol)
 Warning -- explicit consideration of   9 degrees of freedom as
           vibrations may cause significant error
 Vibrational temperatures:    129.75   275.25   286.00   371.42   481.62
          (Kelvin)            541.22   560.28   674.78   807.22   933.14
                             1098.42  1134.47  1176.34  1256.02  1265.70
                             1286.89  1298.85  1402.78  1450.10  1462.33
                             1481.72  1537.39  1542.95  1573.35  1603.19
                             1650.65  1655.53  1679.84  1720.10  1723.03
                             1743.40  1764.08  1792.14  1807.62  1877.23
                             1914.85  1947.99  2069.42  2136.12  2179.03
                             2205.01  4343.49  4344.95  4402.11  4411.57
                             4449.17  4460.90  4480.63  4526.14  4552.96
                             5500.86

 Zero-point correction=                           0.159877 (Hartree/Particle)
 Thermal correction to Energy=                    0.167596
 Thermal correction to Enthalpy=                  0.168540
 Thermal correction to Gibbs Free Energy=         0.127773
 Sum of electronic and zero-point Energies=           -422.953664
 Sum of electronic and thermal Energies=              -422.945944
 Sum of electronic and thermal Enthalpies=            -422.945000
 Sum of electronic and thermal Free Energies=         -422.985767

                     E (Thermal)             CV                S
                      KCal/Mol        Cal/Mol-Kelvin    Cal/Mol-Kelvin
 Total                  105.168             30.636             85.801
 Electronic               0.000              0.000              0.000
 Translational            0.889              2.981             40.409
 Rotational               0.889              2.981             28.410
 Vibrational            103.391             24.675             16.983
 Vibration     1          0.602              1.956              3.656
 Vibration     2          0.634              1.852              2.215
 Vibration     3          0.637              1.842              2.144
 Vibration     4          0.667              1.749              1.674
 Vibration     5          0.716              1.606              1.237
 Vibration     6          0.747              1.521              1.055
 Vibration     7          0.757              1.493              1.002
 Vibration     8          0.826              1.319              0.740
 Vibration     9          0.917              1.116              0.522

 Optimization completed.
    -- Stationary point found.
 Normal termination of Gaussian 09 at Mon Jan 27 23:52:47 2020.
