 Gaussian 09, Revision D.01,
 Gaussian 09:  ES64L-G09RevD.01 24-Apr-2013

 -----------------------------
 # b3lyp 6-31G(2df,p) opt Freq
 -----------------------------

 -----
 titel
 -----
 Symbolic Z-matrix:
 Charge =  0 Multiplicity = 1

 SCF Done:  E(RB3LYP) =  -423.176464534     A.U. after   14 cycles
 Optimization completed.
    -- Stationary point found.
 Normal termination of Gaussian 09 at Mon Jan 27 18:11:07 2020.

 ----------------------------------------------------------------------
 #N Geom=AllCheck Guess=TCheck SCRF=Check GenChk RB3LYP/6-31G(2df,p) Fr
 eq
 ----------------------------------------------------------------------

 Structure from the checkpoint file:  "/scratch/puck/g09_e509c77b-e8bf-47ce-beac-f2f599ae56b7/Gau-181820.chk"
 -----
 titel
 -----
 Charge =  0 Multiplicity = 1

                         Standard orientation:
 ---------------------------------------------------------------------
 Center     Atomic      Atomic             Coordinates (Angstroms)
 Number     Number       Type             X           Y           Z
 ---------------------------------------------------------------------
      1          6           0       -2.351445   -0.765788    0.251140
      2          6           0       -1.014553   -0.103044    0.094301
      3          6           0       -0.176645    0.278462    1.335568
      4          6           0        1.058502    0.831710    0.566820
      5          6           0        2.010414   -0.341065    0.325327
      6          8           0        1.206196   -1.288154   -0.412111
      7          6           0        0.112610   -0.560659   -0.913283
      8          6           0        0.365699    0.950498   -0.836926
      9          8           0       -1.038012    1.183562   -0.613380
     10          1           0       -3.013140   -0.162069    0.881485
     11          1           0       -2.834269   -0.904259   -0.720388
     12          1           0       -2.231736   -1.746249    0.723141
     13          1           0       -0.700271    1.039535    1.918251
     14          1           0        0.069518   -0.569383    1.980355
     15          1           0        1.522858    1.729742    0.972091
     16          1           0        2.890117   -0.058706   -0.271970
     17          1           0        2.356418   -0.816448    1.248347
     18          1           0       -0.250794   -0.980244   -1.850708
     19          1           0        0.818341    1.564126   -1.614358
 ---------------------------------------------------------------------

 SCF Done:  E(RB3LYP) =  -423.176464534     A.U. after    1 cycles

 The electronic state is 1-A.
 Alpha  occ. eigenvalues --  -19.14137 -19.13337 -10.23708 -10.23226 -10.23084
 Alpha  occ. eigenvalues --  -10.23061 -10.19374 -10.18275 -10.18015  -1.06345
 Alpha  occ. eigenvalues --   -1.02422  -0.79946  -0.76203  -0.72531  -0.68226
 Alpha  occ. eigenvalues --   -0.61880  -0.56776  -0.55097  -0.50423  -0.48155
 Alpha  occ. eigenvalues --   -0.47215  -0.45670  -0.42738  -0.40712  -0.39940
 Alpha  occ. eigenvalues --   -0.38423  -0.37057  -0.34996  -0.34453  -0.33709
 Alpha  occ. eigenvalues --   -0.33030  -0.30863  -0.24341  -0.24189
 Alpha virt. eigenvalues --    0.08463   0.09969   0.10582   0.11952   0.13078
 Alpha virt. eigenvalues --    0.13573   0.14769   0.15625   0.15937   0.17420
 Alpha virt. eigenvalues --    0.17949   0.18661   0.19476   0.20284   0.21498

 Mulliken charges:
               1
     1  C   -0.511036
     2  C    0.383665
     3  C   -0.246866
     4  C   -0.095646
     5  C   -0.085950
     6  O   -0.278437
     7  C    0.063756
     8  C    0.056130
     9  O   -0.331763
    10  H    0.128468
    11  H    0.127660
    12  H    0.128612
    13  H    0.105285
    14  H    0.102272
    15  H    0.074697
    16  H    0.095614
    17  H    0.110666
    18  H    0.089528
    19  H    0.083345
 Sum of Mulliken charges =   0.00000

 Dipole moment (field-independent basis, Debye):
    X=              0.6286    Y=              0.1172    Z=              0.8052  Tot=              1.0282
 Quadrupole moment (field-independent basis, Debye-Ang):
   XX=            -51.6728   YY=            -56.5276   ZZ=            -51.1804
   XY=              5.1960   XZ=             -0.2978   YZ=              0.0183

  Exact polarizability:  83.399   3.800  66.088   0.037  -0.633  70.513
 Approx polarizability: 112.886   0.734 104.505   1.165  -2.320 105.301

                      1                      2                      3
                      A                      A                      A
 Frequencies --    190.6184               214.2041               246.1194
 Red. masses --      1.1860                 2.0408                 2.8363
 Frc consts  --      0.0254                 0.0552                 0.1012
 IR Inten    --      0.3280                 1.1120                 2.9687

                      4                      5                      6
                      A                      A                      A
 Frequencies --    303.7754               395.6743               457.1190
 Red. masses --      2.6128                 2.1044                 2.8058
 Frc consts  --      0.1421                 0.1941                 0.3454
 IR Inten    --      0.5544                 0.8017                 6.4688

                      7                      8                      9
                      A                      A                      A
 Frequencies --    519.5012               563.7027               642.9016
 Red. masses --      4.1164                 4.1567                 4.4696
 Frc consts  --      0.6545                 0.7782                 1.0885
 IR Inten    --      7.8998                 0.5292                 0.5514

                     10                     11                     12
                      A                      A                      A
 Frequencies --    710.3509               779.7870               817.4031
 Red. masses --      4.3380                 4.2353                 3.7157
 Frc consts  --      1.2897                 1.5173                 1.4627
 IR Inten    --      4.6532                 3.3407                23.2744

                     13                     14                     15
                      A                      A                      A
 Frequencies --    839.9687               869.9122               873.8997
 Red. masses --      3.9631                 2.2730                 2.5197
 Frc consts  --      1.6475                 1.0135                 1.1338
 IR Inten    --      6.0882                 5.1864                 1.2859

                     16                     17                     18
                      A                      A                      A
 Frequencies --    908.6930               930.9084               950.1966
 Red. masses --      1.9747                 2.5527                 2.1517
 Frc consts  --      0.9607                 1.3034                 1.1446
 IR Inten    --      5.8734                10.6137                22.2765

                     19                     20                     21
                      A                      A                      A
 Frequencies --    970.1690               994.9275              1016.8435
 Red. masses --      1.6442                 2.3126                 2.3838
 Frc consts  --      0.9118                 1.3488                 1.4522
 IR Inten    --      5.9406                10.3005                12.5651

                     22                     23                     24
                      A                      A                      A
 Frequencies --   1051.3899              1088.5726              1121.1574
 Red. masses --      1.4353                 2.2231                 2.7366
 Frc consts  --      0.9348                 1.5521                 2.0267
 IR Inten    --      2.6499                31.0291               118.6367

                     25                     26                     27
                      A                      A                      A
 Frequencies --   1136.3738              1161.8512              1195.7561
 Red. masses --      1.8992                 2.1138                 1.5533
 Frc consts  --      1.4450                 1.6812                 1.3085
 IR Inten    --      1.4383                12.4906                 2.5744

                     28                     29                     30
                      A                      A                      A
 Frequencies --   1204.5285              1214.9038              1244.3197
 Red. masses --      1.3639                 1.3118                 1.9487
 Frc consts  --      1.1659                 1.1408                 1.7777
 IR Inten    --      0.1850                 0.2023                 9.3582

                     31                     32                     33
                      A                      A                      A
 Frequencies --   1272.4211              1277.2424              1313.2456
 Red. masses --      1.5118                 1.5279                 1.6437
 Frc consts  --      1.4421                 1.4686                 1.6702
 IR Inten    --      9.8480                 9.8685                 6.1517

                     34                     35                     36
                      A                      A                      A
 Frequencies --   1317.5459              1363.1635              1392.8294
 Red. masses --      1.7706                 1.8011                 1.4520
 Frc consts  --      1.8109                 1.9719                 1.6596
 IR Inten    --      4.7514                 5.5931                 7.2205

                     37                     38                     39
                      A                      A                      A
 Frequencies --   1414.2099              1477.6968              1482.6547
 Red. masses --      1.6290                 1.0786                 1.0903
 Frc consts  --      1.9196                 1.3876                 1.4121
 IR Inten    --     13.1665                 0.3128                 6.4752

                     40                     41                     42
                      A                      A                      A
 Frequencies --   1492.9805              1524.2264              2994.4492
 Red. masses --      1.0497                 1.0954                 1.0687
 Frc consts  --      1.3786                 1.4994                 5.6460
 IR Inten    --      4.6084                 0.6371                78.5843

                     43                     44                     45
                      A                      A                      A
 Frequencies --   3035.8978              3064.4114              3075.5033
 Red. masses --      1.0354                 1.0592                 1.0951
 Frc consts  --      5.6224                 5.8606                 6.1031
 IR Inten    --     16.6789                18.6339                37.6477

                     46                     47                     48
                      A                      A                      A
 Frequencies --   3104.8053              3115.2706              3117.5707
 Red. masses --      1.1007                 1.1018                 1.1033
 Frc consts  --      6.2517                 6.3002                 6.3181
 IR Inten    --     11.2844                 8.6289                19.9222

                     49                     50                     51
                      A                      A                      A
 Frequencies --   3125.2372              3128.0276              3139.3546
 Red. masses --      1.0925                 1.0881                 1.0940
 Frc consts  --      6.2871                 6.2727                 6.3528
 IR Inten    --     11.0024                47.0930                34.9446

 - Thermochemistry -
 -------------------
 Temperature   298.150 Kelvin.  Pressure   1.00000 Atm.
 Atom     1 has atomic number  6 and mass  12.00000

 Molecular mass:   126.06808 amu.
 Principal axes and moments of inertia in atomic units:
                           1         2         3
     Eigenvalues --   592.516971058.002741131.81148
           X            0.99801   0.06287  -0.00450
           Y           -0.06287   0.99802   0.00086
           Z            0.00454  -0.00057   0.99999
 This molecule is an asymmetric top.
 Rotational symmetry number  1.
 Warning -- assumption of classical behavior for rotation
           may cause significant error
 Rotational temperatures (Kelvin)      0.14618     0.08187     0.07653
 Rotational constants (GHZ):           3.04589     1.70580     1.59456
 Zero-point vibrational energy     423742.8 (Joules/Mol)
                                  101.27697 (Kcal/Mol)
 Warning -- explicit consideration of   8 degrees of freedom as
           vibrations may cause significant error
 Vibrational temperatures:    274.26   308.19   354.11   437.06   569.29
          (Kelvin)            657.69   747.45   811.04   924.99  1022.04
                             1121.94  1176.06  1208.53  1251.61  1257.35
                             1307.40  1339.37  1367.12  1395.86  1431.48
                             1463.01  1512.71  1566.21  1613.09  1634.99
                             1671.64  1720.42  1733.05  1747.97  1790.30
                             1830.73  1837.66  1889.47  1895.65  1961.29
                             2003.97  2034.73  2126.07  2133.21  2148.06
                             2193.02  4308.34  4367.97  4409.00  4424.96
                             4467.12  4482.17  4485.48  4496.51  4500.53
                             4516.83

 Zero-point correction=                           0.161395 (Hartree/Particle)
 Thermal correction to Energy=                    0.168335
 Thermal correction to Enthalpy=                  0.169280
 Thermal correction to Gibbs Free Energy=         0.130488
 Sum of electronic and zero-point Energies=           -423.015069
 Sum of electronic and thermal Energies=              -423.008129
 Sum of electronic and thermal Enthalpies=            -423.007185
 Sum of electronic and thermal Free Energies=         -423.045976

                     E (Thermal)             CV                S
                      KCal/Mol        Cal/Mol-Kelvin    Cal/Mol-Kelvin
 Total                  105.632             28.852             81.643
 Electronic               0.000              0.000              0.000
 Translational            0.889              2.981             40.409
 Rotational               0.889              2.981             28.053
 Vibrational            103.855             22.890             13.182
 Vibration     1          0.634              1.853              2.222
 Vibration     2          0.644              1.819              2.008
 Vibration     3          0.661              1.769              1.758
 Vibration     4          0.695              1.667              1.396
 Vibration     5          0.762              1.479              0.979
 Vibration     6          0.815              1.345              0.775
 Vibration     7          0.874              1.207              0.611
 Vibration     8          0.919              1.110              0.516

 Optimization completed.
    -- Stationary point found.
 Normal termination of Gaussian 09 at Mon Jan 27 18:58:28 2020.
