 Gaussian 09, Revision D.01,
 Gaussian 09:  ES64L-G09RevD.01 24-Apr-2013

 -----------------------------
 # b3lyp 6-31G(2df,p) opt Freq
 -----------------------------

 -----
 titel
 -----
 Symbolic Z-matrix:
 Charge =  0 Multiplicity = 1

 SCF Done:  E(RB3LYP) =  -423.136950727     A.U. after   14 cycles
 Optimization completed.
    -- Stationary point found.
 Normal termination of Gaussian 09 at Mon Jan 27 18:00:30 2020.

 ----------------------------------------------------------------------
 #N Geom=AllCheck Guess=TCheck SCRF=Check GenChk RB3LYP/6-31G(2df,p) Fr
 eq
 ----------------------------------------------------------------------

 Structure from the checkpoint file:  "/scratch/puck/g09_0c299af6-f32d-44a0-b594-64e31a13f42d/Gau-64195.chk"
 -----
 titel
 -----
 Charge =  0 Multiplicity = 1

                         Standard orientation:
 ---------------------------------------------------------------------
 Center     Atomic      Atomic             Coordinates (Angstroms)
 Number     Number       Type             X           Y           Z
 ---------------------------------------------------------------------
      1          6           0        2.385919   -0.703952   -0.025018
      2          6           0        0.910026   -0.469569   -0.012826
      3          8           0        0.000010   -1.625539   -0.012643
      4          6           0       -0.910019   -0.469580   -0.012834
      5          6           0       -2.385910   -0.703972   -0.025026
      6          6           0        0.000004    0.291077   -1.034211
      7          6           0       -0.000005    1.755282   -0.631064
      8          8           0       -0.000019    1.651512    0.813135
      9          6           0       -0.000006    0.259770    1.020832
     10          1           0        2.693687   -1.223119   -0.938082
     11          1           0        2.918455    0.251026    0.028068
     12          1           0        2.684009   -1.311278    0.835185
     13          1           0       -2.693737   -1.222875   -0.938220
     14          1           0       -2.683938   -1.311551    0.835020
     15          1           0       -2.918447    0.250989    0.028374
     16          1           0        0.000008    0.002061   -2.084347
     17          1           0        0.890323    2.303266   -0.963009
     18          1           0       -0.890330    2.303260   -0.963027
     19          1           0       -0.000008   -0.003892    2.076988
 ---------------------------------------------------------------------

 SCF Done:  E(RB3LYP) =  -423.136950727     A.U. after    1 cycles

 The electronic state is 1-A.
 Alpha  occ. eigenvalues --  -19.14191 -19.12653 -10.24304 -10.24301 -10.23279
 Alpha  occ. eigenvalues --  -10.23178 -10.19550 -10.18443 -10.18443  -1.07028
 Alpha  occ. eigenvalues --   -1.02299  -0.78861  -0.75845  -0.73110  -0.71620
 Alpha  occ. eigenvalues --   -0.60027  -0.57178  -0.55383  -0.48476  -0.48291
 Alpha  occ. eigenvalues --   -0.45352  -0.43329  -0.43177  -0.42270  -0.41117
 Alpha  occ. eigenvalues --   -0.40514  -0.36803  -0.36025  -0.34428  -0.34393
 Alpha  occ. eigenvalues --   -0.32647  -0.30293  -0.23863  -0.22853
 Alpha virt. eigenvalues --    0.08512   0.09996   0.10903   0.12127   0.12495
 Alpha virt. eigenvalues --    0.13264   0.13997   0.14918   0.15946   0.16394
 Alpha virt. eigenvalues --    0.17078   0.17711   0.19128   0.19511   0.19870

 Mulliken charges:
               1
     1  C   -0.531579
     2  C    0.402684
     3  O   -0.378288
     4  C    0.402686
     5  C   -0.531580
     6  C   -0.172139
     7  C   -0.115941
     8  O   -0.281408
     9  C    0.015788
    10  H    0.131915
    11  H    0.132429
    12  H    0.135628
    13  H    0.131911
    14  H    0.135631
    15  H    0.132431
    16  H    0.080104
    17  H    0.107526
    18  H    0.107527
    19  H    0.094675
 Sum of Mulliken charges =   0.00000

 Dipole moment (field-independent basis, Debye):
    X=              0.0000    Y=              0.6844    Z=             -1.0562  Tot=              1.2586
 Quadrupole moment (field-independent basis, Debye-Ang):
   XX=            -48.5170   YY=            -58.9915   ZZ=            -51.4469
   XY=              0.0001   XZ=              0.0000   YZ=             -3.3353

  Exact polarizability:  83.259   0.000  73.150   0.000  -3.705  68.483
 Approx polarizability: 109.817   0.000 112.281   0.000  -2.992 106.209

                      1                      2                      3
                      A                      A                      A
 Frequencies --    176.7357               178.9056               211.7144
 Red. masses --      1.1345                 1.0448                 2.7718
 Frc consts  --      0.0209                 0.0197                 0.0732
 IR Inten    --      0.5868                 0.1446                 0.0142

                      4                      5                      6
                      A                      A                      A
 Frequencies --    213.0092               218.7841               239.9531
 Red. masses --      2.3242                 2.4030                 2.6867
 Frc consts  --      0.0621                 0.0678                 0.0911
 IR Inten    --      1.1320                 1.0876                 2.5851

                      7                      8                      9
                      A                      A                      A
 Frequencies --    400.4045               488.5590               511.4984
 Red. masses --      2.2216                 5.1046                 3.7443
 Frc consts  --      0.2099                 0.7179                 0.5772
 IR Inten    --      0.2925                 5.2925                11.4775

                     10                     11                     12
                      A                      A                      A
 Frequencies --    598.0326               659.4903               680.0572
 Red. masses --      3.7768                 2.8263                 4.6536
 Frc consts  --      0.7958                 0.7242                 1.2680
 IR Inten    --      0.0215                 0.1261                 1.4469

                     13                     14                     15
                      A                      A                      A
 Frequencies --    731.2063               761.5893               778.6557
 Red. masses --      5.4950                 3.8562                 3.4150
 Frc consts  --      1.7310                 1.3178                 1.2199
 IR Inten    --      4.0602                33.7482                 1.2293

                     16                     17                     18
                      A                      A                      A
 Frequencies --    879.4314               915.3213               947.8896
 Red. masses --      2.5231                 2.8556                 2.0271
 Frc consts  --      1.1497                 1.4096                 1.0731
 IR Inten    --      2.5312                16.6829                 2.6622

                     19                     20                     21
                      A                      A                      A
 Frequencies --    972.5750               992.3780              1012.8051
 Red. masses --      2.0352                 1.1705                 3.9647
 Frc consts  --      1.1342                 0.6792                 2.3962
 IR Inten    --     16.3424                 0.0648                16.5969

                     22                     23                     24
                      A                      A                      A
 Frequencies --   1061.7497              1084.2045              1094.5855
 Red. masses --      1.5797                 1.8827                 6.2633
 Frc consts  --      1.0493                 1.3040                 4.4213
 IR Inten    --      0.5015                 9.1253                78.9643

                     25                     26                     27
                      A                      A                      A
 Frequencies --   1103.8144              1142.6122              1184.8184
 Red. masses --      1.7436                 1.5731                 2.7874
 Frc consts  --      1.2516                 1.2101                 2.3055
 IR Inten    --      0.0188                 0.0428                34.1727

                     28                     29                     30
                      A                      A                      A
 Frequencies --   1195.6267              1203.9547              1260.8869
 Red. masses --      1.1793                 2.4024                 1.8833
 Frc consts  --      0.9933                 2.0517                 1.7641
 IR Inten    --      7.6042                16.2163                10.6406

                     31                     32                     33
                      A                      A                      A
 Frequencies --   1277.1690              1279.3294              1359.6723
 Red. masses --      1.7627                 2.7676                 1.5506
 Frc consts  --      1.6940                 2.6688                 1.6890
 IR Inten    --      4.4622                47.9229                 4.7742

                     34                     35                     36
                      A                      A                      A
 Frequencies --   1399.7162              1407.5420              1461.2686
 Red. masses --      1.2672                 1.3753                 4.7312
 Frc consts  --      1.4628                 1.6053                 5.9523
 IR Inten    --      0.5801                16.3564                 1.2719

                     37                     38                     39
                      A                      A                      A
 Frequencies --   1475.3270              1476.8813              1489.3238
 Red. masses --      1.0445                 1.0501                 1.0459
 Frc consts  --      1.3395                 1.3495                 1.3669
 IR Inten    --      0.0572                 8.1162                 2.7401

                     40                     41                     42
                      A                      A                      A
 Frequencies --   1491.4719              1520.3932              3019.6170
 Red. masses --      1.0592                 1.0975                 1.0562
 Frc consts  --      1.3882                 1.4948                 5.6740
 IR Inten    --      7.1180                 1.3003                62.6118

                     43                     44                     45
                      A                      A                      A
 Frequencies --   3036.8513              3037.1573              3056.4844
 Red. masses --      1.0348                 1.0346                 1.1095
 Frc consts  --      5.6228                 5.6230                 6.1071
 IR Inten    --     30.5535                 1.3113                36.4568

                     46                     47                     48
                      A                      A                      A
 Frequencies --   3109.5920              3109.7332              3111.8708
 Red. masses --      1.1016                 1.1019                 1.1009
 Frc consts  --      6.2761                 6.2782                 6.2814
 IR Inten    --     25.5621                 0.0398                 0.0617

                     49                     50                     51
                      A                      A                      A
 Frequencies --   3111.8812              3136.2056              3149.0676
 Red. masses --      1.1006                 1.0895                 1.0920
 Frc consts  --      6.2797                 6.3140                 6.3805
 IR Inten    --     24.4518                26.7771                18.0375

 - Thermochemistry -
 -------------------
 Temperature   298.150 Kelvin.  Pressure   1.00000 Atm.
 Atom     1 has atomic number  6 and mass  12.00000

 Molecular mass:   126.06808 amu.
 Principal axes and moments of inertia in atomic units:
                           1         2         3
     Eigenvalues --   762.90668 923.809891299.01334
           X            1.00000   0.00000   0.00000
           Y            0.00000   0.99916  -0.04086
           Z            0.00000   0.04086   0.99916
 This molecule is an asymmetric top.
 Rotational symmetry number  1.
 Warning -- assumption of classical behavior for rotation
           may cause significant error
 Rotational temperatures (Kelvin)      0.11353     0.09376     0.06668
 Rotational constants (GHZ):           2.36561     1.95359     1.38932
 Zero-point vibrational energy     415210.7 (Joules/Mol)
                                   99.23773 (Kcal/Mol)
 Warning -- explicit consideration of  10 degrees of freedom as
           vibrations may cause significant error
 Vibrational temperatures:    254.28   257.40   304.61   306.47   314.78
          (Kelvin)            345.24   576.09   702.93   735.93   860.43
                              948.86   978.45  1052.04  1095.76  1120.31
                             1265.30  1316.94  1363.80  1399.32  1427.81
                             1457.20  1527.62  1559.93  1574.86  1588.14
                             1643.96  1704.69  1720.24  1732.22  1814.13
                             1837.56  1840.67  1956.26  2013.88  2025.14
                             2102.44  2122.66  2124.90  2142.80  2145.89
                             2187.50  4344.55  4369.35  4369.79  4397.59
                             4474.00  4474.21  4477.28  4477.30  4512.29
                             4530.80

 Zero-point correction=                           0.158145 (Hartree/Particle)
 Thermal correction to Energy=                    0.166270
 Thermal correction to Enthalpy=                  0.167214
 Thermal correction to Gibbs Free Energy=         0.125997
 Sum of electronic and zero-point Energies=           -422.978805
 Sum of electronic and thermal Energies=              -422.970680
 Sum of electronic and thermal Enthalpies=            -422.969736
 Sum of electronic and thermal Free Energies=         -423.010954

                     E (Thermal)             CV                S
                      KCal/Mol        Cal/Mol-Kelvin    Cal/Mol-Kelvin
 Total                  104.336             31.827             86.749
 Electronic               0.000              0.000              0.000
 Translational            0.889              2.981             40.409
 Rotational               0.889              2.981             28.306
 Vibrational            102.559             25.865             18.035
 Vibration     1          0.628              1.871              2.363
 Vibration     2          0.629              1.868              2.340
 Vibration     3          0.643              1.823              2.029
 Vibration     4          0.644              1.821              2.018
 Vibration     5          0.647              1.812              1.969
 Vibration     6          0.657              1.779              1.803
 Vibration     7          0.766              1.469              0.961
 Vibration     8          0.844              1.275              0.687
 Vibration     9          0.867              1.225              0.630
 Vibration    10          0.956              1.036              0.453

 Normal termination of Gaussian 09 at Mon Jan 27 18:42:41 2020.
