 Gaussian 09, Revision D.01,
 Gaussian 09:  ES64L-G09RevD.01 24-Apr-2013

 -----------------------------
 # b3lyp 6-31G(2df,p) opt Freq
 -----------------------------

 -----
 titel
 -----
 Symbolic Z-matrix:
 Charge =  0 Multiplicity = 1

 SCF Done:  E(RB3LYP) =  -423.223408501     A.U. after   14 cycles
 Optimization completed.
    -- Stationary point found.
 Normal termination of Gaussian 09 at Tue Jan 28 03:55:46 2020.

 ----------------------------------------------------------------------
 #N Geom=AllCheck Guess=TCheck SCRF=Check GenChk RB3LYP/6-31G(2df,p) Fr
 eq
 ----------------------------------------------------------------------

 Structure from the checkpoint file:  "/scratch/puck/g09_6169d826-c4fe-4261-a726-7d31796b6ded/Gau-62790.chk"
 -----
 titel
 -----
 Charge =  0 Multiplicity = 1

                         Standard orientation:
 ---------------------------------------------------------------------
 Center     Atomic      Atomic             Coordinates (Angstroms)
 Number     Number       Type             X           Y           Z
 ---------------------------------------------------------------------
      1          6           0       -0.945210   -1.619322   -1.131185
      2          6           0       -0.460483   -0.931143    0.159860
      3          6           0        1.071391   -0.793808    0.232374
      4          8           0        1.497371   -0.479566    1.553258
      5          6           0        1.601381    0.239786   -0.775518
      6          6           0        0.816122    1.520460   -0.731164
      7          6           0       -0.428322    1.603912   -0.239085
      8          6           0       -1.157084    0.426521    0.284546
      9          8           0       -2.274805    0.528391    0.750800
     10          1           0       -0.700861   -1.034100   -2.023914
     11          1           0       -0.486843   -2.607751   -1.237053
     12          1           0       -2.030407   -1.744952   -1.101114
     13          1           0       -0.784022   -1.530221    1.016457
     14          1           0        1.526409   -1.767836    0.023291
     15          1           0        1.154210    0.392159    1.780406
     16          1           0        2.657355    0.433976   -0.559199
     17          1           0        1.571497   -0.166766   -1.796623
     18          1           0        1.297196    2.413171   -1.125766
     19          1           0       -0.971832    2.543287   -0.207905
 ---------------------------------------------------------------------

 SCF Done:  E(RB3LYP) =  -423.223408501     A.U. after    1 cycles

 The electronic state is 1-A.
 Alpha  occ. eigenvalues --  -19.14019 -19.12453 -10.26418 -10.24244 -10.22028
 Alpha  occ. eigenvalues --  -10.20289 -10.19768 -10.19354 -10.18882  -1.03436
 Alpha  occ. eigenvalues --   -1.02370  -0.84047  -0.78132  -0.73825  -0.67598
 Alpha  occ. eigenvalues --   -0.61799  -0.60376  -0.51541  -0.51245  -0.47111
 Alpha  occ. eigenvalues --   -0.46491  -0.45459  -0.43637  -0.42545  -0.41030
 Alpha  occ. eigenvalues --   -0.39878  -0.37981  -0.37318  -0.35837  -0.34449
 Alpha  occ. eigenvalues --   -0.32826  -0.28211  -0.27083  -0.24040
 Alpha virt. eigenvalues --   -0.05753   0.05461   0.07638   0.09723   0.10887
 Alpha virt. eigenvalues --    0.12612   0.13169   0.14469   0.16211   0.17116
 Alpha virt. eigenvalues --    0.17497   0.18877   0.20455   0.21834   0.22518

 Mulliken charges:
               1
     1  C   -0.415442
     2  C   -0.102416
     3  C    0.096660
     4  O   -0.440865
     5  C   -0.285464
     6  C   -0.056033
     7  C   -0.149912
     8  C    0.360295
     9  O   -0.340194
    10  H    0.121922
    11  H    0.121045
    12  H    0.142089
    13  H    0.105533
    14  H    0.089207
    15  H    0.282826
    16  H    0.123834
    17  H    0.125710
    18  H    0.112139
    19  H    0.109067
 Sum of Mulliken charges =   0.00000

 Dipole moment (field-independent basis, Debye):
    X=              2.2637    Y=              0.5464    Z=             -2.3363  Tot=              3.2987
 Quadrupole moment (field-independent basis, Debye-Ang):
   XX=            -60.9857   YY=            -49.3236   ZZ=            -54.6318
   XY=              3.7908   XZ=             -0.4546   YZ=              1.3656

  Exact polarizability:  88.657   0.815  78.334  -9.527  -0.227  65.257
 Approx polarizability: 148.315  -0.686 108.489 -25.006  -0.834 103.982

                      1                      2                      3
                      A                      A                      A
 Frequencies --     72.1934               140.3424               194.0734
 Red. masses --      4.6140                 3.4524                 3.0532
 Frc consts  --      0.0142                 0.0401                 0.0678
 IR Inten    --      3.7300                 1.2991                 0.9984

                      4                      5                      6
                      A                      A                      A
 Frequencies --    238.3600               246.9012               310.6224
 Red. masses --      1.1643                 2.5646                 1.2299
 Frc consts  --      0.0390                 0.0921                 0.0699
 IR Inten    --      0.0480                 0.2553                39.3358

                      7                      8                      9
                      A                      A                      A
 Frequencies --    327.9056               376.4726               459.1855
 Red. masses --      2.4296                 2.7513                 4.4275
 Frc consts  --      0.1539                 0.2298                 0.5500
 IR Inten    --     20.7341                13.6734                 8.4530

                     10                     11                     12
                      A                      A                      A
 Frequencies --    465.7436               520.6630               582.3340
 Red. masses --      4.1319                 4.3185                 5.3027
 Frc consts  --      0.5281                 0.6898                 1.0595
 IR Inten    --      2.6331                 3.9753                 1.8646

                     13                     14                     15
                      A                      A                      A
 Frequencies --    652.3025               716.5159               819.5073
 Red. masses --      1.8018                 3.4781                 2.9994
 Frc consts  --      0.4517                 1.0521                 1.1868
 IR Inten    --      6.9002                 1.6004                 0.5250

                     16                     17                     18
                      A                      A                      A
 Frequencies --    827.5160               877.8134               912.7437
 Red. masses --      2.0288                 2.3939                 1.8569
 Frc consts  --      0.8185                 1.0868                 0.9115
 IR Inten    --     18.0172                 9.5285                12.1665

                     19                     20                     21
                      A                      A                      A
 Frequencies --    940.3112              1007.5652              1019.9208
 Red. masses --      2.4862                 1.7463                 2.0581
 Frc consts  --      1.2952                 1.0445                 1.2614
 IR Inten    --     19.7327                 8.7370                 8.0073

                     22                     23                     24
                      A                      A                      A
 Frequencies --   1026.8522              1058.5020              1094.0856
 Red. masses --      1.4109                 2.6889                 2.2450
 Frc consts  --      0.8765                 1.7750                 1.5833
 IR Inten    --      1.9278                23.9277                38.1717

                     25                     26                     27
                      A                      A                      A
 Frequencies --   1123.7379              1155.0451              1196.8057
 Red. masses --      1.3809                 1.4531                 1.1084
 Frc consts  --      1.0274                 1.1422                 0.9354
 IR Inten    --     22.7491                12.8136                44.3268

                     28                     29                     30
                      A                      A                      A
 Frequencies --   1250.1516              1273.1157              1295.5535
 Red. masses --      1.8007                 1.7175                 1.4538
 Frc consts  --      1.6582                 1.6401                 1.4377
 IR Inten    --     27.9913                 9.5690                 7.7739

                     31                     32                     33
                      A                      A                      A
 Frequencies --   1323.8063              1362.0282              1374.6020
 Red. masses --      1.4508                 1.7034                 1.4398
 Frc consts  --      1.4980                 1.8619                 1.6029
 IR Inten    --      1.9946                13.9661                 5.5815

                     34                     35                     36
                      A                      A                      A
 Frequencies --   1403.7510              1408.8198              1428.8157
 Red. masses --      1.3279                 1.5323                 1.2172
 Frc consts  --      1.5417                 1.7919                 1.4640
 IR Inten    --     13.5985                 8.6471                51.1687

                     37                     38                     39
                      A                      A                      A
 Frequencies --   1459.5833              1494.0982              1504.9775
 Red. masses --      1.1046                 1.0487                 1.0536
 Frc consts  --      1.3865                 1.3793                 1.4060
 IR Inten    --     13.6413                 4.4280                 6.6911

                     40                     41                     42
                      A                      A                      A
 Frequencies --   1676.2393              1772.7158              3013.5671
 Red. masses --      6.4983                11.4292                 1.0681
 Frc consts  --     10.7578                21.1614                 5.7153
 IR Inten    --     16.7570               199.3993                 9.3125

                     43                     44                     45
                      A                      A                      A
 Frequencies --   3036.0194              3054.0354              3068.2924
 Red. masses --      1.0359                 1.0855                 1.0858
 Frc consts  --      5.6257                 5.9650                 6.0228
 IR Inten    --     16.4088                37.6027                 6.8994

                     46                     47                     48
                      A                      A                      A
 Frequencies --   3070.3908              3104.4710              3122.4206
 Red. masses --      1.0912                 1.1011                 1.1010
 Frc consts  --      6.0609                 6.2525                 6.3243
 IR Inten    --     12.8473                28.8008                12.3665

                     49                     50                     51
                      A                      A                      A
 Frequencies --   3149.1016              3187.1524              3798.1876
 Red. masses --      1.0870                 1.0951                 1.0656
 Frc consts  --      6.3511                 6.5540                 9.0577
 IR Inten    --     11.3677                10.3801                14.1478

 - Thermochemistry -
 -------------------
 Temperature   298.150 Kelvin.  Pressure   1.00000 Atm.
 Atom     1 has atomic number  6 and mass  12.00000

 Molecular mass:   126.06808 amu.
 Principal axes and moments of inertia in atomic units:
                           1         2         3
     Eigenvalues --   867.091631140.410921330.34029
           X            0.99700   0.07738   0.00166
           Y           -0.07734   0.99514   0.06092
           Z            0.00307  -0.06086   0.99814
 This molecule is an asymmetric top.
 Rotational symmetry number  1.
 Warning -- assumption of classical behavior for rotation
           may cause significant error
 Rotational temperatures (Kelvin)      0.09989     0.07595     0.06511
 Rotational constants (GHZ):           2.08137     1.58254     1.35660
 Zero-point vibrational energy     418668.6 (Joules/Mol)
                                  100.06419 (Kcal/Mol)
 Warning -- explicit consideration of  12 degrees of freedom as
           vibrations may cause significant error
 Vibrational temperatures:    103.87   201.92   279.23   342.95   355.24
          (Kelvin)            446.92   471.78   541.66   660.66   670.10
                              749.12   837.85   938.52  1030.91  1179.09
                             1190.61  1262.98  1313.23  1352.90  1449.66
                             1467.44  1477.41  1522.95  1574.14  1616.81
                             1661.85  1721.93  1798.69  1831.73  1864.01
                             1904.66  1959.65  1977.74  2019.68  2026.97
                             2055.74  2100.01  2149.67  2165.32  2411.73
                             2550.54  4335.85  4368.15  4394.07  4414.58
                             4417.60  4466.64  4492.46  4530.85  4585.60
                             5464.74

 Zero-point correction=                           0.159462 (Hartree/Particle)
 Thermal correction to Energy=                    0.168184
 Thermal correction to Enthalpy=                  0.169128
 Thermal correction to Gibbs Free Energy=         0.126246
 Sum of electronic and zero-point Energies=           -423.063946
 Sum of electronic and thermal Energies=              -423.055225
 Sum of electronic and thermal Enthalpies=            -423.054281
 Sum of electronic and thermal Free Energies=         -423.097162

                     E (Thermal)             CV                S
                      KCal/Mol        Cal/Mol-Kelvin    Cal/Mol-Kelvin
 Total                  105.537             33.228             90.253
 Electronic               0.000              0.000              0.000
 Translational            0.889              2.981             40.409
 Rotational               0.889              2.981             28.666
 Vibrational            103.759             27.267             21.178
 Vibration     1          0.598              1.967              4.093
 Vibration     2          0.615              1.913              2.799
 Vibration     3          0.635              1.848              2.189
 Vibration     4          0.656              1.782              1.815
 Vibration     5          0.661              1.768              1.753
 Vibration     6          0.699              1.653              1.359
 Vibration     7          0.711              1.620              1.270
 Vibration     8          0.747              1.520              1.053
 Vibration     9          0.817              1.341              0.768
 Vibration    10          0.823              1.326              0.750
 Vibration    11          0.876              1.204              0.608
 Vibration    12          0.939              1.070              0.481

 Optimization completed.
    -- Stationary point found.
 Normal termination of Gaussian 09 at Tue Jan 28 04:43:33 2020.
