 Gaussian 09, Revision D.01,
 Gaussian 09:  ES64L-G09RevD.01 24-Apr-2013

 -----------------------------
 # b3lyp 6-31G(2df,p) opt Freq
 -----------------------------

 -----
 titel
 -----
 Symbolic Z-matrix:
 Charge =  0 Multiplicity = 1

 SCF Done:  E(RB3LYP) =  -423.151881249     A.U. after   14 cycles
 Optimization completed.
    -- Stationary point found.
 Normal termination of Gaussian 09 at Tue Jan 28 02:34:19 2020.

 ----------------------------------------------------------------------
 #N Geom=AllCheck Guess=TCheck SCRF=Check GenChk RB3LYP/6-31G(2df,p) Fr
 eq
 ----------------------------------------------------------------------

 Structure from the checkpoint file:  "/scratch/puck/g09_52bd5ffb-6900-4a14-94b0-5320508b60d3/Gau-86819.chk"
 -----
 titel
 -----
 Charge =  0 Multiplicity = 1

                         Standard orientation:
 ---------------------------------------------------------------------
 Center     Atomic      Atomic             Coordinates (Angstroms)
 Number     Number       Type             X           Y           Z
 ---------------------------------------------------------------------
      1          6           0        0.096895    1.876144   -0.690184
      2          6           0       -0.243662    0.652835    0.149565
      3          6           0        0.853773    0.304954    1.235445
      4          6           0        1.402813   -0.819164    0.268503
      5          8           0        2.443361   -0.384758   -0.587463
      6          6           0        0.040527   -0.722031   -0.383100
      7          6           0       -1.076673   -1.433680   -0.459981
      8          6           0       -2.233031   -0.511268   -0.105722
      9          8           0       -1.628104    0.650180    0.488302
     10          1           0       -0.540923    1.919187   -1.578047
     11          1           0       -0.068402    2.786657   -0.104610
     12          1           0        1.141428    1.843263   -1.008214
     13          1           0        1.567350    1.094202    1.492499
     14          1           0        0.402143   -0.116546    2.135044
     15          1           0        1.645494   -1.784217    0.729394
     16          1           0        3.227856   -0.248175   -0.045818
     17          1           0       -1.187458   -2.504755   -0.576109
     18          1           0       -2.853522   -0.219744   -0.968477
     19          1           0       -2.899871   -0.979981    0.630472
 ---------------------------------------------------------------------

 SCF Done:  E(RB3LYP) =  -423.151881249     A.U. after    1 cycles

 The electronic state is 1-A.
 Alpha  occ. eigenvalues --  -19.14526 -19.12995 -10.24807 -10.23060 -10.23008
 Alpha  occ. eigenvalues --  -10.18653 -10.18644 -10.18193 -10.16623  -1.03178
 Alpha  occ. eigenvalues --   -1.02402  -0.84151  -0.76759  -0.71018  -0.66067
 Alpha  occ. eigenvalues --   -0.63094  -0.57753  -0.52586  -0.50560  -0.48957
 Alpha  occ. eigenvalues --   -0.45900  -0.44828  -0.43006  -0.40795  -0.40233
 Alpha  occ. eigenvalues --   -0.38067  -0.37539  -0.35185  -0.33485  -0.32318
 Alpha  occ. eigenvalues --   -0.30287  -0.27695  -0.25348  -0.22764
 Alpha virt. eigenvalues --   -0.00345   0.07987   0.10423   0.11178   0.13178
 Alpha virt. eigenvalues --    0.13913   0.15078   0.15646   0.16593   0.17165
 Alpha virt. eigenvalues --    0.18114   0.18362   0.19564   0.20007   0.22624

 Mulliken charges:
               1
     1  C   -0.443741
     2  C    0.384675
     3  C   -0.316263
     4  C    0.003532
     5  O   -0.426513
     6  C    0.221288
     7  C   -0.236895
     8  C   -0.125065
     9  O   -0.321216
    10  H    0.116951
    11  H    0.117721
    12  H    0.130426
    13  H    0.094686
    14  H    0.113182
    15  H    0.079232
    16  H    0.286339
    17  H    0.106523
    18  H    0.105035
    19  H    0.110103
 Sum of Mulliken charges =   0.00000

 Dipole moment (field-independent basis, Debye):
    X=              1.0717    Y=             -1.0800    Z=              1.0225  Tot=              1.8332
 Quadrupole moment (field-independent basis, Debye-Ang):
   XX=            -48.3820   YY=            -51.8209   ZZ=            -55.0174
   XY=              3.3949   XZ=              5.4291   YZ=             -1.5839

  Exact polarizability:  94.818   9.299  78.037   5.347   0.271  62.349
 Approx polarizability: 137.948  17.756 113.128   5.323   3.545  95.854

                      1                      2                      3
                      A                      A                      A
 Frequencies --    125.7725               158.9314               223.1009
 Red. masses --      2.9989                 3.4755                 2.9811
 Frc consts  --      0.0280                 0.0517                 0.0874
 IR Inten    --      4.3439                 1.4755                 1.3616

                      4                      5                      6
                      A                      A                      A
 Frequencies --    244.1860               272.0822               315.3313
 Red. masses --      1.0442                 2.3911                 1.2313
 Frc consts  --      0.0367                 0.1043                 0.0721
 IR Inten    --      0.8720                18.0635                86.4593

                      7                      8                      9
                      A                      A                      A
 Frequencies --    363.6557               389.1323               399.6610
 Red. masses --      2.9512                 4.5790                 2.4842
 Frc consts  --      0.2299                 0.4085                 0.2338
 IR Inten    --      4.4202                 1.7129                 6.6994

                     10                     11                     12
                      A                      A                      A
 Frequencies --    476.5630               615.9447               728.7651
 Red. masses --      2.4204                 3.9379                 3.7144
 Frc consts  --      0.3239                 0.8802                 1.1623
 IR Inten    --      2.3390                 2.2399                21.0747

                     13                     14                     15
                      A                      A                      A
 Frequencies --    735.5089               796.8094               817.4691
 Red. masses --      5.5014                 2.9738                 1.4965
 Frc consts  --      1.7535                 1.1124                 0.5892
 IR Inten    --      6.7233                 0.4077                16.8474

                     16                     17                     18
                      A                      A                      A
 Frequencies --    832.6664               892.4406               904.0644
 Red. masses --      2.5535                 2.2635                 2.4318
 Frc consts  --      1.0431                 1.0622                 1.1710
 IR Inten    --      2.2383                 4.0528                10.6970

                     19                     20                     21
                      A                      A                      A
 Frequencies --    922.1604               952.5759               983.8535
 Red. masses --      2.0655                 1.7442                 2.8369
 Frc consts  --      1.0349                 0.9325                 1.6179
 IR Inten    --      1.3154                 4.8017                21.1094

                     22                     23                     24
                      A                      A                      A
 Frequencies --   1026.7258              1045.3385              1098.6056
 Red. masses --      2.0523                 3.1666                 2.4664
 Frc consts  --      1.2746                 2.0387                 1.7538
 IR Inten    --     34.4148                25.4465                34.8065

                     25                     26                     27
                      A                      A                      A
 Frequencies --   1134.0176              1146.1046              1168.6975
 Red. masses --      1.9949                 2.0545                 1.8105
 Frc consts  --      1.5115                 1.5900                 1.4570
 IR Inten    --     62.8168                58.6703                27.5079

                     28                     29                     30
                      A                      A                      A
 Frequencies --   1178.7303              1198.8085              1219.7206
 Red. masses --      1.6710                 1.1723                 1.4365
 Frc consts  --      1.3679                 0.9926                 1.2592
 IR Inten    --     12.4936                 6.7469                61.9532

                     31                     32                     33
                      A                      A                      A
 Frequencies --   1245.6605              1303.2655              1327.9297
 Red. masses --      1.9336                 1.3477                 2.4458
 Frc consts  --      1.7677                 1.3486                 2.5411
 IR Inten    --      6.8410                26.5016                16.5433

                     34                     35                     36
                      A                      A                      A
 Frequencies --   1364.8555              1400.1875              1412.7982
 Red. masses --      1.4092                 1.2775                 1.3870
 Frc consts  --      1.5467                 1.4757                 1.6311
 IR Inten    --     14.7196                 4.0638                15.2842

                     37                     38                     39
                      A                      A                      A
 Frequencies --   1456.6522              1488.3340              1495.7392
 Red. masses --      1.1209                 1.0547                 1.0578
 Frc consts  --      1.4013                 1.3765                 1.3943
 IR Inten    --      0.7535                 0.8505                 2.2503

                     40                     41                     42
                      A                      A                      A
 Frequencies --   1517.0026              1724.4695              2971.5927
 Red. masses --      1.0866                 8.5308                 1.0692
 Frc consts  --      1.4733                14.9470                 5.5625
 IR Inten    --      0.9496                 3.1285                84.1769

                     43                     44                     45
                      A                      A                      A
 Frequencies --   3024.0027              3027.8431              3038.3198
 Red. masses --      1.0924                 1.0856                 1.0357
 Frc consts  --      5.8858                 5.8638                 5.6329
 IR Inten    --     40.8614                63.4162                21.0034

                     46                     47                     48
                      A                      A                      A
 Frequencies --   3051.4746              3107.7156              3132.0953
 Red. masses --      1.0611                 1.1015                 1.1019
 Frc consts  --      5.8212                 6.2679                 6.3690
 IR Inten    --     34.5632                19.6435                 7.7580

                     49                     50                     51
                      A                      A                      A
 Frequencies --   3135.3451              3208.9277              3810.7297
 Red. masses --      1.1050                 1.0958                 1.0660
 Frc consts  --      6.3998                 6.6481                 9.1208
 IR Inten    --     19.2391                 7.5444                23.6603

 - Thermochemistry -
 -------------------
 Temperature   298.150 Kelvin.  Pressure   1.00000 Atm.
 Atom     1 has atomic number  6 and mass  12.00000

 Molecular mass:   126.06808 amu.
 Principal axes and moments of inertia in atomic units:
                           1         2         3
     Eigenvalues --   634.557281185.377381454.25944
           X            0.99910   0.03556   0.02290
           Y           -0.03435   0.99808  -0.05150
           Z           -0.02469   0.05066   0.99841
 This molecule is an asymmetric top.
 Rotational symmetry number  1.
 Warning -- assumption of classical behavior for rotation
           may cause significant error
 Rotational temperatures (Kelvin)      0.13649     0.07307     0.05956
 Rotational constants (GHZ):           2.84410     1.52250     1.24100
 Zero-point vibrational energy     416374.4 (Joules/Mol)
                                   99.51587 (Kcal/Mol)
 Warning -- explicit consideration of  11 degrees of freedom as
           vibrations may cause significant error
 Vibrational temperatures:    180.96   228.67   320.99   351.33   391.47
          (Kelvin)            453.69   523.22   559.87   575.02   685.67
                              886.21  1048.53  1058.23  1146.43  1176.15
                             1198.02  1284.02  1300.75  1326.78  1370.54
                             1415.54  1477.23  1504.01  1580.65  1631.60
                             1648.99  1681.49  1695.93  1724.82  1754.90
                             1792.23  1875.11  1910.59  1963.72  2014.56
                             2032.70  2095.80  2141.38  2152.03  2182.63
                             2481.12  4275.45  4350.86  4356.39  4371.46
                             4390.39  4471.30  4506.38  4511.06  4616.93
                             5482.78

 Zero-point correction=                           0.158589 (Hartree/Particle)
 Thermal correction to Energy=                    0.166930
 Thermal correction to Enthalpy=                  0.167874
 Thermal correction to Gibbs Free Energy=         0.126182
 Sum of electronic and zero-point Energies=           -422.993293
 Sum of electronic and thermal Energies=              -422.984951
 Sum of electronic and thermal Enthalpies=            -422.984007
 Sum of electronic and thermal Free Energies=         -423.025700

                     E (Thermal)             CV                S
                      KCal/Mol        Cal/Mol-Kelvin    Cal/Mol-Kelvin
 Total                  104.750             32.688             87.749
 Electronic               0.000              0.000              0.000
 Translational            0.889              2.981             40.409
 Rotational               0.889              2.981             28.483
 Vibrational            102.973             26.726             18.858
 Vibration     1          0.611              1.927              3.010
 Vibration     2          0.621              1.893              2.562
 Vibration     3          0.649              1.806              1.934
 Vibration     4          0.660              1.772              1.772
 Vibration     5          0.675              1.725              1.583
 Vibration     6          0.703              1.644              1.334
 Vibration     7          0.737              1.547              1.106
 Vibration     8          0.757              1.493              1.003
 Vibration     9          0.766              1.471              0.964
 Vibration    10          0.833              1.302              0.719
 Vibration    11          0.976              0.998              0.423

 Normal termination of Gaussian 09 at Tue Jan 28 03:18:33 2020.
