 Gaussian 09, Revision D.01,
 Gaussian 09:  ES64L-G09RevD.01 24-Apr-2013

 -----------------------------
 # b3lyp 6-31G(2df,p) opt Freq
 -----------------------------

 -----
 titel
 -----
 Symbolic Z-matrix:
 Charge =  0 Multiplicity = 1

 SCF Done:  E(RB3LYP) =  -423.200390671     A.U. after   14 cycles
 Optimization completed.
    -- Stationary point found.
 Normal termination of Gaussian 09 at Mon Jan 27 17:16:09 2020.

 ----------------------------------------------------------------------
 #N Geom=AllCheck Guess=TCheck SCRF=Check GenChk RB3LYP/6-31G(2df,p) Fr
 eq
 ----------------------------------------------------------------------

 Structure from the checkpoint file:  "/scratch/puck/g09_2354f3dd-68c8-48a3-ac0d-3d2ba2ab5909/Gau-179385.chk"
 -----
 titel
 -----
 Charge =  0 Multiplicity = 1

                         Standard orientation:
 ---------------------------------------------------------------------
 Center     Atomic      Atomic             Coordinates (Angstroms)
 Number     Number       Type             X           Y           Z
 ---------------------------------------------------------------------
      1          6           0       -2.389326    0.189465   -0.300698
      2          6           0       -0.915081    0.031896   -0.013483
      3          8           0       -0.234515   -0.433832   -1.169079
      4          6           0        1.041511   -0.835407   -0.654466
      5          6           0        1.812436    0.477813   -0.415070
      6          6           0        1.000835    1.350886    0.567662
      7          8           0       -0.408802    1.322524    0.327099
      8          6           0        0.673030   -1.499165    0.666660
      9          6           0       -0.497304   -0.995560    1.043517
     10          1           0       -2.817879   -0.773506   -0.587061
     11          1           0       -2.906237    0.567100    0.584760
     12          1           0       -2.527379    0.901319   -1.117768
     13          1           0        1.528538   -1.488020   -1.383050
     14          1           0        2.813779    0.304766   -0.004472
     15          1           0        1.921698    0.978965   -1.381667
     16          1           0        1.206799    1.022736    1.595169
     17          1           0        1.293440    2.401369    0.489647
     18          1           0        1.314907   -2.180472    1.210049
     19          1           0       -1.037736   -1.163365    1.965503
 ---------------------------------------------------------------------

 SCF Done:  E(RB3LYP) =  -423.200390671     A.U. after    1 cycles

 The electronic state is 1-A.
 Alpha  occ. eigenvalues --  -19.13464 -19.13373 -10.27778 -10.23698 -10.22564
 Alpha  occ. eigenvalues --  -10.18904 -10.18548 -10.18413 -10.17161  -1.07109
 Alpha  occ. eigenvalues --   -0.99457  -0.80141  -0.78511  -0.71978  -0.66882
 Alpha  occ. eigenvalues --   -0.62894  -0.56677  -0.54640  -0.50648  -0.48818
 Alpha  occ. eigenvalues --   -0.46293  -0.44907  -0.43230  -0.40613  -0.39653
 Alpha  occ. eigenvalues --   -0.38697  -0.37601  -0.37184  -0.34252  -0.33854
 Alpha  occ. eigenvalues --   -0.30823  -0.26660  -0.25662  -0.24866
 Alpha virt. eigenvalues --    0.00278   0.10078   0.11923   0.12899   0.12915
 Alpha virt. eigenvalues --    0.13908   0.15387   0.15760   0.16565   0.17131
 Alpha virt. eigenvalues --    0.18666   0.18890   0.19561   0.20947   0.23165

 Mulliken charges:
               1
     1  C   -0.460004
     2  C    0.419755
     3  O   -0.264965
     4  C    0.021223
     5  C   -0.221103
     6  C   -0.073653
     7  O   -0.291880
     8  C   -0.106272
     9  C   -0.120918
    10  H    0.126828
    11  H    0.124559
    12  H    0.135395
    13  H    0.080562
    14  H    0.096345
    15  H    0.114535
    16  H    0.096402
    17  H    0.108137
    18  H    0.107191
    19  H    0.107863
 Sum of Mulliken charges =   0.00000

 Dipole moment (field-independent basis, Debye):
    X=              1.3066    Y=             -0.8470    Z=              1.1628  Tot=              1.9434
 Quadrupole moment (field-independent basis, Debye-Ang):
   XX=            -48.4237   YY=            -53.7055   ZZ=            -53.6777
   XY=              0.2397   XZ=             -0.9761   YZ=             -1.4733

  Exact polarizability:  86.368  -2.809  70.741  -3.387  -2.006  66.601
 Approx polarizability: 124.642 -10.013 104.572  -7.189  -0.617 102.337

                      1                      2                      3
                      A                      A                      A
 Frequencies --    194.8074               218.6401               279.9538
 Red. masses --      1.0226                 2.7724                 2.4620
 Frc consts  --      0.0229                 0.0781                 0.1137
 IR Inten    --      0.0135                 2.8176                 3.7396

                      4                      5                      6
                      A                      A                      A
 Frequencies --    298.4464               342.1339               375.4521
 Red. masses --      2.5333                 2.6457                 2.5116
 Frc consts  --      0.1329                 0.1825                 0.2086
 IR Inten    --      1.7317                 2.6687                 0.9470

                      7                      8                      9
                      A                      A                      A
 Frequencies --    463.5708               503.1270               608.8621
 Red. masses --      3.8750                 4.3254                 3.7155
 Frc consts  --      0.4906                 0.6451                 0.8115
 IR Inten    --      0.1247                 8.3651                 5.0420

                     10                     11                     12
                      A                      A                      A
 Frequencies --    635.3168               657.3309               751.0652
 Red. masses --      4.8855                 2.3565                 1.6971
 Frc consts  --      1.1618                 0.5999                 0.5640
 IR Inten    --      1.8206                 1.5167                19.0505

                     13                     14                     15
                      A                      A                      A
 Frequencies --    792.3308               836.3967               847.4591
 Red. masses --      2.9142                 3.3106                 2.9680
 Frc consts  --      1.0779                 1.3645                 1.2559
 IR Inten    --      2.2470                13.3128                21.4605

                     16                     17                     18
                      A                      A                      A
 Frequencies --    863.3454               898.1589               919.0551
 Red. masses --      2.7490                 1.9253                 2.8284
 Frc consts  --      1.2072                 0.9151                 1.4076
 IR Inten    --     22.7050                10.3756                25.6305

                     19                     20                     21
                      A                      A                      A
 Frequencies --    932.1349               947.2037               962.4494
 Red. masses --      2.2161                 1.4932                 2.5327
 Frc consts  --      1.1345                 0.7893                 1.3823
 IR Inten    --     14.7068                 6.7224                36.9246

                     22                     23                     24
                      A                      A                      A
 Frequencies --   1030.2037              1065.3502              1082.8154
 Red. masses --      2.3737                 1.7398                 1.6089
 Frc consts  --      1.4843                 1.1634                 1.1114
 IR Inten    --      5.8582                12.4069                11.1160

                     25                     26                     27
                      A                      A                      A
 Frequencies --   1120.4138              1141.7219              1178.8611
 Red. masses --      2.8014                 2.1697                 2.1009
 Frc consts  --      2.0720                 1.6664                 1.7202
 IR Inten    --     53.5258                87.3307                26.6401

                     28                     29                     30
                      A                      A                      A
 Frequencies --   1218.6680              1249.8223              1287.7239
 Red. masses --      1.2344                 1.5598                 2.1537
 Frc consts  --      1.0802                 1.4356                 2.1041
 IR Inten    --      5.6440                36.5233                21.4923

                     31                     32                     33
                      A                      A                      A
 Frequencies --   1307.5903              1344.8805              1347.6233
 Red. masses --      1.2967                 1.8231                 1.4646
 Frc consts  --      1.3063                 1.9429                 1.5671
 IR Inten    --      2.5390                23.9816                15.6485

                     34                     35                     36
                      A                      A                      A
 Frequencies --   1366.9914              1410.9189              1415.2933
 Red. masses --      1.4731                 1.3198                 1.4812
 Frc consts  --      1.6219                 1.5480                 1.7480
 IR Inten    --      5.7383                 1.6312                40.0269

                     37                     38                     39
                      A                      A                      A
 Frequencies --   1471.7111              1480.0108              1486.2775
 Red. masses --      1.0926                 1.0554                 1.0482
 Frc consts  --      1.3943                 1.3621                 1.3642
 IR Inten    --      1.5011                 2.1885                 2.2279

                     40                     41                     42
                      A                      A                      A
 Frequencies --   1505.0313              1664.9734              3013.8364
 Red. masses --      1.0837                 6.7178                 1.0686
 Frc consts  --      1.4462                10.9721                 5.7189
 IR Inten    --      1.8027                 3.3902                44.2985

                     43                     44                     45
                      A                      A                      A
 Frequencies --   3041.3880              3057.2615              3083.7603
 Red. masses --      1.0603                 1.0345                 1.0888
 Frc consts  --      5.7784                 5.6970                 6.1005
 IR Inten    --     25.9825                 9.6761                41.9620

                     46                     47                     48
                      A                      A                      A
 Frequencies --   3084.4437              3097.2404              3136.9152
 Red. masses --      1.0954                 1.1028                 1.1021
 Frc consts  --      6.1403                 6.2331                 6.3898
 IR Inten    --     30.7798                33.8293                11.4207

                     49                     50                     51
                      A                      A                      A
 Frequencies --   3140.6539              3209.3847              3235.7511
 Red. masses --      1.1027                 1.0859                 1.1080
 Frc consts  --      6.4083                 6.5900                 6.8348
 IR Inten    --     11.9398                 3.7337                 7.0541

 - Thermochemistry -
 -------------------
 Temperature   298.150 Kelvin.  Pressure   1.00000 Atm.
 Atom     1 has atomic number  6 and mass  12.00000

 Molecular mass:   126.06808 amu.
 Principal axes and moments of inertia in atomic units:
                           1         2         3
     Eigenvalues --   676.48308 949.998131140.46748
           X            0.99983   0.01817   0.00057
           Y           -0.01815   0.99938  -0.03020
           Z           -0.00112   0.03019   0.99954
 This molecule is an asymmetric top.
 Rotational symmetry number  1.
 Warning -- assumption of classical behavior for rotation
           may cause significant error
 Rotational temperatures (Kelvin)      0.12804     0.09117     0.07595
 Rotational constants (GHZ):           2.66783     1.89973     1.58246
 Zero-point vibrational energy     422310.2 (Joules/Mol)
                                  100.93457 (Kcal/Mol)
 Warning -- explicit consideration of   9 degrees of freedom as
           vibrations may cause significant error
 Vibrational temperatures:    280.28   314.57   402.79   429.40   492.25
          (Kelvin)            540.19   666.97   723.89   876.02   914.08
                              945.75  1080.61  1139.99  1203.39  1219.30
                             1242.16  1292.25  1322.31  1341.13  1362.81
                             1384.75  1482.23  1532.80  1557.93  1612.02
                             1642.68  1696.12  1753.39  1798.21  1852.75
                             1881.33  1934.98  1938.93  1966.79  2030.00
                             2036.29  2117.46  2129.40  2138.42  2165.40
                             2395.52  4336.23  4375.87  4398.71  4436.84
                             4437.82  4456.23  4513.32  4518.69  4617.58
                             4655.52

 Zero-point correction=                           0.160849 (Hartree/Particle)
 Thermal correction to Energy=                    0.168135
 Thermal correction to Enthalpy=                  0.169079
 Thermal correction to Gibbs Free Energy=         0.129779
 Sum of electronic and zero-point Energies=           -423.039541
 Sum of electronic and thermal Energies=              -423.032256
 Sum of electronic and thermal Enthalpies=            -423.031312
 Sum of electronic and thermal Free Energies=         -423.070612

                     E (Thermal)             CV                S
                      KCal/Mol        Cal/Mol-Kelvin    Cal/Mol-Kelvin
 Total                  105.506             30.271             82.713
 Electronic               0.000              0.000              0.000
 Translational            0.889              2.981             40.409
 Rotational               0.889              2.981             28.085
 Vibrational            103.729             24.309             14.220
 Vibration     1          0.635              1.847              2.182
 Vibration     2          0.646              1.813              1.970
 Vibration     3          0.680              1.711              1.534
 Vibration     4          0.692              1.677              1.426
 Vibration     5          0.721              1.591              1.202
 Vibration     6          0.746              1.522              1.057
 Vibration     7          0.821              1.331              0.756
 Vibration     8          0.858              1.243              0.650
 Vibration     9          0.968              1.013              0.435

 Normal termination of Gaussian 09 at Mon Jan 27 18:03:01 2020.
