 Gaussian 09, Revision D.01,
 Gaussian 09:  ES64L-G09RevD.01 24-Apr-2013

 -----------------------------
 # b3lyp 6-31G(2df,p) opt Freq
 -----------------------------

 -----
 titel
 -----
 Symbolic Z-matrix:
 Charge =  0 Multiplicity = 1

 SCF Done:  E(RB3LYP) =  -423.160906488     A.U. after   13 cycles
 Optimization completed.
    -- Stationary point found.
 Normal termination of Gaussian 09 at Mon Jan 27 17:30:33 2020.

 ----------------------------------------------------------------------
 #N Geom=AllCheck Guess=TCheck SCRF=Check GenChk RB3LYP/6-31G(2df,p) Fr
 eq
 ----------------------------------------------------------------------

 Structure from the checkpoint file:  "/scratch/puck/g09_713fcd03-0ff3-40d4-88fc-f16c126c81c4/Gau-59637.chk"
 -----
 titel
 -----
 Charge =  0 Multiplicity = 1

                         Standard orientation:
 ---------------------------------------------------------------------
 Center     Atomic      Atomic             Coordinates (Angstroms)
 Number     Number       Type             X           Y           Z
 ---------------------------------------------------------------------
      1          8           0        2.095548   -0.658651   -1.046963
      2          6           0        1.230811   -0.203599   -0.050772
      3          6           0        1.608120    1.020657    0.746196
      4          6           0        0.483141    1.087538   -0.271808
      5          6           0       -0.924434    0.953205    0.263512
      6          6           0       -1.994210    0.512139   -0.754965
      7          8           0       -1.961123   -0.847052   -0.275021
      8          6           0       -1.044197   -0.509085    0.792558
      9          6           0        0.314314   -1.214889    0.642049
     10          1           0        2.848981   -1.079775   -0.619103
     11          1           0        1.367024    1.063359    1.805286
     12          1           0        2.534249    1.511691    0.468128
     13          1           0        0.658618    1.662292   -1.174900
     14          1           0       -1.218153    1.760494    0.938216
     15          1           0       -2.982480    0.968427   -0.613822
     16          1           0       -1.714020    0.584038   -1.813156
     17          1           0       -1.511776   -0.660072    1.771972
     18          1           0        0.714421   -1.546162    1.607664
     19          1           0        0.186472   -2.094468    0.004968
 ---------------------------------------------------------------------

 SCF Done:  E(RB3LYP) =  -423.160906488     A.U. after    1 cycles

 The electronic state is 1-A.
 Alpha  occ. eigenvalues --  -19.14262 -19.12649 -10.23809 -10.23161 -10.22487
 Alpha  occ. eigenvalues --  -10.19164 -10.18955 -10.18443 -10.17883  -1.03431
 Alpha  occ. eigenvalues --   -1.02754  -0.86663  -0.74532  -0.73557  -0.65316
 Alpha  occ. eigenvalues --   -0.60798  -0.56742  -0.54062  -0.52012  -0.49571
 Alpha  occ. eigenvalues --   -0.46690  -0.44468  -0.43025  -0.42819  -0.40743
 Alpha  occ. eigenvalues --   -0.38284  -0.36590  -0.35844  -0.33508  -0.31013
 Alpha  occ. eigenvalues --   -0.29627  -0.26389  -0.25851  -0.24197
 Alpha virt. eigenvalues --    0.07742   0.08039   0.10017   0.10503   0.11640
 Alpha virt. eigenvalues --    0.11968   0.15282   0.15887   0.16427   0.16784
 Alpha virt. eigenvalues --    0.18350   0.19223   0.19997   0.20954   0.22093

 Mulliken charges:
               1
     1  O   -0.469405
     2  C    0.409376
     3  C   -0.360710
     4  C   -0.087306
     5  C   -0.091704
     6  C   -0.085930
     7  O   -0.289513
     8  C    0.138113
     9  C   -0.319987
    10  H    0.281941
    11  H    0.104838
    12  H    0.113360
    13  H    0.096529
    14  H    0.076563
    15  H    0.095328
    16  H    0.103353
    17  H    0.070286
    18  H    0.090252
    19  H    0.124617
 Sum of Mulliken charges =   0.00000

 Dipole moment (field-independent basis, Debye):
    X=              1.3030    Y=              1.0644    Z=              1.5911  Tot=              2.3157
 Quadrupole moment (field-independent basis, Debye-Ang):
   XX=            -51.2244   YY=            -52.9074   ZZ=            -53.5094
   XY=             -5.0165   XZ=              1.4563   YZ=             -2.1896

  Exact polarizability:  82.686  -3.049  70.486   2.714  -2.104  69.244
 Approx polarizability: 109.358  -4.122 105.309   3.928  -1.386 106.290

                      1                      2                      3
                      A                      A                      A
 Frequencies --     81.1893               143.6819               278.5285
 Red. masses --      3.8839                 3.0705                 1.1591
 Frc consts  --      0.0151                 0.0373                 0.0530
 IR Inten    --      1.9462                 2.2494                79.6242

                      4                      5                      6
                      A                      A                      A
 Frequencies --    310.6077               361.3683               380.0643
 Red. masses --      2.2328                 3.6512                 3.4528
 Frc consts  --      0.1269                 0.2809                 0.2939
 IR Inten    --      9.4532                 6.6806                 3.0553

                      7                      8                      9
                      A                      A                      A
 Frequencies --    414.1635               443.6248               573.6072
 Red. masses --      2.3089                 2.9006                 3.2961
 Frc consts  --      0.2333                 0.3363                 0.6390
 IR Inten    --      5.9210                15.8389                 1.6501

                     10                     11                     12
                      A                      A                      A
 Frequencies --    651.9314               731.8377               785.2760
 Red. masses --      4.3014                 3.2565                 1.9372
 Frc consts  --      1.0771                 1.0276                 0.7038
 IR Inten    --      2.4981                 1.1624                 0.8325

                     13                     14                     15
                      A                      A                      A
 Frequencies --    819.1265               861.1498               879.9015
 Red. masses --      2.5798                 2.3172                 2.8132
 Frc consts  --      1.0198                 1.0125                 1.2833
 IR Inten    --      3.5550                20.6022                 5.5616

                     16                     17                     18
                      A                      A                      A
 Frequencies --    917.7420               928.7024               944.6778
 Red. masses --      2.2107                 1.7765                 1.4296
 Frc consts  --      1.0970                 0.9027                 0.7517
 IR Inten    --      5.4760                 6.1812                 3.2718

                     19                     20                     21
                      A                      A                      A
 Frequencies --    999.7773              1021.1055              1023.9418
 Red. masses --      3.3501                 3.3156                 1.9881
 Frc consts  --      1.9729                 2.0368                 1.2281
 IR Inten    --      3.1925                35.3909                 4.3781

                     22                     23                     24
                      A                      A                      A
 Frequencies --   1033.3210              1050.2963              1061.0690
 Red. masses --      3.0689                 1.4225                 1.6347
 Frc consts  --      1.9307                 0.9246                 1.0844
 IR Inten    --     68.8649                15.6705                 7.1406

                     25                     26                     27
                      A                      A                      A
 Frequencies --   1106.1000              1134.0816              1162.9775
 Red. masses --      2.2558                 1.5849                 1.3225
 Frc consts  --      1.6261                 1.2010                 1.0539
 IR Inten    --      7.1012                 0.8568                22.3087

                     28                     29                     30
                      A                      A                      A
 Frequencies --   1167.5766              1217.4020              1253.0470
 Red. masses --      1.1423                 1.8543                 1.5907
 Frc consts  --      0.9175                 1.6191                 1.4715
 IR Inten    --      2.1731                 8.8379                28.8709

                     31                     32                     33
                      A                      A                      A
 Frequencies --   1259.1465              1274.8763              1305.5449
 Red. masses --      1.6741                 1.9130                 1.4202
 Frc consts  --      1.5638                 1.8319                 1.4262
 IR Inten    --     27.1792                30.4074                35.4710

                     34                     35                     36
                      A                      A                      A
 Frequencies --   1311.6561              1345.5392              1361.3653
 Red. masses --      1.5210                 1.6786                 1.6407
 Frc consts  --      1.5418                 1.7905                 1.7915
 IR Inten    --     12.3909                 2.8787                14.1275

                     37                     38                     39
                      A                      A                      A
 Frequencies --   1365.8425              1406.2787              1470.3746
 Red. masses --      1.4522                 1.8352                 1.1653
 Frc consts  --      1.5962                 2.1383                 1.4844
 IR Inten    --      4.6355                12.0111                 5.1743

                     40                     41                     42
                      A                      A                      A
 Frequencies --   1489.5219              1525.1451              3008.1453
 Red. masses --      1.3500                 1.1007                 1.0558
 Frc consts  --      1.7648                 1.5085                 5.6290
 IR Inten    --      6.8592                 0.8085                85.3366

                     43                     44                     45
                      A                      A                      A
 Frequencies --   3027.6994              3044.1491              3051.8831
 Red. masses --      1.0723                 1.0796                 1.1087
 Frc consts  --      5.7914                 5.8945                 6.0842
 IR Inten    --     20.0882                71.1190                24.3471

                     46                     47                     48
                      A                      A                      A
 Frequencies --   3082.3749              3099.5614              3114.7082
 Red. masses --      1.0884                 1.0986                 1.0555
 Frc consts  --      6.0925                 6.2186                 6.0329
 IR Inten    --     52.4524                10.3634                13.5731

                     49                     50                     51
                      A                      A                      A
 Frequencies --   3170.6246              3211.1344              3796.6158
 Red. masses --      1.0909                 1.1147                 1.0661
 Frc consts  --      6.4614                 6.7718                 9.0543
 IR Inten    --      6.9121                 9.3552                19.1658

 - Thermochemistry -
 -------------------
 Temperature   298.150 Kelvin.  Pressure   1.00000 Atm.
 Atom     1 has atomic number  8 and mass  15.99491

 Molecular mass:   126.06808 amu.
 Principal axes and moments of inertia in atomic units:
                           1         2         3
     Eigenvalues --   576.769781254.351331389.05279
           X            0.99975  -0.01568   0.01563
           Y            0.01661   0.99798  -0.06131
           Z           -0.01463   0.06155   0.99800
 This molecule is an asymmetric top.
 Rotational symmetry number  1.
 Warning -- assumption of classical behavior for rotation
           may cause significant error
 Rotational temperatures (Kelvin)      0.15017     0.06905     0.06235
 Rotational constants (GHZ):           3.12905     1.43878     1.29926
 Zero-point vibrational energy     421444.8 (Joules/Mol)
                                  100.72772 (Kcal/Mol)
 Warning -- explicit consideration of   9 degrees of freedom as
           vibrations may cause significant error
 Vibrational temperatures:    116.81   206.73   400.74   446.89   519.93
          (Kelvin)            546.83   595.89   638.28   825.29   937.98
                             1052.95  1129.84  1178.54  1239.00  1265.98
                             1320.42  1336.19  1359.18  1438.45  1469.14
                             1473.22  1486.72  1511.14  1526.64  1591.43
                             1631.69  1673.26  1679.88  1751.57  1802.85
                             1811.63  1834.26  1878.39  1887.18  1935.93
                             1958.70  1965.14  2023.32  2115.54  2143.09
                             2194.34  4328.04  4356.18  4379.85  4390.97
                             4434.84  4459.57  4481.36  4561.82  4620.10
                             5462.48

 Zero-point correction=                           0.160520 (Hartree/Particle)
 Thermal correction to Energy=                    0.168112
 Thermal correction to Enthalpy=                  0.169057
 Thermal correction to Gibbs Free Energy=         0.128455
 Sum of electronic and zero-point Energies=           -423.000387
 Sum of electronic and thermal Energies=              -422.992794
 Sum of electronic and thermal Enthalpies=            -422.991850
 Sum of electronic and thermal Free Energies=         -423.032451

                     E (Thermal)             CV                S
                      KCal/Mol        Cal/Mol-Kelvin    Cal/Mol-Kelvin
 Total                  105.492             30.355             85.453
 Electronic               0.000              0.000              0.000
 Translational            0.889              2.981             40.409
 Rotational               0.889              2.981             28.399
 Vibrational            103.715             24.393             16.646
 Vibration     1          0.600              1.962              3.862
 Vibration     2          0.616              1.909              2.754
 Vibration     3          0.679              1.713              1.543
 Vibration     4          0.699              1.653              1.359
 Vibration     5          0.736              1.552              1.116
 Vibration     6          0.750              1.513              1.039
 Vibration     7          0.778              1.439              0.912
 Vibration     8          0.803              1.375              0.815
 Vibration     9          0.930              1.088              0.497

 Optimization completed.
    -- Stationary point found.
 Normal termination of Gaussian 09 at Mon Jan 27 18:13:31 2020.
