 Gaussian 09, Revision D.01,
 Gaussian 09:  ES64L-G09RevD.01 24-Apr-2013

 -----------------------------
 # b3lyp 6-31G(2df,p) opt Freq
 -----------------------------

 -----
 titel
 -----
 Symbolic Z-matrix:
 Charge =  0 Multiplicity = 1

 SCF Done:  E(RB3LYP) =  -423.147064283     A.U. after   13 cycles
 Optimization completed.
    -- Stationary point found.
 Normal termination of Gaussian 09 at Mon Jan 27 12:12:06 2020.

 ----------------------------------------------------------------------
 #N Geom=AllCheck Guess=TCheck SCRF=Check GenChk RB3LYP/6-31G(2df,p) Fr
 eq
 ----------------------------------------------------------------------

 Structure from the checkpoint file:  "/scratch/puck/g09_9570a17c-ee5b-416f-9817-87ecd7b86796/Gau-71647.chk"
 -----
 titel
 -----
 Charge =  0 Multiplicity = 1

                         Standard orientation:
 ---------------------------------------------------------------------
 Center     Atomic      Atomic             Coordinates (Angstroms)
 Number     Number       Type             X           Y           Z
 ---------------------------------------------------------------------
      1          6           0       -2.487565    0.240792   -0.115880
      2          6           0       -1.611182   -1.013121   -0.297894
      3          6           0       -0.446255   -0.086845    0.097500
      4          6           0        0.501397   -0.428257    1.282931
      5          6           0        1.830298   -0.194600    0.541171
      6          6           0        1.612765    1.146739   -0.195085
      7          6           0        0.644794    0.217210   -0.951063
      8          8           0        1.573650   -0.888756   -0.728714
      9          8           0       -1.352265    1.018072    0.326441
     10          1           0       -2.926789    0.649156   -1.034250
     11          1           0       -3.265521    0.182621    0.653749
     12          1           0       -1.810287   -1.818625    0.410953
     13          1           0       -1.557893   -1.429633   -1.305591
     14          1           0        0.335424    0.244788    2.128059
     15          1           0        0.402001   -1.463395    1.617733
     16          1           0        2.767937   -0.473779    1.020682
     17          1           0        1.205380    1.998891    0.352762
     18          1           0        2.471114    1.424633   -0.807218
     19          1           0        0.342052    0.359311   -1.988769
 ---------------------------------------------------------------------

 SCF Done:  E(RB3LYP) =  -423.147064283     A.U. after    1 cycles

 The electronic state is 1-A.
 Alpha  occ. eigenvalues --  -19.13261 -19.13174 -10.23774 -10.23758 -10.23245
 Alpha  occ. eigenvalues --  -10.23066 -10.18720 -10.18559 -10.18051  -1.05158
 Alpha  occ. eigenvalues --   -1.03146  -0.78831  -0.74437  -0.71183  -0.69900
 Alpha  occ. eigenvalues --   -0.61667  -0.56034  -0.53386  -0.50794  -0.48556
 Alpha  occ. eigenvalues --   -0.46806  -0.46215  -0.44125  -0.42175  -0.38389
 Alpha  occ. eigenvalues --   -0.38047  -0.36726  -0.35188  -0.33303  -0.32626
 Alpha  occ. eigenvalues --   -0.31137  -0.29916  -0.26564  -0.23036
 Alpha virt. eigenvalues --    0.07706   0.09179   0.10156   0.11667   0.12155
 Alpha virt. eigenvalues --    0.13274   0.13897   0.14606   0.16691   0.17084
 Alpha virt. eigenvalues --    0.17565   0.18196   0.18727   0.19409   0.21137

 Mulliken charges:
               1
     1  C   -0.075344
     2  C   -0.363933
     3  C    0.486209
     4  C   -0.302901
     5  C    0.076247
     6  C   -0.238357
     7  C    0.016315
     8  O   -0.304977
     9  O   -0.330154
    10  H    0.102766
    11  H    0.104898
    12  H    0.112173
    13  H    0.115022
    14  H    0.113239
    15  H    0.107871
    16  H    0.080913
    17  H    0.114690
    18  H    0.110101
    19  H    0.075222
 Sum of Mulliken charges =   0.00000

 Dipole moment (field-independent basis, Debye):
    X=             -0.6472    Y=             -0.1273    Z=              0.3556  Tot=              0.7494
 Quadrupole moment (field-independent basis, Debye-Ang):
   XX=            -50.6952   YY=            -55.8495   ZZ=            -51.5738
   XY=              4.3750   XZ=              3.2635   YZ=             -2.5649

  Exact polarizability:  85.986   1.524  66.534   2.499  -2.416  69.428
 Approx polarizability: 110.912  -2.238 103.606   2.503   0.543 105.187

                      1                      2                      3
                      A                      A                      A
 Frequencies --     86.9365               126.0685               242.5432
 Red. masses --      2.2268                 3.5400                 3.1766
 Frc consts  --      0.0099                 0.0331                 0.1101
 IR Inten    --      0.8610                 4.1079                 4.0595

                      4                      5                      6
                      A                      A                      A
 Frequencies --    357.4761               413.8775               438.6642
 Red. masses --      3.1764                 1.8668                 3.8871
 Frc consts  --      0.2392                 0.1884                 0.4407
 IR Inten    --      1.5883                 1.9922                 1.1830

                      7                      8                      9
                      A                      A                      A
 Frequencies --    492.4143               562.1424               753.4986
 Red. masses --      3.0062                 3.9306                 3.4199
 Frc consts  --      0.4295                 0.7318                 1.1440
 IR Inten    --      0.8234                 8.8792                 2.4364

                     10                     11                     12
                      A                      A                      A
 Frequencies --    776.1142               827.1473               840.6399
 Red. masses --      1.2529                 2.3700                 2.8701
 Frc consts  --      0.4447                 0.9554                 1.1950
 IR Inten    --      0.5627                 0.7200                18.0020

                     13                     14                     15
                      A                      A                      A
 Frequencies --    867.3020               881.6623               893.5875
 Red. masses --      3.8062                 2.7341                 3.1276
 Frc consts  --      1.6869                 1.2522                 1.4714
 IR Inten    --     18.3501                 5.0410                38.7513

                     16                     17                     18
                      A                      A                      A
 Frequencies --    907.2183               945.2955               969.4007
 Red. masses --      2.3689                 2.4060                 2.0936
 Frc consts  --      1.1487                 1.2667                 1.1592
 IR Inten    --      0.4540                11.9410                11.5679

                     19                     20                     21
                      A                      A                      A
 Frequencies --    973.9476              1017.7874              1018.4040
 Red. masses --      2.4836                 1.6074                 4.5478
 Frc consts  --      1.3880                 0.9811                 2.7790
 IR Inten    --      5.6103                 8.2330               106.6719

                     22                     23                     24
                      A                      A                      A
 Frequencies --   1039.4406              1064.7810              1090.7168
 Red. masses --      1.5828                 2.8588                 1.5120
 Frc consts  --      1.0076                 1.9097                 1.0598
 IR Inten    --     18.1411                 1.1905                11.3123

                     25                     26                     27
                      A                      A                      A
 Frequencies --   1160.0402              1162.8127              1191.5993
 Red. masses --      1.3071                 1.8313                 1.7973
 Frc consts  --      1.0364                 1.4589                 1.5036
 IR Inten    --      1.3224                41.4952                 2.9258

                     28                     29                     30
                      A                      A                      A
 Frequencies --   1193.5539              1206.9094              1220.2658
 Red. masses --      1.6380                 1.6470                 1.4515
 Frc consts  --      1.3749                 1.4135                 1.2735
 IR Inten    --      3.1321                 2.9646                 0.8432

                     31                     32                     33
                      A                      A                      A
 Frequencies --   1230.4056              1252.9091              1270.7779
 Red. masses --      1.4609                 1.4844                 1.6062
 Frc consts  --      1.3031                 1.3729                 1.5282
 IR Inten    --      3.2813                12.5973                 2.0763

                     34                     35                     36
                      A                      A                      A
 Frequencies --   1301.6023              1308.2503              1344.2218
 Red. masses --      1.7799                 1.5460                 1.6165
 Frc consts  --      1.7767                 1.5590                 1.7210
 IR Inten    --     10.8168                 1.2798                 7.9069

                     37                     38                     39
                      A                      A                      A
 Frequencies --   1359.8768              1470.6693              1489.2302
 Red. masses --      1.7399                 1.1071                 1.1327
 Frc consts  --      1.8958                 1.4109                 1.4800
 IR Inten    --      4.6035                 3.3573                 0.7305

                     40                     41                     42
                      A                      A                      A
 Frequencies --   1490.4901              1531.9313              3020.2334
 Red. masses --      1.1091                 1.1100                 1.0562
 Frc consts  --      1.4518                 1.5347                 5.6764
 IR Inten    --      5.7457                 1.2702                88.4858

                     43                     44                     45
                      A                      A                      A
 Frequencies --   3061.7726              3066.8495              3077.1804
 Red. masses --      1.1102                 1.0584                 1.0597
 Frc consts  --      6.1320                 5.8654                 5.9122
 IR Inten    --     33.5338                17.7347                18.6630

                     46                     47                     48
                      A                      A                      A
 Frequencies --   3077.9935              3120.1627              3121.3374
 Red. masses --      1.0570                 1.0923                 1.1052
 Frc consts  --      5.9002                 6.2655                 6.3442
 IR Inten    --     23.6868                44.6047                14.4779

                     49                     50                     51
                      A                      A                      A
 Frequencies --   3128.1513              3130.9789              3150.9720
 Red. masses --      1.0935                 1.1083                 1.1096
 Frc consts  --      6.3046                 6.4013                 6.4910
 IR Inten    --     30.9558                26.0370                20.2624

 - Thermochemistry -
 -------------------
 Temperature   298.150 Kelvin.  Pressure   1.00000 Atm.
 Atom     1 has atomic number  6 and mass  12.00000

 Molecular mass:   126.06808 amu.
 Principal axes and moments of inertia in atomic units:
                           1         2         3
     Eigenvalues --   492.915761282.375921333.25557
           X            0.99931   0.03556   0.01088
           Y           -0.03270   0.97959  -0.19830
           Z           -0.01771   0.19781   0.98008
 This molecule is an asymmetric top.
 Rotational symmetry number  1.
 Warning -- assumption of classical behavior for rotation
           may cause significant error
 Rotational temperatures (Kelvin)      0.17572     0.06754     0.06496
 Rotational constants (GHZ):           3.66136     1.40734     1.35363
 Zero-point vibrational energy     423048.8 (Joules/Mol)
                                  101.11110 (Kcal/Mol)
 Warning -- explicit consideration of   8 degrees of freedom as
           vibrations may cause significant error
 Vibrational temperatures:    125.08   181.38   348.97   514.33   595.48
          (Kelvin)            631.14   708.47   808.80  1084.12  1116.65
                             1190.08  1209.49  1247.85  1268.51  1285.67
                             1305.28  1360.07  1394.75  1401.29  1464.37
                             1465.25  1495.52  1531.98  1569.30  1669.04
                             1673.03  1714.44  1717.26  1736.47  1755.69
                             1770.28  1802.65  1828.36  1872.71  1882.28
                             1934.03  1956.56  2115.96  2142.67  2144.48
                             2204.10  4345.44  4405.20  4412.51  4427.37
                             4428.54  4489.21  4490.90  4500.71  4504.77
                             4533.54

 Zero-point correction=                           0.161131 (Hartree/Particle)
 Thermal correction to Energy=                    0.168274
 Thermal correction to Enthalpy=                  0.169218
 Thermal correction to Gibbs Free Energy=         0.129367
 Sum of electronic and zero-point Energies=           -422.985933
 Sum of electronic and thermal Energies=              -422.978791
 Sum of electronic and thermal Enthalpies=            -422.977847
 Sum of electronic and thermal Free Energies=         -423.017698

                     E (Thermal)             CV                S
                      KCal/Mol        Cal/Mol-Kelvin    Cal/Mol-Kelvin
 Total                  105.593             28.627             83.874
 Electronic               0.000              0.000              0.000
 Translational            0.889              2.981             40.409
 Rotational               0.889              2.981             28.224
 Vibrational            103.816             22.666             15.242
 Vibration     1          0.601              1.958              3.728
 Vibration     2          0.611              1.927              3.005
 Vibration     3          0.659              1.775              1.784
 Vibration     4          0.733              1.560              1.133
 Vibration     5          0.777              1.440              0.913
 Vibration     6          0.799              1.386              0.831
 Vibration     7          0.848              1.267              0.677
 Vibration     8          0.918              1.113              0.520

 Optimization completed.
    -- Stationary point found.
 Normal termination of Gaussian 09 at Mon Jan 27 12:58:07 2020.
