 Gaussian 09, Revision D.01,
 Gaussian 09:  ES64L-G09RevD.01 24-Apr-2013

 -----------------------------
 # b3lyp 6-31G(2df,p) opt Freq
 -----------------------------

 -----
 titel
 -----
 Symbolic Z-matrix:
 Charge =  0 Multiplicity = 1

 SCF Done:  E(RB3LYP) =  -423.161399603     A.U. after   13 cycles
 Optimization completed.
    -- Stationary point found.
 Normal termination of Gaussian 09 at Tue Jan 28 03:25:04 2020.

 ----------------------------------------------------------------------
 #N Geom=AllCheck Guess=TCheck SCRF=Check GenChk RB3LYP/6-31G(2df,p) Fr
 eq
 ----------------------------------------------------------------------

 Structure from the checkpoint file:  "/scratch/puck/g09_e5e50022-6692-4a13-a196-0906c37e9e66/Gau-79366.chk"
 -----
 titel
 -----
 Charge =  0 Multiplicity = 1

                         Standard orientation:
 ---------------------------------------------------------------------
 Center     Atomic      Atomic             Coordinates (Angstroms)
 Number     Number       Type             X           Y           Z
 ---------------------------------------------------------------------
      1          6           0       -2.478411   -0.664148   -0.148525
      2          6           0       -1.129133   -0.049451    0.012027
      3          8           0       -0.459237    0.409773   -1.180557
      4          6           0        0.287440    1.387297   -0.362136
      5          6           0        1.672812    0.814552   -0.106889
      6          6           0        1.346120   -0.579050    0.509414
      7          8           0        1.447917   -1.633701   -0.433072
      8          6           0       -0.079806   -0.402326    1.052421
      9          6           0       -0.560380    1.031496    0.875566
     10          1           0       -3.158612    0.018084   -0.667935
     11          1           0       -2.413555   -1.591921   -0.727707
     12          1           0       -2.904646   -0.906296    0.829299
     13          1           0        0.220112    2.389028   -0.788480
     14          1           0        2.276299    0.707613   -1.012166
     15          1           0        2.214250    1.452268    0.601678
     16          1           0        2.043866   -0.836061    1.310553
     17          1           0        0.866345   -1.380809   -1.161989
     18          1           0       -0.414983   -0.973485    1.910686
     19          1           0       -0.990365    1.682780    1.623826
 ---------------------------------------------------------------------

 SCF Done:  E(RB3LYP) =  -423.161399603     A.U. after    1 cycles

 The electronic state is 1-A.
 Alpha  occ. eigenvalues --  -19.14117 -19.11862 -10.24689 -10.24186 -10.22967
 Alpha  occ. eigenvalues --  -10.19349 -10.18914 -10.18744 -10.18045  -1.05663
 Alpha  occ. eigenvalues --   -1.00163  -0.84622  -0.77896  -0.72077  -0.68485
 Alpha  occ. eigenvalues --   -0.59660  -0.57422  -0.53512  -0.52057  -0.49494
 Alpha  occ. eigenvalues --   -0.45651  -0.44034  -0.42413  -0.41303  -0.40256
 Alpha  occ. eigenvalues --   -0.39923  -0.37435  -0.36872  -0.34512  -0.32216
 Alpha  occ. eigenvalues --   -0.30918  -0.28035  -0.24956  -0.23188
 Alpha virt. eigenvalues --    0.07895   0.09624   0.10693   0.11450   0.12846
 Alpha virt. eigenvalues --    0.13660   0.14348   0.15471   0.15601   0.16639
 Alpha virt. eigenvalues --    0.17208   0.17875   0.19036   0.19530   0.21958

 Mulliken charges:
               1
     1  C   -0.500592
     2  C    0.463909
     3  O   -0.360524
     4  C    0.083293
     5  C   -0.250189
     6  C    0.128748
     7  O   -0.444979
     8  C   -0.151583
     9  C   -0.208264
    10  H    0.130568
    11  H    0.134448
    12  H    0.127472
    13  H    0.082712
    14  H    0.111890
    15  H    0.100469
    16  H    0.081889
    17  H    0.284433
    18  H    0.088887
    19  H    0.097412
 Sum of Mulliken charges =   0.00000

 Dipole moment (field-independent basis, Debye):
    X=             -1.1783    Y=              1.6833    Z=              1.4210  Tot=              2.4983
 Quadrupole moment (field-independent basis, Debye-Ang):
   XX=            -52.4491   YY=            -54.1973   ZZ=            -52.4841
   XY=              4.4199   XZ=             -0.5416   YZ=              0.1334

  Exact polarizability:  81.125   3.217  72.938   0.680  -0.415  67.007
 Approx polarizability: 106.985   1.908 110.201   3.012   1.170 107.648

                      1                      2                      3
                      A                      A                      A
 Frequencies --    147.2106               183.9252               206.0378
 Red. masses --      3.7241                 2.3673                 1.2281
 Frc consts  --      0.0475                 0.0472                 0.0307
 IR Inten    --      2.3757                 3.2099                 0.8781

                      4                      5                      6
                      A                      A                      A
 Frequencies --    280.8221               356.6587               432.5010
 Red. masses --      2.5339                 3.4876                 2.0122
 Frc consts  --      0.1177                 0.2614                 0.2218
 IR Inten    --      1.1264                 0.3684                 1.0337

                      7                      8                      9
                      A                      A                      A
 Frequencies --    469.9994               519.1228               552.7511
 Red. masses --      5.0152                 1.3905                 2.3096
 Frc consts  --      0.6527                 0.2208                 0.4158
 IR Inten    --      5.9904                48.8063                26.8155

                     10                     11                     12
                      A                      A                      A
 Frequencies --    591.4739               721.1868               746.3531
 Red. masses --      3.6790                 3.4167                 3.6426
 Frc consts  --      0.7583                 1.0470                 1.1955
 IR Inten    --      0.9332                14.6770                 9.5122

                     13                     14                     15
                      A                      A                      A
 Frequencies --    811.5990               833.1486               839.3158
 Red. masses --      2.5605                 3.2683                 3.5014
 Frc consts  --      0.9937                 1.3367                 1.4532
 IR Inten    --      9.1603                 5.6481                12.9584

                     16                     17                     18
                      A                      A                      A
 Frequencies --    870.2186               889.9043               916.3484
 Red. masses --      2.4926                 1.5038                 2.6184
 Frc consts  --      1.1121                 0.7017                 1.2954
 IR Inten    --      8.4613                 6.5186                 2.8855

                     19                     20                     21
                      A                      A                      A
 Frequencies --    953.9278               973.0609               983.2588
 Red. masses --      2.7612                 1.8526                 1.8317
 Frc consts  --      1.4804                 1.0335                 1.0434
 IR Inten    --     33.9051                 3.5709                31.8636

                     22                     23                     24
                      A                      A                      A
 Frequencies --   1005.0510              1041.9857              1055.2504
 Red. masses --      1.5500                 2.6974                 2.0838
 Frc consts  --      0.9225                 1.7255                 1.3671
 IR Inten    --      0.2537                 4.8940                17.9747

                     25                     26                     27
                      A                      A                      A
 Frequencies --   1073.7070              1112.0624              1160.8672
 Red. masses --      2.1036                 1.7195                 1.2243
 Frc consts  --      1.4288                 1.2529                 0.9721
 IR Inten    --     90.9146                 5.4896                40.3889

                     28                     29                     30
                      A                      A                      A
 Frequencies --   1172.6199              1201.4704              1237.4452
 Red. masses --      1.9158                 2.0388                 2.0503
 Frc consts  --      1.5520                 1.7340                 1.8498
 IR Inten    --     18.2656                 2.3646                 7.4898

                     31                     32                     33
                      A                      A                      A
 Frequencies --   1261.2979              1295.1815              1316.3377
 Red. masses --      1.4941                 1.6671                 1.4552
 Frc consts  --      1.4005                 1.6477                 1.4856
 IR Inten    --      2.0923                12.1086                15.7028

                     34                     35                     36
                      A                      A                      A
 Frequencies --   1325.9257              1336.5695              1405.6630
 Red. masses --      1.5468                 1.5576                 1.2677
 Frc consts  --      1.6022                 1.6394                 1.4759
 IR Inten    --     12.1992                 0.1141                 3.8152

                     37                     38                     39
                      A                      A                      A
 Frequencies --   1451.4250              1464.4698              1471.6122
 Red. masses --      1.2161                 2.7280                 1.1254
 Frc consts  --      1.5094                 3.4472                 1.4360
 IR Inten    --     73.9718                13.9791                 6.1133

                     40                     41                     42
                      A                      A                      A
 Frequencies --   1475.2222              1499.2332              3034.4247
 Red. masses --      1.1267                 1.1488                 1.0355
 Frc consts  --      1.4447                 1.5213                 5.6176
 IR Inten    --      5.6350                 5.9133                23.7716

                     43                     44                     45
                      A                      A                      A
 Frequencies --   3041.1344              3077.3942              3099.6835
 Red. masses --      1.0640                 1.0863                 1.1008
 Frc consts  --      5.7979                 6.0612                 6.2315
 IR Inten    --     17.5994                42.5971                14.5811

                     46                     47                     48
                      A                      A                      A
 Frequencies --   3104.7471              3108.9389              3117.1654
 Red. masses --      1.0974                 1.0943                 1.1008
 Frc consts  --      6.2325                 6.2317                 6.3019
 IR Inten    --     25.0691                33.1196                13.8812

                     49                     50                     51
                      A                      A                      A
 Frequencies --   3182.1467              3206.9512              3765.2200
 Red. masses --      1.0901                 1.0967                 1.0653
 Frc consts  --      6.5037                 6.6456                 8.8979
 IR Inten    --      9.5605                10.4010                28.6865

 - Thermochemistry -
 -------------------
 Temperature   298.150 Kelvin.  Pressure   1.00000 Atm.
 Atom     1 has atomic number  6 and mass  12.00000

 Molecular mass:   126.06808 amu.
 Principal axes and moments of inertia in atomic units:
                           1         2         3
     Eigenvalues --   657.571841047.395001233.77835
           X            0.99761   0.06906  -0.00275
           Y           -0.06905   0.99761   0.00073
           Z            0.00279  -0.00053   1.00000
 This molecule is an asymmetric top.
 Rotational symmetry number  1.
 Warning -- assumption of classical behavior for rotation
           may cause significant error
 Rotational temperatures (Kelvin)      0.13172     0.08269     0.07020
 Rotational constants (GHZ):           2.74455     1.72308     1.46278
 Zero-point vibrational energy     420966.0 (Joules/Mol)
                                  100.61330 (Kcal/Mol)
 Warning -- explicit consideration of  10 degrees of freedom as
           vibrations may cause significant error
 Vibrational temperatures:    211.80   264.63   296.44   404.04   513.15
          (Kelvin)            622.27   676.22   746.90   795.28   851.00
                             1037.63  1073.83  1167.71  1198.71  1207.59
                             1252.05  1280.37  1318.42  1372.49  1400.02
                             1414.69  1446.04  1499.18  1518.27  1544.82
                             1600.01  1670.23  1687.14  1728.65  1780.41
                             1814.72  1863.48  1893.91  1907.71  1923.02
                             2022.43  2088.27  2107.04  2117.32  2122.51
                             2157.06  4365.85  4375.51  4427.68  4459.75
                             4467.03  4473.06  4484.90  4578.39  4614.08
                             5417.30

 Zero-point correction=                           0.160338 (Hartree/Particle)
 Thermal correction to Energy=                    0.167855
 Thermal correction to Enthalpy=                  0.168799
 Thermal correction to Gibbs Free Energy=         0.128797
 Sum of electronic and zero-point Energies=           -423.001062
 Sum of electronic and thermal Energies=              -422.993545
 Sum of electronic and thermal Enthalpies=            -422.992600
 Sum of electronic and thermal Free Energies=         -423.032603

                     E (Thermal)             CV                S
                      KCal/Mol        Cal/Mol-Kelvin    Cal/Mol-Kelvin
 Total                  105.331             30.740             84.192
 Electronic               0.000              0.000              0.000
 Translational            0.889              2.981             40.409
 Rotational               0.889              2.981             28.232
 Vibrational            103.553             24.778             15.551
 Vibration     1          0.617              1.906              2.708
 Vibration     2          0.631              1.862              2.288
 Vibration     3          0.641              1.831              2.079
 Vibration     4          0.680              1.709              1.529
 Vibration     5          0.732              1.562              1.137
 Vibration     6          0.793              1.399              0.851
 Vibration     7          0.827              1.317              0.738
 Vibration     8          0.874              1.208              0.612
 Vibration     9          0.908              1.134              0.539
 Vibration    10          0.949              1.050              0.465

 Optimization completed.
    -- Stationary point found.
 Normal termination of Gaussian 09 at Tue Jan 28 04:10:15 2020.
