 Gaussian 09, Revision D.01,
 Gaussian 09:  ES64L-G09RevD.01 24-Apr-2013

 -----------------------------
 # b3lyp 6-31G(2df,p) opt Freq
 -----------------------------

 -----
 titel
 -----
 Symbolic Z-matrix:
 Charge =  0 Multiplicity = 1

 SCF Done:  E(RB3LYP) =  -423.090451627     A.U. after   14 cycles
 Optimization completed.
    -- Stationary point found.
 Normal termination of Gaussian 09 at Tue Jan 28 01:54:01 2020.

 ----------------------------------------------------------------------
 #N Geom=AllCheck Guess=TCheck SCRF=Check GenChk RB3LYP/6-31G(2df,p) Fr
 eq
 ----------------------------------------------------------------------

 Structure from the checkpoint file:  "/scratch/puck/g09_32c199dd-74a2-4110-8ac9-b12e5bfd29fd/Gau-122202.chk"
 -----
 titel
 -----
 Charge =  0 Multiplicity = 1

                         Standard orientation:
 ---------------------------------------------------------------------
 Center     Atomic      Atomic             Coordinates (Angstroms)
 Number     Number       Type             X           Y           Z
 ---------------------------------------------------------------------
      1          6           0       -0.964365    1.906518   -0.471471
      2          6           0       -0.885794    0.480768   -0.033356
      3          6           0       -1.273601   -0.186584    1.317817
      4          6           0       -0.962644   -1.297083    0.286587
      5          8           0       -1.742862   -0.538745   -0.719194
      6          6           0        0.282440   -0.516447   -0.141337
      7          6           0        1.331977   -0.697326   -1.183692
      8          6           0        1.699651   -0.446402    0.279251
      9          8           0        2.169209    0.815082    0.668842
     10          1           0       -0.241224    2.502327    0.092344
     11          1           0       -0.728779    1.990529   -1.536996
     12          1           0       -1.968204    2.307941   -0.304889
     13          1           0       -0.594514   -0.057382    2.164017
     14          1           0       -2.327863   -0.095603    1.584136
     15          1           0       -1.126192   -2.372877    0.345518
     16          1           0        1.512802   -1.683769   -1.599680
     17          1           0        1.494657    0.125704   -1.873497
     18          1           0        2.120217   -1.285710    0.835476
     19          1           0        3.082334    0.897479    0.373599
 ---------------------------------------------------------------------

 SCF Done:  E(RB3LYP) =  -423.090451627     A.U. after    1 cycles

 The electronic state is 1-A.
 Alpha  occ. eigenvalues --  -19.14741 -19.12032 -10.24698 -10.24225 -10.23666
 Alpha  occ. eigenvalues --  -10.19670 -10.18427 -10.18347 -10.17795  -1.04546
 Alpha  occ. eigenvalues --   -1.02947  -0.84745  -0.76688  -0.73614  -0.62935
 Alpha  occ. eigenvalues --   -0.61000  -0.60770  -0.52167  -0.51878  -0.47595
 Alpha  occ. eigenvalues --   -0.46848  -0.43860  -0.43117  -0.41320  -0.40326
 Alpha  occ. eigenvalues --   -0.38351  -0.36212  -0.34414  -0.32601  -0.31386
 Alpha  occ. eigenvalues --   -0.30690  -0.27653  -0.26306  -0.22635
 Alpha virt. eigenvalues --    0.06958   0.09638   0.10158   0.11837   0.12074
 Alpha virt. eigenvalues --    0.13570   0.13749   0.14692   0.15810   0.16731
 Alpha virt. eigenvalues --    0.17644   0.17852   0.19534   0.20760   0.21230

 Mulliken charges:
               1
     1  C   -0.520846
     2  C    0.334049
     3  C   -0.258161
     4  C   -0.062585
     5  O   -0.347130
     6  C    0.415820
     7  C   -0.428357
     8  C   -0.016342
     9  O   -0.425163
    10  H    0.143789
    11  H    0.131179
    12  H    0.129894
    13  H    0.104080
    14  H    0.099724
    15  H    0.092444
    16  H    0.114668
    17  H    0.117052
    18  H    0.086999
    19  H    0.288885
 Sum of Mulliken charges =   0.00000

 Dipole moment (field-independent basis, Debye):
    X=              2.2252    Y=             -0.1122    Z=              0.5100  Tot=              2.2857
 Quadrupole moment (field-independent basis, Debye-Ang):
   XX=            -50.3394   YY=            -49.9828   ZZ=            -54.6809
   XY=             -1.6120   XZ=             -3.9378   YZ=             -2.3808

  Exact polarizability:  82.306  -0.819  76.426  -4.040  -0.515  70.758
 Approx polarizability: 114.775   1.731 110.139   0.023   1.376 108.551

                      1                      2                      3
                      A                      A                      A
 Frequencies --    123.8364               139.7113               183.0077
 Red. masses --      3.9925                 3.4138                 1.6541
 Frc consts  --      0.0361                 0.0393                 0.0326
 IR Inten    --      1.5201                 2.3352                 1.5307

                      4                      5                      6
                      A                      A                      A
 Frequencies --    193.6027               306.2208               316.8106
 Red. masses --      1.4581                 2.6990                 1.9208
 Frc consts  --      0.0322                 0.1491                 0.1136
 IR Inten    --      1.9138                10.9987                30.3807

                      7                      8                      9
                      A                      A                      A
 Frequencies --    329.3605               414.9223               441.2253
 Red. masses --      1.5623                 3.0287                 2.5859
 Frc consts  --      0.0999                 0.3072                 0.2966
 IR Inten    --     60.4039                 7.0036                 5.0460

                     10                     11                     12
                      A                      A                      A
 Frequencies --    496.0091               619.9436               649.4016
 Red. masses --      2.7002                 2.8993                 3.3526
 Frc consts  --      0.3914                 0.6565                 0.8330
 IR Inten    --      4.6684                 5.9477                 2.9909

                     13                     14                     15
                      A                      A                      A
 Frequencies --    682.1481               707.6625               804.3168
 Red. masses --      3.6336                 3.9213                 2.1663
 Frc consts  --      0.9962                 1.1570                 0.8257
 IR Inten    --      8.3160                19.2589                 0.0418

                     16                     17                     18
                      A                      A                      A
 Frequencies --    831.8124               868.5732               908.1530
 Red. masses --      2.2142                 2.5590                 2.3503
 Frc consts  --      0.9027                 1.1375                 1.1421
 IR Inten    --     14.6928                18.8136                 9.5170

                     19                     20                     21
                      A                      A                      A
 Frequencies --    948.9336               968.5324               996.7392
 Red. masses --      2.2492                 2.0513                 2.5396
 Frc consts  --      1.1933                 1.1337                 1.4865
 IR Inten    --      5.9473                 1.1992                 5.8086

                     22                     23                     24
                      A                      A                      A
 Frequencies --   1022.5578              1031.5836              1068.5749
 Red. masses --      1.3318                 1.2453                 2.0974
 Frc consts  --      0.8205                 0.7808                 1.4110
 IR Inten    --      4.3838                 5.2373                22.2377

                     25                     26                     27
                      A                      A                      A
 Frequencies --   1085.9849              1106.3081              1145.2158
 Red. masses --      1.9485                 1.5191                 1.6546
 Frc consts  --      1.3539                 1.0955                 1.2786
 IR Inten    --     10.6466                 7.5087                 3.7097

                     28                     29                     30
                      A                      A                      A
 Frequencies --   1153.2007              1161.0668              1204.0549
 Red. masses --      1.7437                 2.8949                 1.7144
 Frc consts  --      1.3662                 2.2993                 1.4644
 IR Inten    --      1.5099                50.5606                 4.6372

                     31                     32                     33
                      A                      A                      A
 Frequencies --   1220.2046              1228.3154              1291.8719
 Red. masses --      1.7613                 1.6411                 1.2319
 Frc consts  --      1.5451                 1.4588                 1.2113
 IR Inten    --     22.4313                 7.2885                57.8412

                     34                     35                     36
                      A                      A                      A
 Frequencies --   1317.7232              1377.6481              1411.1455
 Red. masses --      2.3576                 1.5191                 1.5790
 Frc consts  --      2.4120                 1.6987                 1.8526
 IR Inten    --     38.3311                 0.7333                19.2785

                     37                     38                     39
                      A                      A                      A
 Frequencies --   1434.0609              1476.7363              1482.0961
 Red. masses --      1.2455                 1.0526                 1.2539
 Frc consts  --      1.5092                 1.3524                 1.6228
 IR Inten    --      6.3477                 3.6270                 1.8340

                     40                     41                     42
                      A                      A                      A
 Frequencies --   1489.6761              1528.2093              3042.0033
 Red. masses --      1.0480                 3.3931                 1.0346
 Frc consts  --      1.3703                 4.6689                 5.6411
 IR Inten    --      4.1808                 9.0886                14.2932

                     43                     44                     45
                      A                      A                      A
 Frequencies --   3063.6214              3085.9363              3113.7473
 Red. masses --      1.0545                 1.0868                 1.1014
 Frc consts  --      5.8310                 6.0979                 6.2916
 IR Inten    --     32.0035                35.8772                13.0200

                     46                     47                     48
                      A                      A                      A
 Frequencies --   3119.1042              3123.7393              3126.0989
 Red. masses --      1.0541                 1.0936                 1.1014
 Frc consts  --      6.0420                 6.2874                 6.3413
 IR Inten    --     10.8393                51.4944                 7.0703

                     49                     50                     51
                      A                      A                      A
 Frequencies --   3145.9679              3206.6956              3800.9187
 Red. masses --      1.1115                 1.1163                 1.0662
 Frc consts  --      6.4814                 6.7632                 9.0757
 IR Inten    --     27.2802                 7.8304                21.4786

 - Thermochemistry -
 -------------------
 Temperature   298.150 Kelvin.  Pressure   1.00000 Atm.
 Atom     1 has atomic number  6 and mass  12.00000

 Molecular mass:   126.06808 amu.
 Principal axes and moments of inertia in atomic units:
                           1         2         3
     Eigenvalues --   695.144351203.444471367.26902
           X            0.99860  -0.04388  -0.02951
           Y            0.04210   0.99739  -0.05871
           Z            0.03201   0.05739   0.99784
 This molecule is an asymmetric top.
 Rotational symmetry number  1.
 Warning -- assumption of classical behavior for rotation
           may cause significant error
 Rotational temperatures (Kelvin)      0.12460     0.07197     0.06335
 Rotational constants (GHZ):           2.59621     1.49965     1.31996
 Zero-point vibrational energy     412681.7 (Joules/Mol)
                                   98.63329 (Kcal/Mol)
 Warning -- explicit consideration of  11 degrees of freedom as
           vibrations may cause significant error
 Vibrational temperatures:    178.17   201.01   263.31   278.55   440.58
          (Kelvin)            455.82   473.88   596.98   634.82   713.65
                              891.96   934.34   981.46  1018.17  1157.23
                             1196.79  1249.68  1306.63  1365.30  1393.50
                             1434.08  1471.23  1484.22  1537.44  1562.49
                             1591.73  1647.71  1659.20  1670.51  1732.36
                             1755.60  1767.27  1858.71  1895.91  1982.13
                             2030.32  2063.29  2124.69  2132.40  2143.31
                             2198.75  4376.76  4407.86  4439.97  4479.98
                             4487.69  4494.36  4497.75  4526.34  4613.71
                             5468.67

 Zero-point correction=                           0.157182 (Hartree/Particle)
 Thermal correction to Energy=                    0.165729
 Thermal correction to Enthalpy=                  0.166673
 Thermal correction to Gibbs Free Energy=         0.124462
 Sum of electronic and zero-point Energies=           -422.933269
 Sum of electronic and thermal Energies=              -422.924722
 Sum of electronic and thermal Enthalpies=            -422.923778
 Sum of electronic and thermal Free Energies=         -422.965990

                     E (Thermal)             CV                S
                      KCal/Mol        Cal/Mol-Kelvin    Cal/Mol-Kelvin
 Total                  103.997             33.393             88.842
 Electronic               0.000              0.000              0.000
 Translational            0.889              2.981             40.409
 Rotational               0.889              2.981             28.527
 Vibrational            102.219             27.432             19.906
 Vibration     1          0.610              1.929              3.040
 Vibration     2          0.615              1.914              2.808
 Vibration     3          0.631              1.863              2.298
 Vibration     4          0.635              1.849              2.193
 Vibration     5          0.697              1.662              1.383
 Vibration     6          0.704              1.642              1.327
 Vibration     7          0.712              1.617              1.263
 Vibration     8          0.778              1.438              0.909
 Vibration     9          0.801              1.380              0.823
 Vibration    10          0.852              1.259              0.668
 Vibration    11          0.980              0.990              0.417

 Normal termination of Gaussian 09 at Tue Jan 28 02:42:45 2020.
