 Gaussian 09, Revision D.01,
 Gaussian 09:  ES64L-G09RevD.01 24-Apr-2013

 -----------------------------
 # b3lyp 6-31G(2df,p) opt Freq
 -----------------------------

 -----
 titel
 -----
 Symbolic Z-matrix:
 Charge =  0 Multiplicity = 1

 SCF Done:  E(RB3LYP) =  -423.148737348     A.U. after   14 cycles
 Optimization completed.
    -- Stationary point found.
 Normal termination of Gaussian 09 at Tue Jan 28 12:11:15 2020.

 ----------------------------------------------------------------------
 #N Geom=AllCheck Guess=TCheck SCRF=Check GenChk RB3LYP/6-31G(2df,p) Fr
 eq
 ----------------------------------------------------------------------

 Structure from the checkpoint file:  "/scratch/puck/g09_5bff7d22-2719-4f0f-ba63-b11d312289f9/Gau-117636.chk"
 -----
 titel
 -----
 Charge =  0 Multiplicity = 1

                         Standard orientation:
 ---------------------------------------------------------------------
 Center     Atomic      Atomic             Coordinates (Angstroms)
 Number     Number       Type             X           Y           Z
 ---------------------------------------------------------------------
      1          6           0        3.336631   -0.007784   -0.108541
      2          6           0        1.921128    0.219798    0.387456
      3          8           0        1.035152   -0.553410   -0.430417
      4          6           0       -0.283676   -0.383354   -0.138134
      5          6           0       -1.455630   -0.985278   -0.971642
      6          6           0       -2.187203   -0.234592    0.195357
      7          6           0       -1.103326   -0.839194    1.143418
      8          6           0       -1.164923    0.886805   -0.061198
      9          8           0       -1.093137    2.074906   -0.139998
     10          1           0        4.045591    0.560734    0.500480
     11          1           0        3.599644   -1.067752   -0.049616
     12          1           0        3.435865    0.314166   -1.148818
     13          1           0        1.820411   -0.095311    1.436733
     14          1           0        1.643507    1.279863    0.326626
     15          1           0       -1.596078   -0.610270   -1.986706
     16          1           0       -1.528411   -2.073768   -0.919113
     17          1           0       -3.254666   -0.166444    0.372586
     18          1           0       -0.917273   -0.328367    2.089578
     19          1           0       -1.162722   -1.923229    1.261266
 ---------------------------------------------------------------------

 SCF Done:  E(RB3LYP) =  -423.148737348     A.U. after    1 cycles

 The electronic state is 1-A.
 Alpha  occ. eigenvalues --  -19.15722 -19.13792 -10.27213 -10.25833 -10.23547
 Alpha  occ. eigenvalues --  -10.21321 -10.20814 -10.20704 -10.18028  -1.05930
 Alpha  occ. eigenvalues --   -1.04484  -0.91906  -0.76340  -0.68398  -0.64557
 Alpha  occ. eigenvalues --   -0.63748  -0.60940  -0.53537  -0.50667  -0.47861
 Alpha  occ. eigenvalues --   -0.45713  -0.45413  -0.43969  -0.41693  -0.39926
 Alpha  occ. eigenvalues --   -0.38284  -0.36939  -0.36552  -0.35137  -0.34518
 Alpha  occ. eigenvalues --   -0.33888  -0.32755  -0.28144  -0.22750
 Alpha virt. eigenvalues --    0.00921   0.09107   0.10708   0.11225   0.12660
 Alpha virt. eigenvalues --    0.13273   0.14099   0.14983   0.15103   0.16049
 Alpha virt. eigenvalues --    0.17299   0.17720   0.18653   0.20031   0.20088

 Mulliken charges:
               1
     1  C   -0.387875
     2  C   -0.076875
     3  O   -0.297574
     4  C    0.317548
     5  C   -0.288183
     6  C   -0.181086
     7  C   -0.300322
     8  C    0.391327
     9  O   -0.339068
    10  H    0.119560
    11  H    0.127801
    12  H    0.131990
    13  H    0.097546
    14  H    0.127844
    15  H    0.117332
    16  H    0.112165
    17  H    0.103734
    18  H    0.112622
    19  H    0.111512
 Sum of Mulliken charges =   0.00000

 Dipole moment (field-independent basis, Debye):
    X=              0.1798    Y=             -2.0718    Z=              0.9598  Tot=              2.2904
 Quadrupole moment (field-independent basis, Debye-Ang):
   XX=            -48.9740   YY=            -59.2418   ZZ=            -51.8327
   XY=              4.6778   XZ=              1.3439   YZ=              0.0836

  Exact polarizability:  87.187   3.231  75.263   0.955  -0.407  68.026
 Approx polarizability: 109.999   2.914 121.844   0.199  -0.836 103.724

                      1                      2                      3
                      A                      A                      A
 Frequencies --     60.0604                62.2988               132.4244
 Red. masses --      3.5591                 1.8895                 3.7940
 Frc consts  --      0.0076                 0.0043                 0.0392
 IR Inten    --      1.8360                 3.0713                 2.2150

                      4                      5                      6
                      A                      A                      A
 Frequencies --    189.5537               235.3487               277.4896
 Red. masses --      4.0558                 1.3215                 3.3206
 Frc consts  --      0.0859                 0.0431                 0.1506
 IR Inten    --      1.0565                 0.3232                 3.0916

                      7                      8                      9
                      A                      A                      A
 Frequencies --    345.0178               410.7218               508.3975
 Red. masses --      3.1750                 3.9208                 2.7591
 Frc consts  --      0.2227                 0.3897                 0.4202
 IR Inten    --      1.4104                 0.6435                 2.3614

                     10                     11                     12
                      A                      A                      A
 Frequencies --    523.5123               679.6916               741.3751
 Red. masses --      2.5909                 3.8300                 3.2763
 Frc consts  --      0.4184                 1.0425                 1.0610
 IR Inten    --      0.1265                 3.9651                16.3298

                     13                     14                     15
                      A                      A                      A
 Frequencies --    768.6472               788.4297               816.0297
 Red. masses --      5.3388                 4.4517                 3.1062
 Frc consts  --      1.8584                 1.6304                 1.2187
 IR Inten    --     23.3431                 7.6431                 1.4818

                     16                     17                     18
                      A                      A                      A
 Frequencies --    821.8498               906.8698               928.4483
 Red. masses --      1.1243                 2.0706                 2.4783
 Frc consts  --      0.4474                 1.0033                 1.2587
 IR Inten    --      0.5855                20.0568                18.2550

                     19                     20                     21
                      A                      A                      A
 Frequencies --    955.7140               987.2935               998.7540
 Red. masses --      1.8559                 2.1967                 1.0758
 Frc consts  --      0.9988                 1.2616                 0.6323
 IR Inten    --      6.6422                 7.1228                 0.4232

                     22                     23                     24
                      A                      A                      A
 Frequencies --   1036.8665              1070.6200              1082.4347
 Red. masses --      1.6345                 2.6300                 2.0772
 Frc consts  --      1.0353                 1.7761                 1.4340
 IR Inten    --      0.1975                56.8351                20.6671

                     25                     26                     27
                      A                      A                      A
 Frequencies --   1110.3505              1141.9994              1163.2697
 Red. masses --      1.7577                 1.8037                 1.4955
 Frc consts  --      1.2768                 1.3859                 1.1924
 IR Inten    --      9.9751                 7.3763                 7.9496

                     28                     29                     30
                      A                      A                      A
 Frequencies --   1179.0303              1186.8611              1195.2367
 Red. masses --      1.7763                 1.5655                 1.8821
 Frc consts  --      1.4548                 1.2993                 1.5842
 IR Inten    --      4.0784                 1.9893                 0.0977

                     31                     32                     33
                      A                      A                      A
 Frequencies --   1224.3412              1299.6362              1356.2524
 Red. masses --      1.9553                 1.1031                 3.3643
 Frc consts  --      1.7269                 1.0978                 3.6461
 IR Inten    --      6.6029                 1.9737               303.8284

                     34                     35                     36
                      A                      A                      A
 Frequencies --   1405.2583              1439.4602              1483.2643
 Red. masses --      1.2910                 1.5445                 1.0399
 Frc consts  --      1.5020                 1.8856                 1.3479
 IR Inten    --     17.2135                 1.1895                 4.6200

                     37                     38                     39
                      A                      A                      A
 Frequencies --   1492.0174              1500.9243              1525.4833
 Red. masses --      1.0889                 1.0493                 1.0910
 Frc consts  --      1.4281                 1.3927                 1.4959
 IR Inten    --      0.2230                 2.2642                 5.8470

                     40                     41                     42
                      A                      A                      A
 Frequencies --   1534.7050              1909.0371              2994.2692
 Red. masses --      1.1796                12.3552                 1.0624
 Frc consts  --      1.6369                26.5294                 5.6118
 IR Inten    --      7.8862               313.0788                32.3401

                     43                     44                     45
                      A                      A                      A
 Frequencies --   3046.2101              3047.1456              3068.0028
 Red. masses --      1.0651                 1.0672                 1.0534
 Frc consts  --      5.8231                 5.8385                 5.8420
 IR Inten    --     15.7467                17.6424                27.3769

                     46                     47                     48
                      A                      A                      A
 Frequencies --   3068.7846              3121.5756              3124.7312
 Red. masses --      1.0540                 1.1015                 1.1030
 Frc consts  --      5.8483                 6.3238                 6.3450
 IR Inten    --     20.1382                21.2928                24.0465

                     49                     50                     51
                      A                      A                      A
 Frequencies --   3142.0741              3143.3458              3190.4071
 Red. masses --      1.1134                 1.1120                 1.0945
 Frc consts  --      6.4763                 6.4736                 6.5641
 IR Inten    --     18.8955                18.3068                12.2933

 - Thermochemistry -
 -------------------
 Temperature   298.150 Kelvin.  Pressure   1.00000 Atm.
 Atom     1 has atomic number  6 and mass  12.00000

 Molecular mass:   126.06808 amu.
 Principal axes and moments of inertia in atomic units:
                           1         2         3
     Eigenvalues --   590.653001577.705711827.79632
           X            0.99953   0.03032   0.00327
           Y           -0.03033   0.99954   0.00233
           Z           -0.00319  -0.00243   0.99999
 This molecule is an asymmetric top.
 Rotational symmetry number  1.
 Warning -- assumption of classical behavior for rotation
           may cause significant error
 Rotational temperatures (Kelvin)      0.14664     0.05490     0.04739
 Rotational constants (GHZ):           3.05550     1.14390     0.98739
 Zero-point vibrational energy     415232.9 (Joules/Mol)
                                   99.24305 (Kcal/Mol)
 Warning -- explicit consideration of  10 degrees of freedom as
           vibrations may cause significant error
 Vibrational temperatures:     86.41    89.63   190.53   272.73   338.61
          (Kelvin)            399.25   496.40   590.94   731.47   753.22
                              977.92  1066.67  1105.91  1134.37  1174.08
                             1182.46  1304.78  1335.83  1375.06  1420.49
                             1436.98  1491.82  1540.38  1557.38  1597.54
                             1643.08  1673.68  1696.36  1707.63  1719.68
                             1761.55  1869.88  1951.34  2021.85  2071.06
                             2134.08  2146.68  2159.49  2194.83  2208.10
                             2746.68  4308.08  4382.81  4384.16  4414.17
                             4415.29  4491.25  4495.79  4520.74  4522.57
                             4590.28

 Zero-point correction=                           0.158154 (Hartree/Particle)
 Thermal correction to Energy=                    0.166942
 Thermal correction to Enthalpy=                  0.167886
 Thermal correction to Gibbs Free Energy=         0.123826
 Sum of electronic and zero-point Energies=           -422.990583
 Sum of electronic and thermal Energies=              -422.981796
 Sum of electronic and thermal Enthalpies=            -422.980852
 Sum of electronic and thermal Free Energies=         -423.024912

                     E (Thermal)             CV                S
                      KCal/Mol        Cal/Mol-Kelvin    Cal/Mol-Kelvin
 Total                  104.757             32.401             92.732
 Electronic               0.000              0.000              0.000
 Translational            0.889              2.981             40.409
 Rotational               0.889              2.981             28.923
 Vibrational            102.980             26.439             23.400
 Vibration     1          0.597              1.973              4.455
 Vibration     2          0.597              1.972              4.383
 Vibration     3          0.613              1.921              2.911
 Vibration     4          0.633              1.854              2.232
 Vibration     5          0.655              1.787              1.838
 Vibration     6          0.678              1.715              1.549
 Vibration     7          0.723              1.585              1.189
 Vibration     8          0.775              1.447              0.924
 Vibration     9          0.864              1.231              0.637
 Vibration    10          0.878              1.198              0.602

 Optimization completed.
    -- Stationary point found.
 Normal termination of Gaussian 09 at Tue Jan 28 12:53:15 2020.
