 Gaussian 09, Revision D.01,
 Gaussian 09:  ES64L-G09RevD.01 24-Apr-2013

 -----------------------------
 # b3lyp 6-31G(2df,p) opt Freq
 -----------------------------

 -----
 titel
 -----
 Symbolic Z-matrix:
 Charge =  0 Multiplicity = 1

 SCF Done:  E(RB3LYP) =  -423.195585943     A.U. after   13 cycles
 Optimization completed.
    -- Stationary point found.
 Normal termination of Gaussian 09 at Mon Jan 27 23:49:10 2020.

 ----------------------------------------------------------------------
 #N Geom=AllCheck Guess=TCheck SCRF=Check GenChk RB3LYP/6-31G(2df,p) Fr
 eq
 ----------------------------------------------------------------------

 Structure from the checkpoint file:  "/scratch/puck/g09_6a464d8f-39fd-4708-aaa0-fefca272ba7a/Gau-78118.chk"
 -----
 titel
 -----
 Charge =  0 Multiplicity = 1

                         Standard orientation:
 ---------------------------------------------------------------------
 Center     Atomic      Atomic             Coordinates (Angstroms)
 Number     Number       Type             X           Y           Z
 ---------------------------------------------------------------------
      1          8           0       -2.374114    0.428157   -0.174310
      2          6           0       -1.034983    0.357538   -0.621518
      3          6           0       -0.073985    1.184143    0.273459
      4          6           0        1.323926    1.358662   -0.364961
      5          6           0        1.651564   -0.086000    0.084145
      6          6           0        1.011189   -1.121666   -0.867619
      7          6           0       -0.459745   -1.062658   -0.414584
      8          8           0       -0.343294   -1.097075    1.023015
      9          6           0        0.510509    0.028966    1.162140
     10          1           0       -2.389037   -0.013271    0.684721
     11          1           0       -1.032039    0.682892   -1.665266
     12          1           0       -0.577106    2.040638    0.721800
     13          1           0        1.368745    1.574632   -1.437173
     14          1           0        1.922284    2.102202    0.168870
     15          1           0        2.670190   -0.327543    0.387082
     16          1           0        1.151826   -0.877031   -1.924380
     17          1           0        1.405597   -2.124887   -0.686301
     18          1           0       -1.111849   -1.868498   -0.750835
     19          1           0        0.759807    0.208295    2.205470
 ---------------------------------------------------------------------

 SCF Done:  E(RB3LYP) =  -423.195585943     A.U. after    1 cycles

 The electronic state is 1-A.
 Alpha  occ. eigenvalues --  -19.14709 -19.13008 -10.23119 -10.23003 -10.22940
 Alpha  occ. eigenvalues --  -10.19098 -10.18695 -10.18499 -10.18398  -1.05825
 Alpha  occ. eigenvalues --   -1.00901  -0.85009  -0.75654  -0.72439  -0.65435
 Alpha  occ. eigenvalues --   -0.59590  -0.58840  -0.55099  -0.52759  -0.49468
 Alpha  occ. eigenvalues --   -0.45894  -0.45746  -0.41882  -0.41142  -0.39676
 Alpha  occ. eigenvalues --   -0.38258  -0.37724  -0.34604  -0.33701  -0.32147
 Alpha  occ. eigenvalues --   -0.30180  -0.29506  -0.27482  -0.24685
 Alpha virt. eigenvalues --    0.08461   0.09287   0.10473   0.12596   0.13841
 Alpha virt. eigenvalues --    0.14519   0.15164   0.15546   0.16031   0.16124
 Alpha virt. eigenvalues --    0.17624   0.18605   0.19092   0.21282   0.22293

 Mulliken charges:
               1
     1  O   -0.449662
     2  C    0.162759
     3  C   -0.098778
     4  C   -0.250502
     5  C   -0.060523
     6  C   -0.228551
     7  C    0.015912
     8  O   -0.276348
     9  C    0.106730
    10  H    0.283105
    11  H    0.083001
    12  H    0.074002
    13  H    0.094324
    14  H    0.102038
    15  H    0.068808
    16  H    0.100981
    17  H    0.109772
    18  H    0.081260
    19  H    0.081671
 Sum of Mulliken charges =   0.00000

 Dipole moment (field-independent basis, Debye):
    X=              1.8367    Y=              0.1082    Z=             -0.1588  Tot=              1.8467
 Quadrupole moment (field-independent basis, Debye-Ang):
   XX=            -56.5751   YY=            -53.6036   ZZ=            -51.2840
   XY=              1.8012   XZ=             -1.1301   YZ=              2.6008

  Exact polarizability:  76.693   1.215  72.047  -0.106   2.128  68.690
 Approx polarizability: 109.157   1.896 105.536  -0.540  -0.394 108.109

                      1                      2                      3
                      A                      A                      A
 Frequencies --    189.1634               300.4932               342.8345
 Red. masses --      4.3424                 2.0938                 4.1500
 Frc consts  --      0.0916                 0.1114                 0.2874
 IR Inten    --      5.4108                 0.1437                 1.2129

                      4                      5                      6
                      A                      A                      A
 Frequencies --    391.7892               446.9668               462.0057
 Red. masses --      2.3094                 2.2057                 1.2858
 Frc consts  --      0.2089                 0.2596                 0.1617
 IR Inten    --      0.9861                18.4644                59.7137

                      7                      8                      9
                      A                      A                      A
 Frequencies --    578.2023               620.2370               685.0491
 Red. masses --      6.0333                 4.3610                 4.1985
 Frc consts  --      1.1884                 0.9884                 1.1609
 IR Inten    --     11.1648                 1.6622                 0.3336

                     10                     11                     12
                      A                      A                      A
 Frequencies --    763.3718               818.6835               850.6485
 Red. masses --      3.0334                 2.9250                 2.3116
 Frc consts  --      1.0415                 1.1551                 0.9855
 IR Inten    --      5.7152                11.6717                 9.7900

                     13                     14                     15
                      A                      A                      A
 Frequencies --    862.2628               874.4090               892.9228
 Red. masses --      2.4804                 2.3554                 2.4517
 Frc consts  --      1.0866                 1.0611                 1.1517
 IR Inten    --     11.8346                 4.5797                 9.1178

                     16                     17                     18
                      A                      A                      A
 Frequencies --    920.1369               947.5147               970.4125
 Red. masses --      2.8489                 2.0972                 1.7308
 Frc consts  --      1.4211                 1.1093                 0.9603
 IR Inten    --      8.9162                 9.1438                 2.3137

                     19                     20                     21
                      A                      A                      A
 Frequencies --    981.4723               990.2701              1037.2557
 Red. masses --      3.6463                 1.9554                 2.3736
 Frc consts  --      2.0695                 1.1298                 1.5047
 IR Inten    --      8.1508                 2.8691                17.8672

                     22                     23                     24
                      A                      A                      A
 Frequencies --   1050.8869              1059.6987              1073.8316
 Red. masses --      2.6138                 2.3657                 1.2943
 Frc consts  --      1.7007                 1.5652                 0.8794
 IR Inten    --     37.6498                48.1069                 1.6266

                     25                     26                     27
                      A                      A                      A
 Frequencies --   1118.5631              1124.0883              1178.9993
 Red. masses --      2.7407                 1.3368                 1.1992
 Frc consts  --      2.0204                 0.9952                 0.9822
 IR Inten    --     83.1951                 4.8656                 4.9120

                     28                     29                     30
                      A                      A                      A
 Frequencies --   1215.5046              1222.4098              1231.8846
 Red. masses --      1.4062                 1.7501                 1.7364
 Frc consts  --      1.2241                 1.5408                 1.5525
 IR Inten    --      0.8105                 4.0859                 5.2505

                     31                     32                     33
                      A                      A                      A
 Frequencies --   1266.8988              1268.4788              1272.9873
 Red. masses --      1.2873                 1.5031                 1.3689
 Frc consts  --      1.2173                 1.4250                 1.3070
 IR Inten    --      2.2324                 3.3461                 4.1604

                     34                     35                     36
                      A                      A                      A
 Frequencies --   1288.9122              1300.9409              1329.3001
 Red. masses --      1.7093                 1.6074                 1.5342
 Frc consts  --      1.6731                 1.6029                 1.5972
 IR Inten    --      0.4720                11.0609                 2.8559

                     37                     38                     39
                      A                      A                      A
 Frequencies --   1337.9784              1363.8338              1437.3865
 Red. masses --      1.4726                 1.5870                 1.2620
 Frc consts  --      1.5532                 1.7392                 1.5363
 IR Inten    --      4.3302                 9.4996                72.7704

                     40                     41                     42
                      A                      A                      A
 Frequencies --   1480.4946              1496.3272              3045.1292
 Red. masses --      1.1004                 1.1063                 1.0587
 Frc consts  --      1.4210                 1.4595                 5.7840
 IR Inten    --      2.6972                 5.7384                37.2655

                     43                     44                     45
                      A                      A                      A
 Frequencies --   3059.3578              3082.6512              3096.1953
 Red. masses --      1.0593                 1.0868                 1.1061
 Frc consts  --      5.8416                 6.0850                 6.2477
 IR Inten    --     20.1818                21.3591                20.5883

                     46                     47                     48
                      A                      A                      A
 Frequencies --   3105.3927              3112.3109              3113.8737
 Red. masses --      1.0987                 1.0955                 1.0906
 Frc consts  --      6.2424                 6.2519                 6.2306
 IR Inten    --     19.8212                58.9020                16.5821

                     49                     50                     51
                      A                      A                      A
 Frequencies --   3127.6557              3150.0058              3774.1778
 Red. masses --      1.0896                 1.0923                 1.0651
 Frc consts  --      6.2799                 6.3861                 8.9389
 IR Inten    --     30.2955                25.8442                23.3728

 - Thermochemistry -
 -------------------
 Temperature   298.150 Kelvin.  Pressure   1.00000 Atm.
 Atom     1 has atomic number  8 and mass  15.99491

 Molecular mass:   126.06808 amu.
 Principal axes and moments of inertia in atomic units:
                           1         2         3
     Eigenvalues --   640.72439 960.176231121.07864
           X            0.99972   0.02073  -0.01150
           Y           -0.01985   0.99723   0.07166
           Z            0.01295  -0.07141   0.99736
 This molecule is an asymmetric top.
 Rotational symmetry number  1.
 Warning -- assumption of classical behavior for rotation
           may cause significant error
 Rotational temperatures (Kelvin)      0.13518     0.09021     0.07726
 Rotational constants (GHZ):           2.81672     1.87959     1.60983
 Zero-point vibrational energy     428934.5 (Joules/Mol)
                                  102.51782 (Kcal/Mol)
 Warning -- explicit consideration of   8 degrees of freedom as
           vibrations may cause significant error
 Vibrational temperatures:    272.16   432.34   493.26   563.70   643.08
          (Kelvin)            664.72   831.90   892.38   985.63  1098.32
                             1177.90  1223.89  1240.60  1258.08  1284.72
                             1323.87  1363.26  1396.21  1412.12  1424.78
                             1492.38  1511.99  1524.67  1545.00  1609.36
                             1617.31  1696.31  1748.84  1758.77  1772.41
                             1822.78  1825.06  1831.54  1854.45  1871.76
                             1912.56  1925.05  1962.25  2068.08  2130.10
                             2152.88  4381.26  4401.73  4435.24  4454.73
                             4467.96  4477.92  4480.16  4499.99  4532.15
                             5430.19

 Zero-point correction=                           0.163373 (Hartree/Particle)
 Thermal correction to Energy=                    0.169804
 Thermal correction to Enthalpy=                  0.170748
 Thermal correction to Gibbs Free Energy=         0.132971
 Sum of electronic and zero-point Energies=           -423.032213
 Sum of electronic and thermal Energies=              -423.025782
 Sum of electronic and thermal Enthalpies=            -423.024838
 Sum of electronic and thermal Free Energies=         -423.062615

                     E (Thermal)             CV                S
                      KCal/Mol        Cal/Mol-Kelvin    Cal/Mol-Kelvin
 Total                  106.553             27.830             79.509
 Electronic               0.000              0.000              0.000
 Translational            0.889              2.981             40.409
 Rotational               0.889              2.981             28.024
 Vibrational            104.776             21.868             11.076
 Vibration     1          0.633              1.855              2.236
 Vibration     2          0.693              1.673              1.414
 Vibration     3          0.722              1.590              1.199
 Vibration     4          0.759              1.488              0.993
 Vibration     5          0.806              1.368              0.805
 Vibration     6          0.820              1.334              0.760
 Vibration     7          0.935              1.078              0.489
 Vibration     8          0.980              0.989              0.416

 Optimization completed.
    -- Stationary point found.
 Normal termination of Gaussian 09 at Tue Jan 28 00:39:10 2020.
