 Gaussian 09, Revision D.01,
 Gaussian 09:  ES64L-G09RevD.01 24-Apr-2013

 -----------------------------
 # b3lyp 6-31G(2df,p) opt Freq
 -----------------------------

 -----
 titel
 -----
 Symbolic Z-matrix:
 Charge =  0 Multiplicity = 1

 SCF Done:  E(RB3LYP) =  -423.145222031     A.U. after   13 cycles
 Optimization completed.
    -- Stationary point found.
 Normal termination of Gaussian 09 at Mon Jan 27 11:17:58 2020.

 ----------------------------------------------------------------------
 #N Geom=AllCheck Guess=TCheck SCRF=Check GenChk RB3LYP/6-31G(2df,p) Fr
 eq
 ----------------------------------------------------------------------

 Structure from the checkpoint file:  "/scratch/puck/g09_0d30ee41-9410-4e35-866a-c460a3d2428b/Gau-150368.chk"
 -----
 titel
 -----
 Charge =  0 Multiplicity = 1

                         Standard orientation:
 ---------------------------------------------------------------------
 Center     Atomic      Atomic             Coordinates (Angstroms)
 Number     Number       Type             X           Y           Z
 ---------------------------------------------------------------------
      1          6           0        2.108063    0.582606   -0.005096
      2          6           0        0.867367    1.473376   -0.022611
      3          6           0       -0.368452    0.798186    0.611829
      4          6           0       -1.548216    0.772736   -0.380967
      5          8           0       -2.577954   -0.079873    0.115062
      6          6           0       -1.449946   -0.683611   -0.537510
      7          6           0       -0.356930   -0.785770    0.545570
      8          6           0        0.981532   -1.444662    0.224996
      9          8           0        1.827463   -0.670033   -0.603843
     10          1           0        2.917297    1.033776   -0.586801
     11          1           0        2.474074    0.434960    1.025706
     12          1           0        1.078996    2.424867    0.476603
     13          1           0        0.655276    1.709045   -1.072675
     14          1           0       -0.596753    1.215090    1.595893
     15          1           0       -1.835523    1.549370   -1.082354
     16          1           0       -1.649662   -1.329144   -1.385792
     17          1           0       -0.769807   -1.253415    1.444731
     18          1           0        1.503165   -1.665813    1.172134
     19          1           0        0.826362   -2.396653   -0.294465
 ---------------------------------------------------------------------

 SCF Done:  E(RB3LYP) =  -423.145222031     A.U. after    1 cycles

 The electronic state is 1-A.
 Alpha  occ. eigenvalues --  -19.14881 -19.13970 -10.23435 -10.23403 -10.23046
 Alpha  occ. eigenvalues --  -10.22882 -10.19744 -10.19321 -10.18758  -1.07590
 Alpha  occ. eigenvalues --   -1.03519  -0.81841  -0.77062  -0.68461  -0.66658
 Alpha  occ. eigenvalues --   -0.61518  -0.59877  -0.53252  -0.51622  -0.49611
 Alpha  occ. eigenvalues --   -0.46929  -0.46645  -0.44556  -0.40964  -0.40059
 Alpha  occ. eigenvalues --   -0.39685  -0.37346  -0.36360  -0.33451  -0.32379
 Alpha  occ. eigenvalues --   -0.30311  -0.28529  -0.25668  -0.24801
 Alpha virt. eigenvalues --    0.07704   0.08568   0.11145   0.11819   0.12411
 Alpha virt. eigenvalues --    0.12747   0.13015   0.14460   0.15512   0.16235
 Alpha virt. eigenvalues --    0.17473   0.18857   0.19271   0.19528   0.21547

 Mulliken charges:
               1
     1  C   -0.074295
     2  C   -0.222977
     3  C   -0.078318
     4  C    0.042465
     5  O   -0.254051
     6  C    0.008695
     7  C   -0.031230
     8  C   -0.120197
     9  O   -0.239182
    10  H    0.106925
    11  H    0.084728
    12  H    0.101130
    13  H    0.106064
    14  H    0.078391
    15  H    0.102187
    16  H    0.103612
    17  H    0.089238
    18  H    0.089023
    19  H    0.107790
 Sum of Mulliken charges =   0.00000

 Dipole moment (field-independent basis, Debye):
    X=              1.1607    Y=              0.6712    Z=              0.2619  Tot=              1.3662
 Quadrupole moment (field-independent basis, Debye-Ang):
   XX=            -61.0005   YY=            -49.2195   ZZ=            -52.4790
   XY=              1.7446   XZ=              3.9876   YZ=             -0.7923

  Exact polarizability:  78.791   2.156  78.548   3.040  -0.727  64.252
 Approx polarizability: 108.153   2.516 115.290   0.377   0.686 101.563

                      1                      2                      3
                      A                      A                      A
 Frequencies --    102.6908               148.0980               285.7840
 Red. masses --      2.9577                 2.8003                 2.5937
 Frc consts  --      0.0184                 0.0362                 0.1248
 IR Inten    --      2.7730                 1.4055                 1.6876

                      4                      5                      6
                      A                      A                      A
 Frequencies --    324.6301               377.4541               425.4667
 Red. masses --      3.5566                 2.7478                 3.9502
 Frc consts  --      0.2208                 0.2307                 0.4213
 IR Inten    --      1.2302                 2.6223                 5.0518

                      7                      8                      9
                      A                      A                      A
 Frequencies --    477.1659               539.5951               671.5114
 Red. masses --      3.9373                 3.0754                 3.1776
 Frc consts  --      0.5282                 0.5276                 0.8442
 IR Inten    --      3.2901                 7.2352                 8.2255

                     10                     11                     12
                      A                      A                      A
 Frequencies --    765.5745               777.4517               835.5024
 Red. masses --      2.7675                 2.7006                 4.0781
 Frc consts  --      0.9557                 0.9617                 1.6773
 IR Inten    --      0.5278                 0.2130                 5.5046

                     13                     14                     15
                      A                      A                      A
 Frequencies --    857.3603               858.4745               882.0713
 Red. masses --      2.5701                 1.8626                 2.7310
 Frc consts  --      1.1131                 0.8088                 1.2519
 IR Inten    --      8.9484                30.7417                 5.9537

                     16                     17                     18
                      A                      A                      A
 Frequencies --    931.2284               952.3455               987.0613
 Red. masses --      2.1795                 2.5564                 2.1183
 Frc consts  --      1.1136                 1.3661                 1.2160
 IR Inten    --      1.3536                10.2404                30.2068

                     19                     20                     21
                      A                      A                      A
 Frequencies --   1005.8951              1048.0589              1064.5861
 Red. masses --      2.9670                 1.3014                 2.0526
 Frc consts  --      1.7688                 0.8422                 1.3706
 IR Inten    --      8.3000                 2.6267                22.3202

                     22                     23                     24
                      A                      A                      A
 Frequencies --   1086.1689              1105.9190              1120.4766
 Red. masses --      2.0705                 1.6844                 2.1098
 Frc consts  --      1.4392                 1.2138                 1.5606
 IR Inten    --      8.2424                 1.1326                 0.7617

                     25                     26                     27
                      A                      A                      A
 Frequencies --   1151.7348              1200.9021              1221.7672
 Red. masses --      3.7961                 1.7322                 1.3765
 Frc consts  --      2.9668                 1.4719                 1.2106
 IR Inten    --     53.9018                29.9498                 6.5874

                     28                     29                     30
                      A                      A                      A
 Frequencies --   1229.0644              1253.5515              1263.9051
 Red. masses --      1.4024                 1.2504                 1.3895
 Frc consts  --      1.2482                 1.1577                 1.3078
 IR Inten    --      1.8922                 1.2359                 4.1267

                     31                     32                     33
                      A                      A                      A
 Frequencies --   1286.8193              1325.3167              1337.2579
 Red. masses --      1.3628                 1.3669                 1.5057
 Frc consts  --      1.3296                 1.4146                 1.5864
 IR Inten    --      6.8590                 1.7566                 5.2962

                     34                     35                     36
                      A                      A                      A
 Frequencies --   1344.4905              1378.3305              1387.5905
 Red. masses --      1.4359                 1.9973                 1.5016
 Frc consts  --      1.5293                 2.2357                 1.7034
 IR Inten    --      3.8932                15.7769                10.0450

                     37                     38                     39
                      A                      A                      A
 Frequencies --   1396.0179              1429.1416              1480.3189
 Red. masses --      1.5848                 1.3137                 1.0889
 Frc consts  --      1.8198                 1.5809                 1.4059
 IR Inten    --      8.4490                 9.1290                 3.2771

                     40                     41                     42
                      A                      A                      A
 Frequencies --   1491.2865              1504.5037              2954.1571
 Red. masses --      1.0789                 1.1038                 1.0711
 Frc consts  --      1.4137                 1.4721                 5.5073
 IR Inten    --      1.1243                 3.2607                23.3665

                     43                     44                     45
                      A                      A                      A
 Frequencies --   2960.2941              3028.8045              3058.9928
 Red. masses --      1.0705                 1.0620                 1.0861
 Frc consts  --      5.5271                 5.7401                 5.9879
 IR Inten    --     94.0897                20.9098                12.0447

                     46                     47                     48
                      A                      A                      A
 Frequencies --   3064.7374              3067.3483              3082.6728
 Red. masses --      1.0912                 1.0916                 1.0911
 Frc consts  --      6.0385                 6.0510                 6.1089
 IR Inten    --     33.3996                22.4828                34.0112

                     49                     50                     51
                      A                      A                      A
 Frequencies --   3084.5295              3166.3722              3184.5682
 Red. masses --      1.0958                 1.0873                 1.1007
 Frc consts  --      6.1427                 6.4230                 6.5767
 IR Inten    --     59.6665                19.7227                18.7748

 - Thermochemistry -
 -------------------
 Temperature   298.150 Kelvin.  Pressure   1.00000 Atm.
 Atom     1 has atomic number  6 and mass  12.00000

 Molecular mass:   126.06808 amu.
 Principal axes and moments of inertia in atomic units:
                           1         2         3
     Eigenvalues --   528.909001246.339361547.62889
           X            0.99977   0.01520   0.01511
           Y           -0.01490   0.99968  -0.02030
           Z           -0.01541   0.02007   0.99968
 This molecule is an asymmetric top.
 Rotational symmetry number  1.
 Warning -- assumption of classical behavior for rotation
           may cause significant error
 Rotational temperatures (Kelvin)      0.16376     0.06949     0.05597
 Rotational constants (GHZ):           3.41220     1.44803     1.16613
 Zero-point vibrational energy     424465.2 (Joules/Mol)
                                  101.44963 (Kcal/Mol)
 Warning -- explicit consideration of   8 degrees of freedom as
           vibrations may cause significant error
 Vibrational temperatures:    147.75   213.08   411.18   467.07   543.07
          (Kelvin)            612.15   686.53   776.36   966.15  1101.49
                             1118.58  1202.10  1233.55  1235.15  1269.10
                             1339.83  1370.21  1420.16  1447.26  1507.92
                             1531.70  1562.75  1591.17  1612.11  1657.09
                             1727.83  1757.85  1768.35  1803.58  1818.48
                             1851.44  1906.83  1924.01  1934.42  1983.11
                             1996.43  2008.56  2056.21  2129.85  2145.63
                             2164.64  4250.37  4259.20  4357.77  4401.20
                             4409.47  4413.22  4435.27  4437.94  4555.70
                             4581.88

 Zero-point correction=                           0.161670 (Hartree/Particle)
 Thermal correction to Energy=                    0.168794
 Thermal correction to Enthalpy=                  0.169739
 Thermal correction to Gibbs Free Energy=         0.130028
 Sum of electronic and zero-point Energies=           -422.983552
 Sum of electronic and thermal Energies=              -422.976428
 Sum of electronic and thermal Enthalpies=            -422.975483
 Sum of electronic and thermal Free Energies=         -423.015194

                     E (Thermal)             CV                S
                      KCal/Mol        Cal/Mol-Kelvin    Cal/Mol-Kelvin
 Total                  105.920             28.549             83.579
 Electronic               0.000              0.000              0.000
 Translational            0.889              2.981             40.409
 Rotational               0.889              2.981             28.413
 Vibrational            104.143             22.588             14.757
 Vibration     1          0.605              1.947              3.403
 Vibration     2          0.617              1.905              2.697
 Vibration     3          0.684              1.700              1.499
 Vibration     4          0.709              1.626              1.287
 Vibration     5          0.748              1.518              1.049
 Vibration     6          0.787              1.415              0.874
 Vibration     7          0.834              1.301              0.718
 Vibration     8          0.895              1.163              0.566

 Optimization completed.
    -- Stationary point found.
 Normal termination of Gaussian 09 at Mon Jan 27 12:04:25 2020.
