 Gaussian 09, Revision D.01,
 Gaussian 09:  ES64L-G09RevD.01 24-Apr-2013

 -----------------------------
 # b3lyp 6-31G(2df,p) opt Freq
 -----------------------------

 -----
 titel
 -----
 Symbolic Z-matrix:
 Charge =  0 Multiplicity = 1

 SCF Done:  E(RB3LYP) =  -423.138972634     A.U. after   14 cycles
 Optimization completed.
    -- Stationary point found.
 Normal termination of Gaussian 09 at Mon Jan 27 17:03:59 2020.

 ----------------------------------------------------------------------
 #N Geom=AllCheck Guess=TCheck SCRF=Check GenChk RB3LYP/6-31G(2df,p) Fr
 eq
 ----------------------------------------------------------------------

 Structure from the checkpoint file:  "/scratch/puck/g09_d53d74d4-6cab-4b6c-801f-993e5affb366/Gau-78080.chk"
 -----
 titel
 -----
 Charge =  0 Multiplicity = 1

                         Standard orientation:
 ---------------------------------------------------------------------
 Center     Atomic      Atomic             Coordinates (Angstroms)
 Number     Number       Type             X           Y           Z
 ---------------------------------------------------------------------
      1          6           0        1.372017    2.010954   -0.149329
      2          6           0        0.332422    0.947270   -0.003599
      3          6           0       -0.267914    0.312849    1.277637
      4          6           0       -1.108792   -0.144176    0.063302
      5          6           0       -2.407412   -0.883534    0.000370
      6          8           0       -1.063173    1.240681   -0.451353
      7          6           0        0.224043   -0.413119   -0.746513
      8          6           0        1.112281   -1.580315   -0.437364
      9          8           0        1.967351   -1.606710    0.416164
     10          1           0        1.470980    2.314712   -1.195840
     11          1           0        1.106762    2.889746    0.445856
     12          1           0        2.336546    1.629005    0.198036
     13          1           0        0.333368   -0.420600    1.814069
     14          1           0       -0.781255    1.020190    1.931050
     15          1           0       -2.761172   -0.957848   -1.032214
     16          1           0       -2.293022   -1.893449    0.405948
     17          1           0       -3.165500   -0.358619    0.589794
     18          1           0        0.051090   -0.320987   -1.823363
     19          1           0        0.928909   -2.473493   -1.078848
 ---------------------------------------------------------------------

 SCF Done:  E(RB3LYP) =  -423.138972635     A.U. after    1 cycles

 The electronic state is 1-A.
 Alpha  occ. eigenvalues --  -19.14526 -19.13086 -10.27560 -10.26406 -10.25613
 Alpha  occ. eigenvalues --  -10.20237 -10.19174 -10.18738 -10.18477  -1.05939
 Alpha  occ. eigenvalues --   -1.04815  -0.80173  -0.76371  -0.72690  -0.70984
 Alpha  occ. eigenvalues --   -0.61136  -0.57075  -0.52469  -0.48861  -0.46319
 Alpha  occ. eigenvalues --   -0.45891  -0.45244  -0.44186  -0.43300  -0.41340
 Alpha  occ. eigenvalues --   -0.40542  -0.38799  -0.35882  -0.35230  -0.33806
 Alpha  occ. eigenvalues --   -0.31603  -0.31125  -0.26297  -0.23505
 Alpha virt. eigenvalues --   -0.03533   0.08983   0.10299   0.10673   0.12612
 Alpha virt. eigenvalues --    0.13052   0.13748   0.14141   0.14946   0.15741
 Alpha virt. eigenvalues --    0.16491   0.17512   0.18131   0.18579   0.19666

 Mulliken charges:
               1
     1  C   -0.521285
     2  C    0.411309
     3  C   -0.311811
     4  C    0.387185
     5  C   -0.513500
     6  O   -0.372484
     7  C   -0.156116
     8  C    0.117602
     9  O   -0.256836
    10  H    0.131275
    11  H    0.134090
    12  H    0.145271
    13  H    0.123837
    14  H    0.102601
    15  H    0.135098
    16  H    0.131000
    17  H    0.139824
    18  H    0.092192
    19  H    0.080750
 Sum of Mulliken charges =   0.00000

 Dipole moment (field-independent basis, Debye):
    X=             -1.0123    Y=             -0.4967    Z=             -0.6025  Tot=              1.2784
 Quadrupole moment (field-independent basis, Debye-Ang):
   XX=            -56.3613   YY=            -54.0823   ZZ=            -52.0039
   XY=              7.0380   XZ=             -3.4615   YZ=              3.4312

  Exact polarizability:  82.333   1.829  79.136   1.058   3.502  69.858
 Approx polarizability: 120.123  -4.683 111.193   8.763   1.270 110.479

                      1                      2                      3
                      A                      A                      A
 Frequencies --     73.8328               154.3079               191.0075
 Red. masses --      4.6740                 2.9958                 1.1941
 Frc consts  --      0.0150                 0.0420                 0.0257
 IR Inten    --      7.3397                 6.2055                 0.3863

                      4                      5                      6
                      A                      A                      A
 Frequencies --    198.3345               211.4429               227.9418
 Red. masses --      1.0255                 2.4357                 2.1918
 Frc consts  --      0.0238                 0.0642                 0.0671
 IR Inten    --      0.0247                 1.6274                 0.9816

                      7                      8                      9
                      A                      A                      A
 Frequencies --    253.1970               362.8201               395.9397
 Red. masses --      3.1730                 2.4092                 3.3411
 Frc consts  --      0.1199                 0.1869                 0.3086
 IR Inten    --      3.2706                 0.5829                 4.4435

                     10                     11                     12
                      A                      A                      A
 Frequencies --    456.7193               579.5219               593.7347
 Red. masses --      3.4364                 2.6790                 3.8065
 Frc consts  --      0.4223                 0.5301                 0.7906
 IR Inten    --      2.3671                 5.2683                 0.5755

                     13                     14                     15
                      A                      A                      A
 Frequencies --    630.1366               669.8376               726.7053
 Red. masses --      3.3014                 5.4359                 3.1663
 Frc consts  --      0.7723                 1.4370                 0.9852
 IR Inten    --     11.7746                23.3876                18.5200

                     16                     17                     18
                      A                      A                      A
 Frequencies --    765.4951               870.9226               889.1216
 Red. masses --      3.0548                 2.2830                 3.3538
 Frc consts  --      1.0547                 1.0203                 1.5621
 IR Inten    --     11.5260                16.5847                11.1435

                     19                     20                     21
                      A                      A                      A
 Frequencies --    933.3664               998.9235              1010.7715
 Red. masses --      2.4827                 1.3764                 1.3163
 Frc consts  --      1.2743                 0.8092                 0.7923
 IR Inten    --      8.1635                 6.0268                 1.0103

                     22                     23                     24
                      A                      A                      A
 Frequencies --   1034.3267              1068.5826              1091.3712
 Red. masses --      1.6913                 1.9893                 1.8721
 Frc consts  --      1.0661                 1.3384                 1.3138
 IR Inten    --      7.9625                27.7057                 7.3094

                     25                     26                     27
                      A                      A                      A
 Frequencies --   1112.6113              1145.1547              1172.0379
 Red. masses --      1.7449                 1.5461                 1.5498
 Frc consts  --      1.2727                 1.1946                 1.2543
 IR Inten    --      4.0202                 1.1480                 1.3055

                     28                     29                     30
                      A                      A                      A
 Frequencies --   1177.4672              1218.0129              1270.3697
 Red. masses --      2.3150                 2.8589                 2.4032
 Frc consts  --      1.8910                 2.4989                 2.2851
 IR Inten    --     16.4763                43.1574                78.1620

                     31                     32                     33
                      A                      A                      A
 Frequencies --   1319.2249              1384.3643              1408.1751
 Red. masses --      1.9375                 1.3764                 1.3845
 Frc consts  --      1.9866                 1.5541                 1.6176
 IR Inten    --      7.2317                 9.1671                25.1248

                     34                     35                     36
                      A                      A                      A
 Frequencies --   1426.0797              1429.8159              1476.7065
 Red. masses --      1.4101                 1.6490                 1.0463
 Frc consts  --      1.6896                 1.9863                 1.3444
 IR Inten    --     10.3866                 0.8231                 1.9274

                     37                     38                     39
                      A                      A                      A
 Frequencies --   1479.7524              1486.6176              1487.5941
 Red. masses --      1.0487                 1.0461                 1.0481
 Frc consts  --      1.3530                 1.3622                 1.3665
 IR Inten    --      5.6542                 2.0400                 7.1160

                     40                     41                     42
                      A                      A                      A
 Frequencies --   1506.1121              1807.8332              2860.3407
 Red. masses --      1.4934                10.0603                 1.0819
 Frc consts  --      1.9958                19.3722                 5.2154
 IR Inten    --      5.4059               127.9411               139.1971

                     43                     44                     45
                      A                      A                      A
 Frequencies --   3040.2422              3041.4730              3072.7391
 Red. masses --      1.0346                 1.0344                 1.0844
 Frc consts  --      5.6345                 5.6380                 6.0326
 IR Inten    --     13.3746                14.1779                20.4480

                     46                     47                     48
                      A                      A                      A
 Frequencies --   3083.1157              3115.0641              3116.0171
 Red. masses --      1.0555                 1.1013                 1.1019
 Frc consts  --      5.9113                 6.2964                 6.3037
 IR Inten    --     19.7569                10.9861                11.7403

                     49                     50                     51
                      A                      A                      A
 Frequencies --   3117.1955              3121.5143              3164.0891
 Red. masses --      1.1017                 1.1013                 1.1117
 Frc consts  --      6.3071                 6.3223                 6.5573
 IR Inten    --     10.6137                 7.4426                12.1254

 - Thermochemistry -
 -------------------
 Temperature   298.150 Kelvin.  Pressure   1.00000 Atm.
 Atom     1 has atomic number  6 and mass  12.00000

 Molecular mass:   126.06808 amu.
 Principal axes and moments of inertia in atomic units:
                           1         2         3
     Eigenvalues --   862.217121045.345981552.73355
           X            0.95030   0.31107  -0.01279
           Y           -0.31077   0.95025   0.02102
           Z            0.01869  -0.01600   0.99970
 This molecule is an asymmetric top.
 Rotational symmetry number  1.
 Warning -- assumption of classical behavior for rotation
           may cause significant error
 Rotational temperatures (Kelvin)      0.10045     0.08286     0.05578
 Rotational constants (GHZ):           2.09314     1.72645     1.16230
 Zero-point vibrational energy     409290.8 (Joules/Mol)
                                   97.82285 (Kcal/Mol)
 Warning -- explicit consideration of  12 degrees of freedom as
           vibrations may cause significant error
 Vibrational temperatures:    106.23   222.01   274.82   285.36   304.22
          (Kelvin)            327.96   364.29   522.02   569.67   657.12
                              833.80   854.25   906.62   963.75  1045.57
                             1101.38  1253.06  1279.25  1342.90  1437.23
                             1454.27  1488.16  1537.45  1570.24  1600.80
                             1647.62  1686.30  1694.11  1752.45  1827.78
                             1898.07  1991.79  2026.05  2051.81  2057.18
                             2124.65  2129.03  2138.91  2140.31  2166.96
                             2601.07  4115.39  4374.22  4376.00  4420.98
                             4435.91  4481.88  4483.25  4484.94  4491.16
                             4552.41

 Zero-point correction=                           0.155891 (Hartree/Particle)
 Thermal correction to Energy=                    0.165040
 Thermal correction to Enthalpy=                  0.165984
 Thermal correction to Gibbs Free Energy=         0.122211
 Sum of electronic and zero-point Energies=           -422.983082
 Sum of electronic and thermal Energies=              -422.973933
 Sum of electronic and thermal Enthalpies=            -422.972989
 Sum of electronic and thermal Free Energies=         -423.016762

                     E (Thermal)             CV                S
                      KCal/Mol        Cal/Mol-Kelvin    Cal/Mol-Kelvin
 Total                  103.564             34.209             92.128
 Electronic               0.000              0.000              0.000
 Translational            0.889              2.981             40.409
 Rotational               0.889              2.981             28.728
 Vibrational            101.787             28.247             22.992
 Vibration     1          0.599              1.966              4.048
 Vibration     2          0.620              1.898              2.618
 Vibration     3          0.634              1.852              2.218
 Vibration     4          0.637              1.842              2.148
 Vibration     5          0.643              1.823              2.031
 Vibration     6          0.651              1.798              1.895
 Vibration     7          0.664              1.757              1.708
 Vibration     8          0.737              1.549              1.110
 Vibration     9          0.763              1.479              0.978
 Vibration    10          0.815              1.346              0.776
 Vibration    11          0.936              1.076              0.486
 Vibration    12          0.951              1.045              0.461

 Optimization completed.
    -- Stationary point found.
 Normal termination of Gaussian 09 at Mon Jan 27 17:55:18 2020.
