 Gaussian 09, Revision D.01,
 Gaussian 09:  ES64L-G09RevD.01 24-Apr-2013

 -----------------------------
 # b3lyp 6-31G(2df,p) opt Freq
 -----------------------------

 -----
 titel
 -----
 Symbolic Z-matrix:
 Charge =  0 Multiplicity = 1

 SCF Done:  E(RB3LYP) =  -423.152513521     A.U. after   14 cycles
 Optimization completed.
    -- Stationary point found.
 Normal termination of Gaussian 09 at Tue Jan 28 12:09:45 2020.

 ----------------------------------------------------------------------
 #N Geom=AllCheck Guess=TCheck SCRF=Check GenChk RB3LYP/6-31G(2df,p) Fr
 eq
 ----------------------------------------------------------------------

 Structure from the checkpoint file:  "/scratch/puck/g09_b2a91f70-3daa-49dd-a29c-b16b7c5a8d0c/Gau-92501.chk"
 -----
 titel
 -----
 Charge =  0 Multiplicity = 1

                         Standard orientation:
 ---------------------------------------------------------------------
 Center     Atomic      Atomic             Coordinates (Angstroms)
 Number     Number       Type             X           Y           Z
 ---------------------------------------------------------------------
      1          6           0        3.259694   -1.236554    0.189869
      2          8           0        2.257907   -0.325090   -0.199851
      3          6           0        0.955113   -0.818950   -0.005570
      4          6           0       -0.022967    0.281974   -0.441972
      5          6           0        0.214354    1.544372    0.400295
      6          8           0        0.401526    2.638675   -0.051590
      7          6           0       -1.407004   -0.140806   -0.256137
      8          6           0       -2.547591   -0.471029   -0.053645
      9          6           0       -3.930375   -0.868829    0.165990
     10          1           0        3.202967   -2.172888   -0.386579
     11          1           0        4.223995   -0.760555   -0.000734
     12          1           0        3.189253   -1.486166    1.260008
     13          1           0        0.775878   -1.731690   -0.594641
     14          1           0        0.780845   -1.072530    1.054066
     15          1           0        0.174624    0.548034   -1.485890
     16          1           0        0.171293    1.355738    1.497195
     17          1           0       -4.574947    0.005228    0.309070
     18          1           0       -4.320401   -1.432636   -0.688396
     19          1           0       -4.026302   -1.502280    1.054450
 ---------------------------------------------------------------------

 SCF Done:  E(RB3LYP) =  -423.152513521     A.U. after    1 cycles

 The electronic state is 1-A.
 Alpha  occ. eigenvalues --  -19.15217 -19.13925 -10.27217 -10.24403 -10.23231
 Alpha  occ. eigenvalues --  -10.21810 -10.21035 -10.18597 -10.18017  -1.04970
 Alpha  occ. eigenvalues --   -1.04428  -0.82000  -0.77442  -0.71556  -0.68010
 Alpha  occ. eigenvalues --   -0.63772  -0.58571  -0.52141  -0.48754  -0.48174
 Alpha  occ. eigenvalues --   -0.47382  -0.45351  -0.44243  -0.43294  -0.43171
 Alpha  occ. eigenvalues --   -0.42135  -0.40125  -0.38344  -0.36720  -0.33115
 Alpha  occ. eigenvalues --   -0.27848  -0.26734  -0.26012  -0.24036
 Alpha virt. eigenvalues --   -0.02156   0.04838   0.05939   0.08667   0.10535
 Alpha virt. eigenvalues --    0.12593   0.12711   0.13812   0.15406   0.16047
 Alpha virt. eigenvalues --    0.16908   0.17548   0.18314   0.19021   0.20101

 Mulliken charges:
               1
     1  C   -0.230276
     2  O   -0.230432
     3  C   -0.065016
     4  C   -0.253453
     5  C    0.186213
     6  O   -0.240761
     7  C    0.031744
     8  C    0.079957
     9  C   -0.498764
    10  H    0.108703
    11  H    0.135256
    12  H    0.108147
    13  H    0.105338
    14  H    0.097702
    15  H    0.128017
    16  H    0.079080
    17  H    0.155061
    18  H    0.152981
    19  H    0.150500
 Sum of Mulliken charges =   0.00000

 Dipole moment (field-independent basis, Debye):
    X=             -0.8679    Y=             -3.6029    Z=              0.9997  Tot=              3.8385
 Quadrupole moment (field-independent basis, Debye-Ang):
   XX=            -42.5526   YY=            -60.0270   ZZ=            -52.3183
   XY=             -2.4676   XZ=              0.3980   YZ=              0.7888

  Exact polarizability: 112.415   8.380  75.495  -2.501  -1.424  62.631
 Approx polarizability: 146.279  19.181 111.715  -8.414  -7.125  94.620

                      1                      2                      3
                      A                      A                      A
 Frequencies --     25.9106                65.5653                70.9029
 Red. masses --      1.0193                 4.0357                 3.7265
 Frc consts  --      0.0004                 0.0102                 0.0110
 IR Inten    --      0.0366                 1.7118                 0.6705

                      4                      5                      6
                      A                      A                      A
 Frequencies --     82.0846                97.3936               141.0544
 Red. masses --      4.2105                 2.2842                 2.5324
 Frc consts  --      0.0167                 0.0128                 0.0297
 IR Inten    --      1.4042                 2.2316                 4.7381

                      7                      8                      9
                      A                      A                      A
 Frequencies --    209.3699               229.8327               279.6602
 Red. masses --      2.4020                 1.4974                 3.0062
 Frc consts  --      0.0620                 0.0466                 0.1385
 IR Inten    --      7.2416                 4.0677                 3.7042

                     10                     11                     12
                      A                      A                      A
 Frequencies --    315.9552               329.5812               381.4760
 Red. masses --      3.4549                 3.0691                 4.6941
 Frc consts  --      0.2032                 0.1964                 0.4025
 IR Inten    --      8.6861                 2.7082                 4.0965

                     13                     14                     15
                      A                      A                      A
 Frequencies --    458.9804               491.1338               570.6223
 Red. masses --      5.2284                 6.8958                 3.3102
 Frc consts  --      0.6489                 0.9800                 0.6350
 IR Inten    --      8.2350                 4.0202                 6.9164

                     16                     17                     18
                      A                      A                      A
 Frequencies --    791.1714               885.6811               981.5545
 Red. masses --      3.4958                 1.8339                 3.0722
 Frc consts  --      1.2893                 0.8476                 1.7439
 IR Inten    --      1.9757                15.7148                16.1583

                     19                     20                     21
                      A                      A                      A
 Frequencies --   1020.1964              1051.7842              1053.6599
 Red. masses --      2.5577                 1.4074                 1.4179
 Frc consts  --      1.5685                 0.9174                 0.9275
 IR Inten    --      7.5256                 0.5118                 1.3468

                     22                     23                     24
                      A                      A                      A
 Frequencies --   1076.7911              1105.5857              1160.9494
 Red. masses --      2.9645                 2.4852                 3.9538
 Frc consts  --      2.0252                 1.7898                 3.1398
 IR Inten    --      4.2809                25.5309               155.8038

                     25                     26                     27
                      A                      A                      A
 Frequencies --   1172.9710              1184.3131              1227.7212
 Red. masses --      2.4505                 1.3163                 1.6921
 Frc consts  --      1.9865                 1.0878                 1.5027
 IR Inten    --     19.0155                 6.1327                47.6429

                     28                     29                     30
                      A                      A                      A
 Frequencies --   1236.0739              1285.5607              1307.9895
 Red. masses --      1.3002                 1.6084                 1.2592
 Frc consts  --      1.1704                 1.5661                 1.2692
 IR Inten    --     13.3170                 3.0798                 0.7735

                     31                     32                     33
                      A                      A                      A
 Frequencies --   1401.8661              1414.2900              1419.4928
 Red. masses --      1.2951                 1.2363                 1.2309
 Frc consts  --      1.4996                 1.4570                 1.4613
 IR Inten    --     22.4498                 7.4975                 6.5491

                     34                     35                     36
                      A                      A                      A
 Frequencies --   1477.0493              1477.3938              1479.2049
 Red. masses --      1.0393                 1.0395                 1.1492
 Frc consts  --      1.3359                 1.3369                 1.4814
 IR Inten    --      6.0152                 5.9984                 1.7093

                     37                     38                     39
                      A                      A                      A
 Frequencies --   1485.6670              1501.5628              1526.5727
 Red. masses --      1.0468                 1.0587                 1.0903
 Frc consts  --      1.3614                 1.4064                 1.4970
 IR Inten    --      5.6466                11.1034                 1.9228

                     40                     41                     42
                      A                      A                      A
 Frequencies --   1848.6026              2367.2558              2873.7697
 Red. masses --     10.4396                11.8485                 1.0836
 Frc consts  --     21.0194                39.1206                 5.2725
 IR Inten    --    200.4792                 4.1959                85.0828

                     43                     44                     45
                      A                      A                      A
 Frequencies --   2960.4619              2977.0215              3002.5123
 Red. masses --      1.0555                 1.0407                 1.0999
 Frc consts  --      5.4502                 5.4344                 5.8422
 IR Inten    --     28.8496                69.7401                49.5377

                     46                     47                     48
                      A                      A                      A
 Frequencies --   3021.9957              3029.6788              3063.0711
 Red. masses --      1.1036                 1.0347                 1.0837
 Frc consts  --      5.9380                 5.5959                 5.9905
 IR Inten    --     48.5822                27.5886                 9.5938

                     49                     50                     51
                      A                      A                      A
 Frequencies --   3091.8414              3092.3049              3122.0876
 Red. masses --      1.1002                 1.1003                 1.0963
 Frc consts  --      6.1968                 6.1989                 6.2963
 IR Inten    --      8.7630                 8.1504                25.1310

 - Thermochemistry -
 -------------------
 Temperature   298.150 Kelvin.  Pressure   1.00000 Atm.
 Atom     1 has atomic number  6 and mass  12.00000

 Molecular mass:   126.06808 amu.
 Principal axes and moments of inertia in atomic units:
                           1         2         3
     Eigenvalues --   766.215712221.910802874.53192
           X            0.99994  -0.01101   0.00077
           Y            0.01101   0.99993  -0.00352
           Z           -0.00073   0.00353   0.99999
 This molecule is an asymmetric top.
 Rotational symmetry number  1.
 Warning -- assumption of classical behavior for rotation
           may cause significant error
 Rotational temperatures (Kelvin)      0.11304     0.03898     0.03013
 Rotational constants (GHZ):           2.35540     0.81225     0.62784
 Zero-point vibrational energy     406283.1 (Joules/Mol)
                                   97.10399 (Kcal/Mol)
 Warning -- explicit consideration of  15 degrees of freedom as
           vibrations may cause significant error
 Vibrational temperatures:     37.28    94.33   102.01   118.10   140.13
          (Kelvin)            202.95   301.24   330.68   402.37   454.59
                              474.19   548.86   660.37   706.63   821.00
                             1138.32  1274.30  1412.24  1467.83  1513.28
                             1515.98  1549.26  1590.69  1670.35  1687.64
                             1703.96  1766.41  1778.43  1849.63  1881.90
                             2016.97  2034.85  2042.33  2125.14  2125.64
                             2128.24  2137.54  2160.41  2196.39  2659.72
                             3405.95  4134.71  4259.44  4283.26  4319.94
                             4347.97  4359.03  4407.07  4448.46  4449.13
                             4491.98

 Zero-point correction=                           0.154745 (Hartree/Particle)
 Thermal correction to Energy=                    0.165996
 Thermal correction to Enthalpy=                  0.166940
 Thermal correction to Gibbs Free Energy=         0.115951
 Sum of electronic and zero-point Energies=           -422.997768
 Sum of electronic and thermal Energies=              -422.986517
 Sum of electronic and thermal Enthalpies=            -422.985573
 Sum of electronic and thermal Free Energies=         -423.036562

                     E (Thermal)             CV                S
                      KCal/Mol        Cal/Mol-Kelvin    Cal/Mol-Kelvin
 Total                  104.164             36.813            107.315
 Electronic               0.000              0.000              0.000
 Translational            0.889              2.981             40.409
 Rotational               0.889              2.981             29.971
 Vibrational            102.387             30.851             36.935
 Vibration     1          0.593              1.985              6.120
 Vibration     2          0.597              1.971              4.282
 Vibration     3          0.598              1.968              4.128
 Vibration     4          0.600              1.961              3.840
 Vibration     5          0.603              1.951              3.506
 Vibration     6          0.615              1.912              2.790
 Vibration     7          0.642              1.826              2.049
 Vibration     8          0.652              1.795              1.880
 Vibration     9          0.680              1.711              1.536
 Vibration    10          0.703              1.643              1.331
 Vibration    11          0.712              1.616              1.262
 Vibration    12          0.751              1.510              1.033
 Vibration    13          0.817              1.341              0.769
 Vibration    14          0.847              1.270              0.681
 Vibration    15          0.927              1.095              0.503

 Optimization completed.
    -- Stationary point found.
 Normal termination of Gaussian 09 at Tue Jan 28 12:44:11 2020.
