 Gaussian 09, Revision D.01,
 Gaussian 09:  ES64L-G09RevD.01 24-Apr-2013

 -----------------------------
 # b3lyp 6-31G(2df,p) opt Freq
 -----------------------------

 -----
 titel
 -----
 Symbolic Z-matrix:
 Charge =  0 Multiplicity = 1

 SCF Done:  E(RB3LYP) =  -423.209207157     A.U. after   14 cycles
 Optimization completed.
    -- Stationary point found.
 Normal termination of Gaussian 09 at Mon Jan 27 22:00:43 2020.

 ----------------------------------------------------------------------
 #N Geom=AllCheck Guess=TCheck SCRF=Check GenChk RB3LYP/6-31G(2df,p) Fr
 eq
 ----------------------------------------------------------------------

 Structure from the checkpoint file:  "/scratch/puck/g09_c697c463-49a2-4f17-83f2-fddc5a5e86f1/Gau-98422.chk"
 -----
 titel
 -----
 Charge =  0 Multiplicity = 1

                         Standard orientation:
 ---------------------------------------------------------------------
 Center     Atomic      Atomic             Coordinates (Angstroms)
 Number     Number       Type             X           Y           Z
 ---------------------------------------------------------------------
      1          6           0        2.567120    0.729279   -0.045283
      2          6           0        1.080875    0.518471    0.077219
      3          6           0        0.213326    1.536176    0.176289
      4          6           0       -1.295564    1.468317    0.133901
      5          8           0       -1.799464    0.447643   -0.704646
      6          6           0       -1.915380   -0.829896   -0.114252
      7          6           0       -0.686366   -1.258621    0.706050
      8          6           0        0.644595   -0.914094    0.048218
      9          8           0        1.370158   -1.777220   -0.403305
     10          1           0        3.107063    0.220285    0.760763
     11          1           0        2.932357    0.292344   -0.979708
     12          1           0        2.822371    1.791317   -0.024276
     13          1           0        0.615107    2.547513    0.219383
     14          1           0       -1.719735    1.395250    1.150848
     15          1           0       -1.667875    2.409417   -0.285403
     16          1           0       -2.807588   -0.880364    0.530873
     17          1           0       -2.064275   -1.519863   -0.949950
     18          1           0       -0.717145   -0.776600    1.690180
     19          1           0       -0.717468   -2.340480    0.858057
 ---------------------------------------------------------------------

 SCF Done:  E(RB3LYP) =  -423.209207157     A.U. after    1 cycles

 The electronic state is 1-A.
 Alpha  occ. eigenvalues --  -19.14834 -19.12529 -10.26547 -10.24515 -10.24084
 Alpha  occ. eigenvalues --  -10.20088 -10.19929 -10.19259 -10.18070  -1.04412
 Alpha  occ. eigenvalues --   -1.03386  -0.81715  -0.78252  -0.73208  -0.66108
 Alpha  occ. eigenvalues --   -0.65089  -0.57756  -0.52208  -0.50227  -0.48567
 Alpha  occ. eigenvalues --   -0.46519  -0.44917  -0.43540  -0.42330  -0.41477
 Alpha  occ. eigenvalues --   -0.39502  -0.38028  -0.37617  -0.36776  -0.35202
 Alpha  occ. eigenvalues --   -0.31936  -0.26933  -0.25650  -0.24227
 Alpha virt. eigenvalues --   -0.04682   0.04377   0.09175   0.10093   0.11956
 Alpha virt. eigenvalues --    0.12810   0.13507   0.14821   0.16078   0.16570
 Alpha virt. eigenvalues --    0.18322   0.18525   0.19661   0.21100   0.21908

 Mulliken charges:
               1
     1  C   -0.471559
     2  C    0.207847
     3  C   -0.138635
     4  C   -0.149692
     5  O   -0.233695
     6  C   -0.071751
     7  C   -0.346546
     8  C    0.332751
     9  O   -0.315970
    10  H    0.131885
    11  H    0.149958
    12  H    0.114065
    13  H    0.097033
    14  H    0.106435
    15  H    0.123084
    16  H    0.094584
    17  H    0.126262
    18  H    0.117991
    19  H    0.125950
 Sum of Mulliken charges =   0.00000

 Dipole moment (field-independent basis, Debye):
    X=             -1.2346    Y=              1.9197    Z=              1.9507  Tot=              3.0024
 Quadrupole moment (field-independent basis, Debye-Ang):
   XX=            -54.1191   YY=            -52.8749   ZZ=            -54.0162
   XY=              5.1316   XZ=             -1.2269   YZ=             -0.8249

  Exact polarizability:  91.858  -4.875  89.945  -4.151   2.396  56.092
 Approx polarizability: 126.523 -23.359 143.272  -8.078   9.026  90.608

                      1                      2                      3
                      A                      A                      A
 Frequencies --     67.5134               151.2547               159.0693
 Red. masses --      4.1897                 1.1239                 2.9062
 Frc consts  --      0.0113                 0.0151                 0.0433
 IR Inten    --      2.3827                 0.8549                 1.1373

                      4                      5                      6
                      A                      A                      A
 Frequencies --    199.9815               280.8016               306.5911
 Red. masses --      2.5458                 2.8840                 2.3547
 Frc consts  --      0.0600                 0.1340                 0.1304
 IR Inten    --      5.0519                 4.1137                 1.5299

                      7                      8                      9
                      A                      A                      A
 Frequencies --    326.3108               354.4807               405.4839
 Red. masses --      2.8951                 4.1769                 3.6835
 Frc consts  --      0.1816                 0.3092                 0.3568
 IR Inten    --      1.1080                 0.7799                 3.8220

                     10                     11                     12
                      A                      A                      A
 Frequencies --    506.2411               587.8908               647.6146
 Red. masses --      2.8804                 3.4656                 3.5875
 Frc consts  --      0.4349                 0.7057                 0.8865
 IR Inten    --      8.2139                 5.5853                 4.3108

                     13                     14                     15
                      A                      A                      A
 Frequencies --    694.0853               767.7175               830.4157
 Red. masses --      3.5302                 2.7627                 2.2783
 Frc consts  --      1.0020                 0.9594                 0.9257
 IR Inten    --     11.2852                 1.0861                 3.5809

                     16                     17                     18
                      A                      A                      A
 Frequencies --    860.8953               897.1215               917.9667
 Red. masses --      1.4471                 2.7466                 2.2563
 Frc consts  --      0.6319                 1.3024                 1.1202
 IR Inten    --      5.8979                 7.3600                 6.2579

                     19                     20                     21
                      A                      A                      A
 Frequencies --   1010.9511              1031.5773              1057.7675
 Red. masses --      2.1822                 1.9622                 1.7702
 Frc consts  --      1.3140                 1.2303                 1.1670
 IR Inten    --     18.6137                 5.2311                14.9153

                     22                     23                     24
                      A                      A                      A
 Frequencies --   1073.7318              1079.9200              1103.3371
 Red. masses --      1.8363                 2.2213                 2.6020
 Frc consts  --      1.2473                 1.5263                 1.8663
 IR Inten    --      1.5187                 2.0922                 9.7865

                     25                     26                     27
                      A                      A                      A
 Frequencies --   1172.1900              1228.4105              1248.8951
 Red. masses --      3.6124                 2.0033                 1.2185
 Frc consts  --      2.9244                 1.7811                 1.1198
 IR Inten    --    110.2347                53.7869                 6.0709

                     28                     29                     30
                      A                      A                      A
 Frequencies --   1258.3561              1304.8365              1347.8831
 Red. masses --      1.5116                 1.2990                 1.2676
 Frc consts  --      1.4102                 1.3030                 1.3569
 IR Inten    --      2.1499                21.3740                 5.2962

                     31                     32                     33
                      A                      A                      A
 Frequencies --   1382.8426              1389.4801              1410.3332
 Red. masses --      1.7125                 1.2903                 1.2337
 Frc consts  --      1.9294                 1.4677                 1.4458
 IR Inten    --     19.8690                14.4186                 4.1747

                     34                     35                     36
                      A                      A                      A
 Frequencies --   1419.3531              1467.4587              1470.6720
 Red. masses --      1.3488                 1.1001                 1.0476
 Frc consts  --      1.6009                 1.3957                 1.3350
 IR Inten    --     14.0073                 7.1218                 6.6409

                     37                     38                     39
                      A                      A                      A
 Frequencies --   1485.2220              1487.1536              1507.7125
 Red. masses --      1.0803                 1.0564                 1.0920
 Frc consts  --      1.4040                 1.3765                 1.4625
 IR Inten    --      5.3401                10.1190                 0.8183

                     40                     41                     42
                      A                      A                      A
 Frequencies --   1705.0143              1771.9069              2951.2191
 Red. masses --      7.2126                11.5604                 1.0713
 Frc consts  --     12.3537                21.3848                 5.4977
 IR Inten    --      6.4198               191.5465                36.9885

                     43                     44                     45
                      A                      A                      A
 Frequencies --   2972.6756              3038.5580              3042.2871
 Red. masses --      1.0710                 1.0364                 1.0634
 Frc consts  --      5.5762                 5.6377                 5.7991
 IR Inten    --     77.8209                18.3877                 8.7517

                     46                     47                     48
                      A                      A                      A
 Frequencies --   3061.2174              3084.5697              3096.2033
 Red. masses --      1.0889                 1.0914                 1.0975
 Frc consts  --      6.0119                 6.1183                 6.1989
 IR Inten    --     25.5749                17.5837                10.9944

                     49                     50                     51
                      A                      A                      A
 Frequencies --   3111.8588              3125.9977              3139.2581
 Red. masses --      1.0999                 1.1029                 1.0887
 Frc consts  --      6.2753                 6.3496                 6.3215
 IR Inten    --     17.8188                 9.8712                22.5972

 - Thermochemistry -
 -------------------
 Temperature   298.150 Kelvin.  Pressure   1.00000 Atm.
 Atom     1 has atomic number  6 and mass  12.00000

 Molecular mass:   126.06808 amu.
 Principal axes and moments of inertia in atomic units:
                           1         2         3
     Eigenvalues --   735.797041150.122341706.57984
           X            0.99656   0.08192  -0.01233
           Y           -0.08200   0.99661  -0.00680
           Z            0.01174   0.00778   0.99990
 This molecule is an asymmetric top.
 Rotational symmetry number  1.
 Warning -- assumption of classical behavior for rotation
           may cause significant error
 Rotational temperatures (Kelvin)      0.11771     0.07531     0.05075
 Rotational constants (GHZ):           2.45277     1.56917     1.05752
 Zero-point vibrational energy     418694.7 (Joules/Mol)
                                  100.07043 (Kcal/Mol)
 Warning -- explicit consideration of  11 degrees of freedom as
           vibrations may cause significant error
 Vibrational temperatures:     97.14   217.62   228.86   287.73   404.01
          (Kelvin)            441.12   469.49   510.02   583.40   728.37
                              845.84   931.77   998.63  1104.57  1194.78
                             1238.63  1290.76  1320.75  1454.53  1484.21
                             1521.89  1544.86  1553.76  1587.45  1686.52
                             1767.41  1796.88  1810.49  1877.37  1939.30
                             1989.60  1999.15  2029.15  2042.13  2111.34
                             2115.97  2136.90  2139.68  2169.26  2453.13
                             2549.38  4246.14  4277.01  4371.80  4377.17
                             4404.40  4438.00  4454.74  4477.27  4497.61
                             4516.69

 Zero-point correction=                           0.159472 (Hartree/Particle)
 Thermal correction to Energy=                    0.168119
 Thermal correction to Enthalpy=                  0.169063
 Thermal correction to Gibbs Free Energy=         0.126082
 Sum of electronic and zero-point Energies=           -423.049735
 Sum of electronic and thermal Energies=              -423.041088
 Sum of electronic and thermal Enthalpies=            -423.040144
 Sum of electronic and thermal Free Energies=         -423.083125

                     E (Thermal)             CV                S
                      KCal/Mol        Cal/Mol-Kelvin    Cal/Mol-Kelvin
 Total                  105.496             32.311             90.461
 Electronic               0.000              0.000              0.000
 Translational            0.889              2.981             40.409
 Rotational               0.889              2.981             28.759
 Vibrational            103.719             26.350             21.293
 Vibration     1          0.598              1.970              4.225
 Vibration     2          0.619              1.901              2.656
 Vibration     3          0.621              1.892              2.561
 Vibration     4          0.638              1.840              2.133
 Vibration     5          0.680              1.709              1.529
 Vibration     6          0.697              1.661              1.381
 Vibration     7          0.710              1.623              1.278
 Vibration     8          0.730              1.566              1.146
 Vibration     9          0.770              1.458              0.943
 Vibration    10          0.861              1.236              0.643
 Vibration    11          0.945              1.058              0.471

 Optimization completed.
    -- Stationary point found.
 Normal termination of Gaussian 09 at Mon Jan 27 22:49:34 2020.
