 Gaussian 09, Revision D.01,
 Gaussian 09:  ES64L-G09RevD.01 24-Apr-2013

 -----------------------------
 # b3lyp 6-31G(2df,p) opt Freq
 -----------------------------

 -----
 titel
 -----
 Symbolic Z-matrix:
 Charge =  0 Multiplicity = 1

 SCF Done:  E(RB3LYP) =  -423.242945825     A.U. after   14 cycles
 Optimization completed.
    -- Stationary point found.
 Normal termination of Gaussian 09 at Tue Jan 28 11:45:27 2020.

 ----------------------------------------------------------------------
 #N Geom=AllCheck Guess=TCheck SCRF=Check GenChk RB3LYP/6-31G(2df,p) Fr
 eq
 ----------------------------------------------------------------------

 Structure from the checkpoint file:  "/scratch/puck/g09_547ac886-dc80-475b-a9ef-95cb22ad1f08/Gau-89528.chk"
 -----
 titel
 -----
 Charge =  0 Multiplicity = 1

                         Standard orientation:
 ---------------------------------------------------------------------
 Center     Atomic      Atomic             Coordinates (Angstroms)
 Number     Number       Type             X           Y           Z
 ---------------------------------------------------------------------
      1          6           0        2.917414   -0.787212    0.266345
      2          6           0        2.120222    0.401851   -0.275592
      3          6           0        0.684672    0.453176    0.234800
      4          6           0       -0.089027    1.689313   -0.219824
      5          6           0       -1.544266    1.532171    0.113903
      6          6           0       -2.079426    0.317640    0.252813
      7          6           0       -1.300127   -0.910359   -0.026334
      8          8           0       -1.799796   -1.998445   -0.153811
      9          8           0        0.038446   -0.758837   -0.213206
     10          1           0        3.932986   -0.791756   -0.139635
     11          1           0        2.994500   -0.746589    1.358515
     12          1           0        2.435199   -1.729965   -0.002045
     13          1           0        2.608840    1.343988    0.002610
     14          1           0        2.093481    0.370477   -1.371631
     15          1           0        0.685769    0.433066    1.335108
     16          1           0        0.327776    2.575796    0.271041
     17          1           0        0.035250    1.846853   -1.301307
     18          1           0       -2.154668    2.424463    0.224506
     19          1           0       -3.125100    0.152445    0.482299
 ---------------------------------------------------------------------

 SCF Done:  E(RB3LYP) =  -423.242945825     A.U. after    1 cycles

 The electronic state is 1-A.
 Alpha  occ. eigenvalues --  -19.17136 -19.11372 -10.29972 -10.25316 -10.21823
 Alpha  occ. eigenvalues --  -10.20860 -10.20048 -10.19322 -10.17690  -1.08839
 Alpha  occ. eigenvalues --   -1.00882  -0.83107  -0.79977  -0.73517  -0.66587
 Alpha  occ. eigenvalues --   -0.62587  -0.60590  -0.54621  -0.50981  -0.48809
 Alpha  occ. eigenvalues --   -0.45593  -0.44099  -0.43833  -0.42539  -0.41646
 Alpha  occ. eigenvalues --   -0.39906  -0.38857  -0.36861  -0.35432  -0.34874
 Alpha  occ. eigenvalues --   -0.32286  -0.28785  -0.27914  -0.26089
 Alpha virt. eigenvalues --   -0.04407   0.07524   0.08056   0.10657   0.11241
 Alpha virt. eigenvalues --    0.12485   0.13875   0.15225   0.15920   0.16461
 Alpha virt. eigenvalues --    0.17206   0.18535   0.19427   0.20816   0.22876

 Mulliken charges:
               1
     1  C   -0.391718
     2  C   -0.187190
     3  C    0.136715
     4  C   -0.285208
     5  C   -0.068952
     6  C   -0.182052
     7  C    0.410785
     8  O   -0.338145
     9  O   -0.252455
    10  H    0.114671
    11  H    0.113822
    12  H    0.147249
    13  H    0.098856
    14  H    0.109736
    15  H    0.087835
    16  H    0.120425
    17  H    0.128844
    18  H    0.114793
    19  H    0.121988
 Sum of Mulliken charges =   0.00000

 Dipole moment (field-independent basis, Debye):
    X=              1.4020    Y=              4.4611    Z=              0.6176  Tot=              4.7169
 Quadrupole moment (field-independent basis, Debye-Ang):
   XX=            -52.2768   YY=            -57.2438   ZZ=            -52.7468
   XY=             -5.5620   XZ=             -0.9751   YZ=             -0.8650

  Exact polarizability:  90.439   5.398  89.122  -2.178  -0.331  55.720
 Approx polarizability: 115.822  19.519 147.675  -3.401   0.651  87.746

                      1                      2                      3
                      A                      A                      A
 Frequencies --     92.2550               117.6979               138.8062
 Red. masses --      2.5351                 3.3695                 3.7442
 Frc consts  --      0.0127                 0.0275                 0.0425
 IR Inten    --      1.2759                 0.4853                 0.1960

                      4                      5                      6
                      A                      A                      A
 Frequencies --    185.4125               246.4049               323.8917
 Red. masses --      1.9163                 1.3421                 2.6124
 Frc consts  --      0.0388                 0.0480                 0.1615
 IR Inten    --      1.5730                 0.2793                 1.3966

                      7                      8                      9
                      A                      A                      A
 Frequencies --    363.4662               425.5659               482.7510
 Red. masses --      3.7349                 3.0487                 5.5116
 Frc consts  --      0.2907                 0.3253                 0.7568
 IR Inten    --      0.9170                 1.5758                 2.9012

                     10                     11                     12
                      A                      A                      A
 Frequencies --    491.8301               555.2318               668.5577
 Red. masses --      3.0625                 4.4174                 1.6998
 Frc consts  --      0.4365                 0.8023                 0.4476
 IR Inten    --      1.0566                 7.1165                 4.0687

                     13                     14                     15
                      A                      A                      A
 Frequencies --    701.2093               781.4847               841.0955
 Red. masses --      3.5775                 1.3391                 2.7513
 Frc consts  --      1.0364                 0.4818                 1.1468
 IR Inten    --      0.5396                 7.1485                41.8179

                     16                     17                     18
                      A                      A                      A
 Frequencies --    873.3021               923.0175               934.4977
 Red. masses --      3.2802                 3.1287                 1.6317
 Frc consts  --      1.4739                 1.5705                 0.8395
 IR Inten    --      6.2350                 5.3682                 5.0401

                     19                     20                     21
                      A                      A                      A
 Frequencies --    968.9720              1010.6034              1017.2209
 Red. masses --      2.3022                 1.8137                 1.5180
 Frc consts  --      1.2735                 1.0914                 0.9254
 IR Inten    --     13.8345                20.8767                 4.7489

                     22                     23                     24
                      A                      A                      A
 Frequencies --   1048.6922              1085.5061              1120.3555
 Red. masses --      2.4543                 2.2468                 1.9852
 Frc consts  --      1.5903                 1.5598                 1.4681
 IR Inten    --     36.2611                34.8677                52.0848

                     25                     26                     27
                      A                      A                      A
 Frequencies --   1146.6080              1176.8721              1220.2114
 Red. masses --      1.9472                 1.4359                 1.3496
 Frc consts  --      1.5083                 1.1717                 1.1839
 IR Inten    --      4.5631                14.5438                 3.4668

                     28                     29                     30
                      A                      A                      A
 Frequencies --   1257.7305              1298.1313              1309.5565
 Red. masses --      2.3095                 1.2517                 1.2247
 Frc consts  --      2.1525                 1.2428                 1.2375
 IR Inten    --    187.5280                 0.4960                 1.5579

                     31                     32                     33
                      A                      A                      A
 Frequencies --   1365.8474              1394.2777              1400.2619
 Red. masses --      1.5306                 1.2893                 1.6313
 Frc consts  --      1.6823                 1.4767                 1.8845
 IR Inten    --      2.6681                10.6560                26.4798

                     34                     35                     36
                      A                      A                      A
 Frequencies --   1410.6375              1413.0144              1462.7541
 Red. masses --      1.7909                 1.2473                 1.0960
 Frc consts  --      2.0997                 1.4673                 1.3817
 IR Inten    --     21.8142                 3.6878                 2.2947

                     37                     38                     39
                      A                      A                      A
 Frequencies --   1476.3532              1498.0148              1510.0665
 Red. masses --      1.0792                 1.0421                 1.0585
 Frc consts  --      1.3859                 1.3778                 1.4221
 IR Inten    --      1.6707                 4.6786                 5.3628

                     40                     41                     42
                      A                      A                      A
 Frequencies --   1694.6197              1824.8229              2991.5103
 Red. masses --      6.8565                12.0663                 1.0816
 Frc consts  --     11.6011                23.6737                 5.7029
 IR Inten    --      3.6396               355.5092                16.3965

                     43                     44                     45
                      A                      A                      A
 Frequencies --   3009.8653              3028.5460              3040.1419
 Red. masses --      1.0680                 1.0604                 1.0390
 Frc consts  --      5.7003                 5.7302                 5.6580
 IR Inten    --     14.5367                27.0380                23.8440

                     46                     47                     48
                      A                      A                      A
 Frequencies --   3063.9468              3071.5373              3106.1110
 Red. masses --      1.0969                 1.0965                 1.1002
 Frc consts  --      6.0671                 6.0948                 6.2539
 IR Inten    --      2.6754                34.9399                35.4274

                     49                     50                     51
                      A                      A                      A
 Frequencies --   3131.9835              3165.7990              3214.9983
 Red. masses --      1.1011                 1.0887                 1.0956
 Frc consts  --      6.3636                 6.4289                 6.6722
 IR Inten    --     17.6458                12.3335                 4.7836

 - Thermochemistry -
 -------------------
 Temperature   298.150 Kelvin.  Pressure   1.00000 Atm.
 Atom     1 has atomic number  6 and mass  12.00000

 Molecular mass:   126.06808 amu.
 Principal axes and moments of inertia in atomic units:
                           1         2         3
     Eigenvalues --   688.811201370.416491968.86301
           X            0.99883  -0.04843  -0.00059
           Y            0.04842   0.99877  -0.01102
           Z            0.00112   0.01098   0.99994
 This molecule is an asymmetric top.
 Rotational symmetry number  1.
 Warning -- assumption of classical behavior for rotation
           may cause significant error
 Rotational temperatures (Kelvin)      0.12574     0.06320     0.04399
 Rotational constants (GHZ):           2.62008     1.31693     0.91664
 Zero-point vibrational energy     419183.7 (Joules/Mol)
                                  100.18732 (Kcal/Mol)
 Warning -- explicit consideration of  11 degrees of freedom as
           vibrations may cause significant error
 Vibrational temperatures:    132.73   169.34   199.71   266.77   354.52
          (Kelvin)            466.01   522.95   612.29   694.57   707.63
                              798.85   961.90  1008.88  1124.38  1210.15
                             1256.49  1328.01  1344.53  1394.13  1454.03
                             1463.55  1508.83  1561.80  1611.94  1649.71
                             1693.25  1755.61  1809.59  1867.72  1884.16
                             1965.15  2006.05  2014.66  2029.59  2033.01
                             2104.57  2124.14  2155.31  2172.65  2438.18
                             2625.51  4304.11  4330.52  4357.40  4374.08
                             4408.33  4419.25  4469.00  4506.22  4554.87
                             4625.66

 Zero-point correction=                           0.159659 (Hartree/Particle)
 Thermal correction to Energy=                    0.168247
 Thermal correction to Enthalpy=                  0.169191
 Thermal correction to Gibbs Free Energy=         0.126186
 Sum of electronic and zero-point Energies=           -423.083287
 Sum of electronic and thermal Energies=              -423.074699
 Sum of electronic and thermal Enthalpies=            -423.073755
 Sum of electronic and thermal Free Energies=         -423.116760

                     E (Thermal)             CV                S
                      KCal/Mol        Cal/Mol-Kelvin    Cal/Mol-Kelvin
 Total                  105.576             32.164             90.511
 Electronic               0.000              0.000              0.000
 Translational            0.889              2.981             40.409
 Rotational               0.889              2.981             29.009
 Vibrational            103.799             26.202             21.093
 Vibration     1          0.602              1.955              3.612
 Vibration     2          0.608              1.935              3.138
 Vibration     3          0.614              1.915              2.820
 Vibration     4          0.631              1.860              2.273
 Vibration     5          0.661              1.769              1.756
 Vibration     6          0.708              1.628              1.290
 Vibration     7          0.737              1.547              1.107
 Vibration     8          0.787              1.415              0.873
 Vibration     9          0.839              1.288              0.703
 Vibration    10          0.848              1.268              0.679
 Vibration    11          0.911              1.128              0.533

 Optimization completed.
    -- Stationary point found.
 Normal termination of Gaussian 09 at Tue Jan 28 13:16:18 2020.
