 Gaussian 09, Revision D.01,
 Gaussian 09:  ES64L-G09RevD.01 24-Apr-2013

 -----------------------------
 # b3lyp 6-31G(2df,p) opt Freq
 -----------------------------

 -----
 titel
 -----
 Symbolic Z-matrix:
 Charge =  0 Multiplicity = 1

 SCF Done:  E(RB3LYP) =  -423.117498585     A.U. after   14 cycles
 Optimization completed.
    -- Stationary point found.
 Normal termination of Gaussian 09 at Mon Jan 27 18:43:07 2020.

 ----------------------------------------------------------------------
 #N Geom=AllCheck Guess=TCheck SCRF=Check GenChk RB3LYP/6-31G(2df,p) Fr
 eq
 ----------------------------------------------------------------------

 Structure from the checkpoint file:  "/scratch/puck/g09_cf1aee48-b8a7-4fc3-b5a4-7f76d91810f3/Gau-83006.chk"
 -----
 titel
 -----
 Charge =  0 Multiplicity = 1

                         Standard orientation:
 ---------------------------------------------------------------------
 Center     Atomic      Atomic             Coordinates (Angstroms)
 Number     Number       Type             X           Y           Z
 ---------------------------------------------------------------------
      1          6           0        0.867411    1.947315   -0.213413
      2          6           0        0.940177    0.490258    0.102043
      3          8           0        2.223078   -0.057336    0.451412
      4          6           0        1.931960   -1.262288   -0.310028
      5          6           0        0.524353   -0.776082   -0.615961
      6          6           0       -0.141332   -0.379692    0.692407
      7          6           0       -1.563560    0.082063    0.647701
      8          6           0       -2.630085   -0.690864   -0.006256
      9          8           0       -2.089866    0.480703   -0.623189
     10          1           0        1.590976    2.209558   -0.991366
     11          1           0       -0.133844    2.211388   -0.561659
     12          1           0        1.095674    2.545962    0.676026
     13          1           0        2.579824   -1.324309   -1.192043
     14          1           0        2.041358   -2.172567    0.292256
     15          1           0       -0.028012   -0.898151   -1.537091
     16          1           0        0.113193   -0.933357    1.596071
     17          1           0       -1.859728    0.740048    1.466931
     18          1           0       -2.381470   -1.630153   -0.497037
     19          1           0       -3.657204   -0.599609    0.343176
 ---------------------------------------------------------------------

 SCF Done:  E(RB3LYP) =  -423.117498585     A.U. after    1 cycles

 The electronic state is 1-A.
 Alpha  occ. eigenvalues --  -19.15733 -19.13216 -10.24560 -10.24127 -10.23699
 Alpha  occ. eigenvalues --  -10.23262 -10.19577 -10.19199 -10.17874  -1.07591
 Alpha  occ. eigenvalues --   -1.04620  -0.83692  -0.73840  -0.70118  -0.66847
 Alpha  occ. eigenvalues --   -0.64490  -0.56695  -0.53952  -0.50118  -0.49433
 Alpha  occ. eigenvalues --   -0.48628  -0.46288  -0.44053  -0.41173  -0.40261
 Alpha  occ. eigenvalues --   -0.39352  -0.38184  -0.36964  -0.33951  -0.32671
 Alpha  occ. eigenvalues --   -0.30288  -0.27628  -0.26690  -0.22695
 Alpha virt. eigenvalues --    0.08009   0.09410   0.10271   0.10777   0.11655
 Alpha virt. eigenvalues --    0.12653   0.13129   0.14446   0.15023   0.16035
 Alpha virt. eigenvalues --    0.17700   0.17817   0.18934   0.19651   0.20852

 Mulliken charges:
               1
     1  C   -0.500430
     2  C    0.467073
     3  O   -0.326487
     4  C   -0.106737
     5  C   -0.190696
     6  C   -0.127349
     7  C    0.037130
     8  C   -0.173401
     9  O   -0.231073
    10  H    0.127117
    11  H    0.151506
    12  H    0.127251
    13  H    0.108782
    14  H    0.101316
    15  H    0.112453
    16  H    0.090776
    17  H    0.098674
    18  H    0.116517
    19  H    0.117578
 Sum of Mulliken charges =   0.00000

 Dipole moment (field-independent basis, Debye):
    X=             -1.2206    Y=             -1.2079    Z=              0.2221  Tot=              1.7316
 Quadrupole moment (field-independent basis, Debye-Ang):
   XX=            -55.4787   YY=            -50.4609   ZZ=            -52.7816
   XY=              1.1229   XZ=             -5.0563   YZ=              1.5424

  Exact polarizability:  87.638   0.581  75.844  -3.064   3.027  63.710
 Approx polarizability: 115.046   3.063 109.997  -0.079   4.308 103.050

                      1                      2                      3
                      A                      A                      A
 Frequencies --     83.5541               149.4182               167.5206
 Red. masses --      3.8789                 2.9818                 3.6676
 Frc consts  --      0.0160                 0.0392                 0.0606
 IR Inten    --      3.3054                 1.2453                 3.5894

                      4                      5                      6
                      A                      A                      A
 Frequencies --    206.2178               240.2651               310.6335
 Red. masses --      1.1205                 2.4678                 2.5988
 Frc consts  --      0.0281                 0.0839                 0.1477
 IR Inten    --      0.3961                 3.9892                 0.3675

                      7                      8                      9
                      A                      A                      A
 Frequencies --    341.5396               383.6035               458.0801
 Red. masses --      4.1249                 3.2193                 2.8099
 Frc consts  --      0.2835                 0.2791                 0.3474
 IR Inten    --      1.2635                 5.5862                 3.4767

                     10                     11                     12
                      A                      A                      A
 Frequencies --    588.8433               686.5198               742.4595
 Red. masses --      3.2530                 3.2077                 3.2438
 Frc consts  --      0.6646                 0.8907                 1.0535
 IR Inten    --      3.0474                 4.1198                 6.5329

                     13                     14                     15
                      A                      A                      A
 Frequencies --    799.9861               859.3673               884.5070
 Red. masses --      4.0397                 2.6276                 2.6213
 Frc consts  --      1.5232                 1.1433                 1.2083
 IR Inten    --      5.4902                 4.5261                21.6583

                     16                     17                     18
                      A                      A                      A
 Frequencies --    925.3157               933.8605               966.4418
 Red. masses --      2.2517                 1.8357                 2.8842
 Frc consts  --      1.1359                 0.9432                 1.5872
 IR Inten    --     15.2537                32.3129                30.8417

                     19                     20                     21
                      A                      A                      A
 Frequencies --    984.0618               984.6360              1022.4604
 Red. masses --      1.5879                 3.9946                 2.0031
 Frc consts  --      0.9060                 2.2818                 1.2338
 IR Inten    --     19.0543                29.2054                 0.1313

                     22                     23                     24
                      A                      A                      A
 Frequencies --   1036.5811              1081.4750              1102.6324
 Red. masses --      1.5667                 1.4035                 1.2846
 Frc consts  --      0.9919                 0.9671                 0.9202
 IR Inten    --      2.6264                 0.9978                 4.5800

                     25                     26                     27
                      A                      A                      A
 Frequencies --   1125.0622              1133.2925              1159.6854
 Red. masses --      1.8888                 1.8256                 1.2888
 Frc consts  --      1.4086                 1.3815                 1.0212
 IR Inten    --      7.3610                 9.5066                 0.6032

                     28                     29                     30
                      A                      A                      A
 Frequencies --   1162.5224              1170.3583              1191.1433
 Red. masses --      1.4064                 1.3676                 1.8750
 Frc consts  --      1.1199                 1.1037                 1.5674
 IR Inten    --      3.0848                 6.5449                46.6782

                     31                     32                     33
                      A                      A                      A
 Frequencies --   1245.4826              1286.4633              1336.7275
 Red. masses --      1.6868                 1.7186                 1.4755
 Frc consts  --      1.5416                 1.6758                 1.5534
 IR Inten    --      0.6412                 9.3606                 8.2564

                     34                     35                     36
                      A                      A                      A
 Frequencies --   1339.9530              1409.2525              1426.1885
 Red. masses --      1.8485                 1.3271                 1.8673
 Frc consts  --      1.9554                 1.5529                 2.2378
 IR Inten    --      7.8839                 4.9555                21.8183

                     37                     38                     39
                      A                      A                      A
 Frequencies --   1455.1207              1481.4971              1501.4744
 Red. masses --      3.6176                 1.0498                 1.1305
 Frc consts  --      4.5130                 1.3575                 1.5016
 IR Inten    --     14.6275                 2.3845                 4.8450

                     40                     41                     42
                      A                      A                      A
 Frequencies --   1520.1221              1522.1787              3018.5867
 Red. masses --      1.1641                 1.2704                 1.0549
 Frc consts  --      1.5849                 1.7343                 5.6632
 IR Inten    --      1.4089                 2.6846                87.8142

                     43                     44                     45
                      A                      A                      A
 Frequencies --   3034.7172              3066.0179              3086.7001
 Red. masses --      1.0378                 1.1111                 1.0602
 Frc consts  --      5.6311                 6.1540                 5.9513
 IR Inten    --     23.9822                37.7593                26.4721

                     46                     47                     48
                      A                      A                      A
 Frequencies --   3091.0216              3096.3809              3107.8658
 Red. masses --      1.0759                 1.0994                 1.0879
 Frc consts  --      6.0566                 6.2102                 6.1910
 IR Inten    --     22.4945                17.7385                21.7628

                     49                     50                     51
                      A                      A                      A
 Frequencies --   3133.0071              3178.2822              3213.7710
 Red. masses --      1.0996                 1.1199                 1.0934
 Frc consts  --      6.3594                 6.6652                 6.6535
 IR Inten    --      8.4569                24.7564                 3.9533

 - Thermochemistry -
 -------------------
 Temperature   298.150 Kelvin.  Pressure   1.00000 Atm.
 Atom     1 has atomic number  6 and mass  12.00000

 Molecular mass:   126.06808 amu.
 Principal axes and moments of inertia in atomic units:
                           1         2         3
     Eigenvalues --   540.979611442.797501717.37905
           X            0.99979   0.01110  -0.01740
           Y           -0.01093   0.99989   0.00984
           Z            0.01750  -0.00965   0.99980
 This molecule is an asymmetric top.
 Rotational symmetry number  1.
 Warning -- assumption of classical behavior for rotation
           may cause significant error
 Rotational temperatures (Kelvin)      0.16011     0.06003     0.05043
 Rotational constants (GHZ):           3.33606     1.25086     1.05087
 Zero-point vibrational energy     415300.7 (Joules/Mol)
                                   99.25925 (Kcal/Mol)
 Warning -- explicit consideration of  10 degrees of freedom as
           vibrations may cause significant error
 Vibrational temperatures:    120.22   214.98   241.02   296.70   345.69
          (Kelvin)            446.93   491.40   551.92   659.07   847.21
                              987.75  1068.23  1151.00  1236.44  1272.61
                             1331.32  1343.62  1390.49  1415.84  1416.67
                             1471.09  1491.41  1556.00  1586.44  1618.71
                             1630.55  1668.53  1672.61  1683.88  1713.79
                             1791.97  1850.93  1923.25  1927.89  2027.60
                             2051.96  2093.59  2131.54  2160.28  2187.11
                             2190.07  4343.07  4366.28  4411.31  4441.07
                             4447.29  4455.00  4471.52  4507.69  4572.83
                             4623.89

 Zero-point correction=                           0.158180 (Hartree/Particle)
 Thermal correction to Energy=                    0.166566
 Thermal correction to Enthalpy=                  0.167510
 Thermal correction to Gibbs Free Energy=         0.125127
 Sum of electronic and zero-point Energies=           -422.959319
 Sum of electronic and thermal Energies=              -422.950933
 Sum of electronic and thermal Enthalpies=            -422.949989
 Sum of electronic and thermal Free Energies=         -422.992371

                     E (Thermal)             CV                S
                      KCal/Mol        Cal/Mol-Kelvin    Cal/Mol-Kelvin
 Total                  104.522             31.781             89.202
 Electronic               0.000              0.000              0.000
 Translational            0.889              2.981             40.409
 Rotational               0.889              2.981             28.685
 Vibrational            102.744             25.819             20.108
 Vibration     1          0.600              1.961              3.806
 Vibration     2          0.618              1.903              2.680
 Vibration     3          0.624              1.882              2.463
 Vibration     4          0.641              1.831              2.077
 Vibration     5          0.657              1.779              1.801
 Vibration     6          0.699              1.653              1.359
 Vibration     7          0.721              1.592              1.205
 Vibration     8          0.753              1.505              1.025
 Vibration     9          0.816              1.343              0.772
 Vibration    10          0.946              1.056              0.469

 Normal termination of Gaussian 09 at Mon Jan 27 19:31:29 2020.
