 Gaussian 09, Revision D.01,
 Gaussian 09:  ES64L-G09RevD.01 24-Apr-2013

 -----------------------------
 # b3lyp 6-31G(2df,p) opt Freq
 -----------------------------

 -----
 titel
 -----
 Symbolic Z-matrix:
 Charge =  0 Multiplicity = 1

 SCF Done:  E(RB3LYP) =  -423.170324973     A.U. after   14 cycles
 Optimization completed.
    -- Stationary point found.
 Normal termination of Gaussian 09 at Tue Jan 28 02:24:59 2020.

 ----------------------------------------------------------------------
 #N Geom=AllCheck Guess=TCheck SCRF=Check GenChk RB3LYP/6-31G(2df,p) Fr
 eq
 ----------------------------------------------------------------------

 Structure from the checkpoint file:  "/scratch/puck/g09_2873f85b-5f3b-4eba-a340-eed2591ed6db/Gau-86324.chk"
 -----
 titel
 -----
 Charge =  0 Multiplicity = 1

                         Standard orientation:
 ---------------------------------------------------------------------
 Center     Atomic      Atomic             Coordinates (Angstroms)
 Number     Number       Type             X           Y           Z
 ---------------------------------------------------------------------
      1          6           0       -1.654405    1.603901   -0.508825
      2          6           0       -0.575332    1.148097    0.466614
      3          6           0        0.891322    1.523236    0.043969
      4          6           0        1.233667    0.025976   -0.036550
      5          6           0        2.240658   -0.645977   -0.914080
      6          8           0        0.966309   -0.527122    1.241767
      7          6           0       -0.169386   -0.332393    0.371399
      8          6           0       -0.943219   -1.538312    0.032472
      9          8           0       -2.105103   -1.535342   -0.300584
     10          1           0       -1.744072    2.695085   -0.488717
     11          1           0       -1.414498    1.305248   -1.535116
     12          1           0       -2.622894    1.166207   -0.258377
     13          1           0       -0.829714    1.435081    1.490782
     14          1           0        0.920929    2.021881   -0.928434
     15          1           0        1.491410    2.085582    0.763483
     16          1           0        3.253694   -0.362209   -0.606066
     17          1           0        2.157360   -1.733031   -0.845351
     18          1           0        2.110491   -0.344104   -1.957531
     19          1           0       -0.352176   -2.477192    0.105861
 ---------------------------------------------------------------------

 SCF Done:  E(RB3LYP) =  -423.170324973     A.U. after    1 cycles

 The electronic state is 1-A.
 Alpha  occ. eigenvalues --  -19.16762 -19.14071 -10.27385 -10.26251 -10.24651
 Alpha  occ. eigenvalues --  -10.20363 -10.19954 -10.19609 -10.17834  -1.09574
 Alpha  occ. eigenvalues --   -1.04578  -0.82330  -0.76196  -0.70900  -0.70241
 Alpha  occ. eigenvalues --   -0.61210  -0.59539  -0.52505  -0.49983  -0.48025
 Alpha  occ. eigenvalues --   -0.46803  -0.45334  -0.43334  -0.42015  -0.40789
 Alpha  occ. eigenvalues --   -0.40176  -0.38821  -0.38535  -0.35208  -0.34803
 Alpha  occ. eigenvalues --   -0.33495  -0.30116  -0.26263  -0.25345
 Alpha virt. eigenvalues --   -0.03768   0.08910   0.09614   0.10034   0.11146
 Alpha virt. eigenvalues --    0.12758   0.14192   0.14697   0.15624   0.15896
 Alpha virt. eigenvalues --    0.16870   0.17868   0.18775   0.19256   0.20616

 Mulliken charges:
               1
     1  C   -0.404025
     2  C   -0.061465
     3  C   -0.298804
     4  C    0.339317
     5  C   -0.495940
     6  O   -0.308323
     7  C    0.254087
     8  C    0.060803
     9  O   -0.264475
    10  H    0.113861
    11  H    0.114005
    12  H    0.143983
    13  H    0.088539
    14  H    0.109518
    15  H    0.112051
    16  H    0.138854
    17  H    0.139221
    18  H    0.133810
    19  H    0.084981
 Sum of Mulliken charges =   0.00000

 Dipole moment (field-independent basis, Debye):
    X=              2.2884    Y=              1.4002    Z=             -1.0237  Tot=              2.8715
 Quadrupole moment (field-independent basis, Debye-Ang):
   XX=            -56.9793   YY=            -52.3911   ZZ=            -54.3743
   XY=             -3.4966   XZ=             -3.9521   YZ=              0.4035

  Exact polarizability:  91.288   2.065  80.373  -0.259   0.677  61.703
 Approx polarizability: 140.379   8.680 109.898   5.260  -1.413  99.058

                      1                      2                      3
                      A                      A                      A
 Frequencies --     90.8412               129.5299               166.1482
 Red. masses --      3.7786                 2.8530                 4.3436
 Frc consts  --      0.0184                 0.0282                 0.0706
 IR Inten    --      2.7952                 1.1144                 5.9524

                      4                      5                      6
                      A                      A                      A
 Frequencies --    184.7751               221.9512               238.3347
 Red. masses --      1.0556                 2.3247                 1.0560
 Frc consts  --      0.0212                 0.0675                 0.0353
 IR Inten    --      0.4732                 2.9737                 1.0719

                      7                      8                      9
                      A                      A                      A
 Frequencies --    328.7981               333.7809               369.9676
 Red. masses --      2.1438                 3.1624                 2.7223
 Frc consts  --      0.1366                 0.2076                 0.2195
 IR Inten    --      2.6579                 6.3724                 0.7127

                     10                     11                     12
                      A                      A                      A
 Frequencies --    463.0860               485.0285               533.6923
 Red. masses --      3.2308                 3.6033                 6.1370
 Frc consts  --      0.4082                 0.4994                 1.0299
 IR Inten    --      1.5660                11.1852                 6.2121

                     13                     14                     15
                      A                      A                      A
 Frequencies --    599.6030               725.7980               752.6861
 Red. masses --      3.7316                 4.3702                 2.6300
 Frc consts  --      0.7904                 1.3564                 0.8779
 IR Inten    --      7.2027                10.6087                18.9949

                     16                     17                     18
                      A                      A                      A
 Frequencies --    818.7298               840.8396               910.1246
 Red. masses --      4.7114                 2.8757                 1.5776
 Frc consts  --      1.8607                 1.1979                 0.7699
 IR Inten    --     31.4245                 1.8650                 3.9695

                     19                     20                     21
                      A                      A                      A
 Frequencies --    917.3386              1004.3797              1022.7166
 Red. masses --      2.0221                 1.6734                 1.5889
 Frc consts  --      1.0026                 0.9946                 0.9792
 IR Inten    --      3.0222                 1.2201                 0.9154

                     22                     23                     24
                      A                      A                      A
 Frequencies --   1035.3024              1087.7090              1104.2040
 Red. masses --      1.7284                 1.8490                 2.0112
 Frc consts  --      1.0915                 1.2889                 1.4448
 IR Inten    --     13.8358                 1.8992                 4.4644

                     25                     26                     27
                      A                      A                      A
 Frequencies --   1127.9815              1194.8561              1211.9765
 Red. masses --      1.9994                 1.6251                 1.6742
 Frc consts  --      1.4988                 1.3669                 1.4489
 IR Inten    --      8.8930                 2.6922                13.4811

                     28                     29                     30
                      A                      A                      A
 Frequencies --   1233.7021              1265.8527              1309.8634
 Red. masses --      2.0688                 1.9257                 2.6520
 Frc consts  --      1.8552                 1.8180                 2.6809
 IR Inten    --     17.6810                 7.9682                14.3304

                     31                     32                     33
                      A                      A                      A
 Frequencies --   1346.8520              1384.9511              1407.6551
 Red. masses --      1.6953                 1.5015                 1.2957
 Frc consts  --      1.8119                 1.6969                 1.5127
 IR Inten    --      8.6885                15.6600                10.9791

                     34                     35                     36
                      A                      A                      A
 Frequencies --   1415.0730              1450.2960              1475.6751
 Red. masses --      1.2379                 1.9131                 1.1896
 Frc consts  --      1.4605                 2.3708                 1.5263
 IR Inten    --      3.3093                34.3267                 3.2656

                     37                     38                     39
                      A                      A                      A
 Frequencies --   1480.1812              1491.2983              1494.5886
 Red. masses --      1.0846                 1.0495                 1.2065
 Frc consts  --      1.4001                 1.3752                 1.5879
 IR Inten    --      5.5455                 8.9674                 2.9249

                     40                     41                     42
                      A                      A                      A
 Frequencies --   1498.0443              1799.6981              2896.5085
 Red. masses --      1.0647                10.5028                 1.0832
 Frc consts  --      1.4078                20.0426                 5.3541
 IR Inten    --      3.2802               217.8941                92.2523

                     43                     44                     45
                      A                      A                      A
 Frequencies --   3035.6684              3037.2824              3061.6402
 Red. masses --      1.0374                 1.0377                 1.0599
 Frc consts  --      5.6327                 5.6402                 5.8535
 IR Inten    --     19.6063                16.2575                28.3769

                     46                     47                     48
                      A                      A                      A
 Frequencies --   3067.8143              3099.7424              3101.2347
 Red. masses --      1.0838                 1.1009                 1.0982
 Frc consts  --      6.0096                 6.2323                 6.2232
 IR Inten    --     11.0733                32.6458                 9.4156

                     49                     50                     51
                      A                      A                      A
 Frequencies --   3120.5190              3130.4241              3131.5558
 Red. masses --      1.1077                 1.1015                 1.0999
 Frc consts  --      6.3552                 6.3598                 6.3549
 IR Inten    --     21.8270                 7.6164                14.8423

 - Thermochemistry -
 -------------------
 Temperature   298.150 Kelvin.  Pressure   1.00000 Atm.
 Atom     1 has atomic number  6 and mass  12.00000

 Molecular mass:   126.06808 amu.
 Principal axes and moments of inertia in atomic units:
                           1         2         3
     Eigenvalues --   838.650891119.732771568.24024
           X            0.99082  -0.13263  -0.02611
           Y            0.13276   0.99114   0.00318
           Z            0.02546  -0.00661   0.99965
 This molecule is an asymmetric top.
 Rotational symmetry number  1.
 Warning -- assumption of classical behavior for rotation
           may cause significant error
 Rotational temperatures (Kelvin)      0.10328     0.07735     0.05523
 Rotational constants (GHZ):           2.15196     1.61176     1.15081
 Zero-point vibrational energy     410536.2 (Joules/Mol)
                                   98.12052 (Kcal/Mol)
 Warning -- explicit consideration of  13 degrees of freedom as
           vibrations may cause significant error
 Vibrational temperatures:    130.70   186.36   239.05   265.85   319.34
          (Kelvin)            342.91   473.07   480.24   532.30   666.28
                              697.85   767.86   862.69  1044.26  1082.95
                             1177.97  1209.78  1309.46  1319.84  1445.08
                             1471.46  1489.57  1564.97  1588.70  1622.91
                             1719.13  1743.76  1775.02  1821.28  1884.60
                             1937.82  1992.63  2025.30  2035.97  2086.65
                             2123.16  2129.65  2145.64  2150.38  2155.35
                             2589.36  4167.42  4367.64  4369.97  4405.01
                             4413.90  4459.83  4461.98  4489.73  4503.98
                             4505.60

 Zero-point correction=                           0.156365 (Hartree/Particle)
 Thermal correction to Energy=                    0.165564
 Thermal correction to Enthalpy=                  0.166508
 Thermal correction to Gibbs Free Energy=         0.122653
 Sum of electronic and zero-point Energies=           -423.013960
 Sum of electronic and thermal Energies=              -423.004761
 Sum of electronic and thermal Enthalpies=            -423.003817
 Sum of electronic and thermal Free Energies=         -423.047672

                     E (Thermal)             CV                S
                      KCal/Mol        Cal/Mol-Kelvin    Cal/Mol-Kelvin
 Total                  103.893             34.177             92.301
 Electronic               0.000              0.000              0.000
 Translational            0.889              2.981             40.409
 Rotational               0.889              2.981             28.778
 Vibrational            102.116             28.215             23.114
 Vibration     1          0.602              1.956              3.642
 Vibration     2          0.612              1.924              2.953
 Vibration     3          0.624              1.884              2.479
 Vibration     4          0.631              1.861              2.280
 Vibration     5          0.648              1.808              1.943
 Vibration     6          0.656              1.782              1.815
 Vibration     7          0.712              1.618              1.266
 Vibration     8          0.715              1.608              1.242
 Vibration     9          0.742              1.534              1.080
 Vibration    10          0.821              1.332              0.757
 Vibration    11          0.841              1.283              0.697
 Vibration    12          0.889              1.175              0.579
 Vibration    13          0.958              1.033              0.450

 Optimization completed.
    -- Stationary point found.
 Normal termination of Gaussian 09 at Tue Jan 28 03:06:49 2020.
