 Gaussian 09, Revision D.01,
 Gaussian 09:  ES64L-G09RevD.01 24-Apr-2013

 -----------------------------
 # b3lyp 6-31G(2df,p) opt Freq
 -----------------------------

 -----
 titel
 -----
 Symbolic Z-matrix:
 Charge =  0 Multiplicity = 1

 SCF Done:  E(RB3LYP) =  -423.193396068     A.U. after   14 cycles
 Optimization completed.
    -- Stationary point found.
 Normal termination of Gaussian 09 at Mon Jan 27 22:00:15 2020.

 ----------------------------------------------------------------------
 #N Geom=AllCheck Guess=TCheck SCRF=Check GenChk RB3LYP/6-31G(2df,p) Fr
 eq
 ----------------------------------------------------------------------

 Structure from the checkpoint file:  "/scratch/puck/g09_d62f2715-f919-4b34-97a7-572bf6cd473b/Gau-99230.chk"
 -----
 titel
 -----
 Charge =  0 Multiplicity = 1

                         Standard orientation:
 ---------------------------------------------------------------------
 Center     Atomic      Atomic             Coordinates (Angstroms)
 Number     Number       Type             X           Y           Z
 ---------------------------------------------------------------------
      1          6           0       -2.747502   -0.634012   -0.135981
      2          6           0       -1.280555   -0.445808    0.050250
      3          6           0       -0.237173   -1.146416   -0.402560
      4          6           0        0.997603   -0.334940   -0.012354
      5          6           0        2.354981   -0.974815    0.038277
      6          8           0        1.016858    0.819827   -0.909888
      7          6           0       -0.059196    1.636984   -0.450630
      8          6           0       -0.639070    0.772052    0.715131
      9          8           0        0.595096    0.242523    1.218619
     10          1           0       -3.192591    0.209156   -0.680022
     11          1           0       -2.965183   -1.546361   -0.697329
     12          1           0       -3.267849   -0.692057    0.828345
     13          1           0       -0.233238   -2.024947   -1.033922
     14          1           0        2.638664   -1.322373   -0.958168
     15          1           0        3.093823   -0.247340    0.380952
     16          1           0        2.343026   -1.828068    0.720693
     17          1           0        0.330936    2.589398   -0.075547
     18          1           0       -0.780776    1.823921   -1.253737
     19          1           0       -1.196969    1.301601    1.486082
 ---------------------------------------------------------------------

 SCF Done:  E(RB3LYP) =  -423.193396068     A.U. after    1 cycles

 The electronic state is 1-A.
 Alpha  occ. eigenvalues --  -19.14055 -19.13162 -10.27778 -10.23863 -10.22621
 Alpha  occ. eigenvalues --  -10.19204 -10.19175 -10.17727 -10.17579  -1.08849
 Alpha  occ. eigenvalues --   -0.97984  -0.80820  -0.77957  -0.70940  -0.69424
 Alpha  occ. eigenvalues --   -0.61719  -0.56925  -0.54539  -0.50240  -0.49349
 Alpha  occ. eigenvalues --   -0.45202  -0.44484  -0.42155  -0.41448  -0.41260
 Alpha  occ. eigenvalues --   -0.38520  -0.37640  -0.37156  -0.36329  -0.33831
 Alpha  occ. eigenvalues --   -0.31908  -0.27629  -0.25811  -0.23241
 Alpha virt. eigenvalues --    0.01101   0.09660   0.10519   0.12622   0.12956
 Alpha virt. eigenvalues --    0.13549   0.14223   0.15143   0.16309   0.16847
 Alpha virt. eigenvalues --    0.17947   0.18646   0.19726   0.21769   0.22653

 Mulliken charges:
               1
     1  C   -0.508259
     2  C    0.337971
     3  C   -0.245896
     4  C    0.458999
     5  C   -0.491642
     6  O   -0.307028
     7  C   -0.086891
     8  C   -0.088572
     9  O   -0.259567
    10  H    0.131010
    11  H    0.131729
    12  H    0.131408
    13  H    0.104134
    14  H    0.132381
    15  H    0.137577
    16  H    0.131402
    17  H    0.106602
    18  H    0.099286
    19  H    0.085357
 Sum of Mulliken charges =   0.00000

 Dipole moment (field-independent basis, Debye):
    X=             -1.7847    Y=             -0.3780    Z=             -0.2438  Tot=              1.8405
 Quadrupole moment (field-independent basis, Debye-Ang):
   XX=            -49.7262   YY=            -50.0734   ZZ=            -56.2528
   XY=             -3.0245   XZ=              0.0109   YZ=              2.0777

  Exact polarizability:  90.781  -5.027  76.634  -2.049   3.781  60.551
 Approx polarizability: 125.038 -11.835 113.075  -7.738   6.826  97.961

                      1                      2                      3
                      A                      A                      A
 Frequencies --    154.4982               171.6629               186.2014
 Red. masses --      1.9690                 1.1847                 1.1011
 Frc consts  --      0.0277                 0.0206                 0.0225
 IR Inten    --      0.7431                 0.1733                 0.1625

                      4                      5                      6
                      A                      A                      A
 Frequencies --    240.8963               268.8911               308.7174
 Red. masses --      2.5360                 2.3500                 2.8608
 Frc consts  --      0.0867                 0.1001                 0.1606
 IR Inten    --      0.8349                 3.7623                 3.2447

                      7                      8                      9
                      A                      A                      A
 Frequencies --    370.1954               477.6789               530.8091
 Red. masses --      2.5056                 4.2181                 2.9664
 Frc consts  --      0.2023                 0.5671                 0.4925
 IR Inten    --      1.6844                 5.1315                 1.8538

                     10                     11                     12
                      A                      A                      A
 Frequencies --    568.9743               647.9946               680.0479
 Red. masses --      4.0396                 4.9623                 4.3327
 Frc consts  --      0.7705                 1.2277                 1.1806
 IR Inten    --      4.2394                 9.0935                 2.7609

                     13                     14                     15
                      A                      A                      A
 Frequencies --    745.0328               780.5553               821.8757
 Red. masses --      4.1036                 3.6436                 1.6184
 Frc consts  --      1.3421                 1.3080                 0.6441
 IR Inten    --      9.1605                42.3289                41.3181

                     16                     17                     18
                      A                      A                      A
 Frequencies --    860.4694               873.2295               900.3665
 Red. masses --      5.7016                 2.7386                 2.3890
 Frc consts  --      2.4873                 1.2304                 1.1410
 IR Inten    --      4.2088                14.9884                 0.4258

                     19                     20                     21
                      A                      A                      A
 Frequencies --    905.5735               995.6060              1003.0425
 Red. masses --      2.0151                 1.9826                 3.7297
 Frc consts  --      0.9736                 1.1579                 2.2109
 IR Inten    --     14.9397                35.9424                51.6787

                     22                     23                     24
                      A                      A                      A
 Frequencies --   1036.9936              1056.6267              1075.2682
 Red. masses --      1.6130                 2.9371                 1.9046
 Frc consts  --      1.0220                 1.9320                 1.2975
 IR Inten    --      3.8347                 8.6965                 3.3230

                     25                     26                     27
                      A                      A                      A
 Frequencies --   1116.3482              1131.8537              1175.1976
 Red. masses --      1.8818                 2.1123                 1.6421
 Frc consts  --      1.3817                 1.5944                 1.3362
 IR Inten    --     25.5655                 8.5057                21.1135

                     28                     29                     30
                      A                      A                      A
 Frequencies --   1192.4327              1244.0655              1274.2146
 Red. masses --      1.2014                 1.4874                 2.0599
 Frc consts  --      1.0064                 1.3564                 1.9705
 IR Inten    --      0.3378                 1.7521                19.8627

                     31                     32                     33
                      A                      A                      A
 Frequencies --   1327.1347              1335.9600              1359.0325
 Red. masses --      1.7431                 1.7839                 1.6746
 Frc consts  --      1.8089                 1.8759                 1.8223
 IR Inten    --      4.8533                21.0029                16.4369

                     34                     35                     36
                      A                      A                      A
 Frequencies --   1413.5861              1428.0779              1479.1139
 Red. masses --      1.2634                 1.9732                 1.0449
 Frc consts  --      1.4875                 2.3709                 1.3469
 IR Inten    --      1.4552                45.3680                 6.8858

                     37                     38                     39
                      A                      A                      A
 Frequencies --   1480.8904              1485.3401              1486.9865
 Red. masses --      1.0506                 1.0504                 1.0616
 Frc consts  --      1.3575                 1.3654                 1.3830
 IR Inten    --      1.2860                 3.0291                 8.7473

                     40                     41                     42
                      A                      A                      A
 Frequencies --   1515.0225              1697.8680              3017.1501
 Red. masses --      1.0902                 7.3264                 1.0384
 Frc consts  --      1.4743                12.4436                 5.5696
 IR Inten    --      0.4465                15.2398                26.3275

                     43                     44                     45
                      A                      A                      A
 Frequencies --   3029.9836              3057.8319              3062.4728
 Red. masses --      1.0549                 1.0348                 1.0984
 Frc consts  --      5.7059                 5.7008                 6.0694
 IR Inten    --     53.7298                 9.2217                17.3727

                     46                     47                     48
                      A                      A                      A
 Frequencies --   3076.4070              3112.9941              3135.0455
 Red. masses --      1.1111                 1.0986                 1.1018
 Frc consts  --      6.1958                 6.2727                 6.3802
 IR Inten    --     35.0618                15.2683                 9.1570

                     49                     50                     51
                      A                      A                      A
 Frequencies --   3135.7442              3141.6468              3221.3133
 Red. masses --      1.0907                 1.1025                 1.0973
 Frc consts  --      6.3189                 6.4112                 6.7090
 IR Inten    --     30.5665                10.4056                 5.1629

 - Thermochemistry -
 -------------------
 Temperature   298.150 Kelvin.  Pressure   1.00000 Atm.
 Atom     1 has atomic number  6 and mass  12.00000

 Molecular mass:   126.06808 amu.
 Principal axes and moments of inertia in atomic units:
                           1         2         3
     Eigenvalues --   594.897001166.890211362.93688
           X            0.99968  -0.02480   0.00550
           Y            0.02461   0.99919   0.03172
           Z           -0.00628  -0.03157   0.99948
 This molecule is an asymmetric top.
 Rotational symmetry number  1.
 Warning -- assumption of classical behavior for rotation
           may cause significant error
 Rotational temperatures (Kelvin)      0.14559     0.07423     0.06355
 Rotational constants (GHZ):           3.03370     1.54662     1.32416
 Zero-point vibrational energy     417466.3 (Joules/Mol)
                                   99.77685 (Kcal/Mol)
 Warning -- explicit consideration of  10 degrees of freedom as
           vibrations may cause significant error
 Vibrational temperatures:    222.29   246.98   267.90   346.60   386.87
          (Kelvin)            444.17   532.63   687.27   763.71   818.63
                              932.32   978.44  1071.93  1123.04  1182.49
                             1238.02  1256.38  1295.42  1302.92  1432.45
                             1443.15  1492.00  1520.25  1547.07  1606.17
                             1628.48  1690.85  1715.64  1789.93  1833.31
                             1909.45  1922.15  1955.34  2033.83  2054.68
                             2128.11  2130.67  2137.07  2139.44  2179.78
                             2442.85  4341.00  4359.47  4399.53  4406.21
                             4426.26  4478.90  4510.63  4511.63  4520.12
                             4634.75

 Zero-point correction=                           0.159005 (Hartree/Particle)
 Thermal correction to Energy=                    0.167070
 Thermal correction to Enthalpy=                  0.168014
 Thermal correction to Gibbs Free Energy=         0.126907
 Sum of electronic and zero-point Energies=           -423.034392
 Sum of electronic and thermal Energies=              -423.026326
 Sum of electronic and thermal Enthalpies=            -423.025382
 Sum of electronic and thermal Free Energies=         -423.066489

                     E (Thermal)             CV                S
                      KCal/Mol        Cal/Mol-Kelvin    Cal/Mol-Kelvin
 Total                  104.838             31.823             86.519
 Electronic               0.000              0.000              0.000
 Translational            0.889              2.981             40.409
 Rotational               0.889              2.981             28.339
 Vibrational            103.061             25.861             17.771
 Vibration     1          0.620              1.898              2.616
 Vibration     2          0.626              1.877              2.417
 Vibration     3          0.632              1.859              2.265
 Vibration     4          0.658              1.778              1.796
 Vibration     5          0.673              1.730              1.603
 Vibration     6          0.698              1.657              1.369
 Vibration     7          0.742              1.533              1.079
 Vibration     8          0.834              1.300              0.716
 Vibration     9          0.886              1.182              0.585
 Vibration    10          0.925              1.098              0.506

 Optimization completed.
    -- Stationary point found.
 Normal termination of Gaussian 09 at Mon Jan 27 22:42:16 2020.
