 Gaussian 09, Revision D.01,
 Gaussian 09:  ES64L-G09RevD.01 24-Apr-2013

 -----------------------------
 # b3lyp 6-31G(2df,p) opt Freq
 -----------------------------

 -----
 titel
 -----
 Symbolic Z-matrix:
 Charge =  0 Multiplicity = 1

 SCF Done:  E(RB3LYP) =  -423.185599848     A.U. after   13 cycles
 Optimization completed.
    -- Stationary point found.
 Normal termination of Gaussian 09 at Tue Jan 28 08:10:06 2020.

 ----------------------------------------------------------------------
 #N Geom=AllCheck Guess=TCheck SCRF=Check GenChk RB3LYP/6-31G(2df,p) Fr
 eq
 ----------------------------------------------------------------------

 Structure from the checkpoint file:  "/scratch/puck/g09_6d4afab8-b118-4e7f-bb3d-385405303615/Gau-140948.chk"
 -----
 titel
 -----
 Charge =  0 Multiplicity = 1

                         Standard orientation:
 ---------------------------------------------------------------------
 Center     Atomic      Atomic             Coordinates (Angstroms)
 Number     Number       Type             X           Y           Z
 ---------------------------------------------------------------------
      1          6           0        1.208100   -1.540962    0.909561
      2          6           0        1.218312   -0.724853   -0.376660
      3          8           0        1.933286    0.523133   -0.228704
      4          6           0        1.037978    1.600611    0.105894
      5          6           0       -0.320300    0.998811   -0.019977
      6          6           0       -1.511939    1.029739    0.559985
      7          6           0       -2.276037   -0.210214    0.147896
      8          8           0       -1.308469   -1.049298   -0.500098
      9          6           0       -0.182858   -0.258135   -0.832193
     10          1           0        0.720358   -2.505593    0.741815
     11          1           0        2.233617   -1.715043    1.245856
     12          1           0        0.664600   -1.021862    1.704680
     13          1           0        1.746899   -1.272035   -1.163215
     14          1           0        1.242488    1.973272    1.117745
     15          1           0        1.216835    2.423942   -0.598601
     16          1           0       -1.897771    1.757921    1.262109
     17          1           0       -2.693430   -0.748418    1.009193
     18          1           0       -3.110678    0.006886   -0.539348
     19          1           0       -0.160973   -0.059734   -1.916847
 ---------------------------------------------------------------------

 SCF Done:  E(RB3LYP) =  -423.185599848     A.U. after    1 cycles

 The electronic state is 1-A.
 Alpha  occ. eigenvalues --  -19.14113 -19.13471 -10.23711 -10.23651 -10.23059
 Alpha  occ. eigenvalues --  -10.22974 -10.19289 -10.19191 -10.16800  -1.04335
 Alpha  occ. eigenvalues --   -1.02207  -0.80285  -0.77040  -0.73440  -0.68078
 Alpha  occ. eigenvalues --   -0.62080  -0.56828  -0.55880  -0.50482  -0.49062
 Alpha  occ. eigenvalues --   -0.46603  -0.43927  -0.43653  -0.42962  -0.41129
 Alpha  occ. eigenvalues --   -0.39305  -0.37161  -0.36133  -0.35286  -0.32547
 Alpha  occ. eigenvalues --   -0.30714  -0.27530  -0.24834  -0.23858
 Alpha virt. eigenvalues --    0.00434   0.09138   0.10433   0.12209   0.12509
 Alpha virt. eigenvalues --    0.13135   0.14316   0.14941   0.17073   0.17419
 Alpha virt. eigenvalues --    0.17581   0.18472   0.18885   0.19537   0.22164

 Mulliken charges:
               1
     1  C   -0.390954
     2  C    0.093699
     3  O   -0.292172
     4  C   -0.172556
     5  C    0.290509
     6  C   -0.272467
     7  C   -0.111282
     8  O   -0.278026
     9  C    0.047493
    10  H    0.126040
    11  H    0.119043
    12  H    0.114956
    13  H    0.082290
    14  H    0.115246
    15  H    0.116019
    16  H    0.108918
    17  H    0.115161
    18  H    0.105974
    19  H    0.082110
 Sum of Mulliken charges =   0.00000

 Dipole moment (field-independent basis, Debye):
    X=             -1.2062    Y=              1.1397    Z=              0.6542  Tot=              1.7838
 Quadrupole moment (field-independent basis, Debye-Ang):
   XX=            -54.7446   YY=            -52.1758   ZZ=            -51.8912
   XY=             -2.8948   XZ=             -1.5292   YZ=              0.4699

  Exact polarizability:  90.222   0.088  74.249  -6.643   2.244  65.638
 Approx polarizability: 130.949   2.458 105.175 -16.102   4.998 100.820

                      1                      2                      3
                      A                      A                      A
 Frequencies --    100.9944               113.4561               211.8344
 Red. masses --      3.0031                 3.4381                 1.0311
 Frc consts  --      0.0180                 0.0261                 0.0273
 IR Inten    --      1.5802                 4.2341                 0.3021

                      4                      5                      6
                      A                      A                      A
 Frequencies --    234.2376               247.4892               353.2341
 Red. masses --      2.5785                 2.6222                 2.8381
 Frc consts  --      0.0834                 0.0946                 0.2086
 IR Inten    --      0.5060                 6.3088                 0.7141

                      7                      8                      9
                      A                      A                      A
 Frequencies --    401.9293               458.1809               594.8404
 Red. masses --      2.9230                 3.9410                 5.2646
 Frc consts  --      0.2782                 0.4875                 1.0975
 IR Inten    --      5.2455                 0.3708                 0.1182

                     10                     11                     12
                      A                      A                      A
 Frequencies --    662.3611               736.4919               775.7637
 Red. masses --      5.6147                 2.5842                 4.4327
 Frc consts  --      1.4513                 0.8259                 1.5717
 IR Inten    --      4.0275                 2.0342                 5.4306

                     13                     14                     15
                      A                      A                      A
 Frequencies --    805.1461               821.5043               875.0369
 Red. masses --      2.3643                 1.8521                 2.5422
 Frc consts  --      0.9030                 0.7364                 1.1469
 IR Inten    --      3.8645                17.8653                12.0006

                     16                     17                     18
                      A                      A                      A
 Frequencies --    929.8614               934.4022               982.3233
 Red. masses --      2.2370                 2.6582                 3.7297
 Frc consts  --      1.1396                 1.3675                 2.1205
 IR Inten    --      1.5829                 3.9791                59.0336

                     19                     20                     21
                      A                      A                      A
 Frequencies --   1007.3612              1027.3042              1037.5666
 Red. masses --      2.8091                 1.6795                 1.6913
 Frc consts  --      1.6795                 1.0443                 1.0728
 IR Inten    --     13.9148                 4.5972                18.7777

                     22                     23                     24
                      A                      A                      A
 Frequencies --   1059.9629              1085.9098              1124.1613
 Red. masses --      2.1227                 3.0556                 2.8074
 Frc consts  --      1.4051                 2.1229                 2.0903
 IR Inten    --     42.5057                71.4208                18.1755

                     25                     26                     27
                      A                      A                      A
 Frequencies --   1151.6856              1182.6377              1197.5174
 Red. masses --      2.1424                 2.3181                 1.1065
 Frc consts  --      1.6743                 1.9102                 0.9349
 IR Inten    --     19.1310                25.1994                 0.4304

                     28                     29                     30
                      A                      A                      A
 Frequencies --   1203.2343              1264.2767              1285.8039
 Red. masses --      1.2751                 1.4608                 2.0059
 Frc consts  --      1.0877                 1.3757                 1.9539
 IR Inten    --      2.7094                 0.7303                 1.7510

                     31                     32                     33
                      A                      A                      A
 Frequencies --   1324.2873              1349.5069              1367.5551
 Red. masses --      1.3832                 1.3786                 1.3809
 Frc consts  --      1.4292                 1.4793                 1.5216
 IR Inten    --      1.9535                 1.3080                21.7028

                     34                     35                     36
                      A                      A                      A
 Frequencies --   1380.0139              1389.7395              1408.5691
 Red. masses --      1.3192                 1.3394                 1.3357
 Frc consts  --      1.4803                 1.5242                 1.5615
 IR Inten    --      8.1034                 0.9864                16.2345

                     37                     38                     39
                      A                      A                      A
 Frequencies --   1483.5383              1493.0886              1512.2475
 Red. masses --      1.0522                 1.0520                 1.0863
 Frc consts  --      1.3643                 1.3818                 1.4637
 IR Inten    --      3.0599                 2.0550                 0.1305

                     40                     41                     42
                      A                      A                      A
 Frequencies --   1516.8841              1755.1594              2957.7094
 Red. masses --      1.0881                 8.5834                 1.0811
 Frc consts  --      1.4751                15.5792                 5.5723
 IR Inten    --      0.5456                 0.8855                52.4369

                     43                     44                     45
                      A                      A                      A
 Frequencies --   2965.9760              3007.8754              3029.1011
 Red. masses --      1.0713                 1.0579                 1.0910
 Frc consts  --      5.5524                 5.6390                 5.8978
 IR Inten    --     88.0664                61.4046                39.1707

                     46                     47                     48
                      A                      A                      A
 Frequencies --   3037.2210              3044.0596              3060.6808
 Red. masses --      1.1047                 1.0353                 1.0870
 Frc consts  --      6.0042                 5.6521                 5.9997
 IR Inten    --     25.5992                15.0273                34.9947

                     49                     50                     51
                      A                      A                      A
 Frequencies --   3118.5312              3124.2018              3215.0320
 Red. masses --      1.1011                 1.1025                 1.0961
 Frc consts  --      6.3090                 6.3402                 6.6756
 IR Inten    --     29.6287                17.2387                 5.5589

 - Thermochemistry -
 -------------------
 Temperature   298.150 Kelvin.  Pressure   1.00000 Atm.
 Atom     1 has atomic number  6 and mass  12.00000

 Molecular mass:   126.06808 amu.
 Principal axes and moments of inertia in atomic units:
                           1         2         3
     Eigenvalues --   651.452841082.566201423.34527
           X            0.99933  -0.03664   0.00019
           Y            0.03664   0.99912  -0.02028
           Z            0.00055   0.02028   0.99979
 This molecule is an asymmetric top.
 Rotational symmetry number  1.
 Warning -- assumption of classical behavior for rotation
           may cause significant error
 Rotational temperatures (Kelvin)      0.13295     0.08001     0.06085
 Rotational constants (GHZ):           2.77033     1.66710     1.26796
 Zero-point vibrational energy     421130.3 (Joules/Mol)
                                  100.65255 (Kcal/Mol)
 Warning -- explicit consideration of   9 degrees of freedom as
           vibrations may cause significant error
 Vibrational temperatures:    145.31   163.24   304.78   337.02   356.08
          (Kelvin)            508.22   578.29   659.22   855.84   952.99
                             1059.65  1116.15  1158.42  1181.96  1258.98
                             1337.86  1344.39  1413.34  1449.37  1478.06
                             1492.83  1525.05  1562.38  1617.42  1657.02
                             1701.55  1722.96  1731.18  1819.01  1849.98
                             1905.35  1941.64  1967.60  1985.53  1999.52
                             2026.61  2134.48  2148.22  2175.78  2182.46
                             2525.28  4255.48  4267.37  4327.66  4358.20
                             4369.88  4379.72  4403.63  4486.87  4495.02
                             4625.71

 Zero-point correction=                           0.160400 (Hartree/Particle)
 Thermal correction to Energy=                    0.168306
 Thermal correction to Enthalpy=                  0.169250
 Thermal correction to Gibbs Free Energy=         0.127906
 Sum of electronic and zero-point Energies=           -423.025200
 Sum of electronic and thermal Energies=              -423.017294
 Sum of electronic and thermal Enthalpies=            -423.016350
 Sum of electronic and thermal Free Energies=         -423.057693

                     E (Thermal)             CV                S
                      KCal/Mol        Cal/Mol-Kelvin    Cal/Mol-Kelvin
 Total                  105.613             30.253             87.014
 Electronic               0.000              0.000              0.000
 Translational            0.889              2.981             40.409
 Rotational               0.889              2.981             28.397
 Vibrational            103.836             24.292             18.208
 Vibration     1          0.604              1.948              3.435
 Vibration     2          0.607              1.938              3.209
 Vibration     3          0.643              1.823              2.028
 Vibration     4          0.654              1.788              1.846
 Vibration     5          0.661              1.767              1.748
 Vibration     6          0.729              1.569              1.152
 Vibration     7          0.768              1.466              0.956
 Vibration     8          0.816              1.343              0.771
 Vibration     9          0.953              1.043              0.459

 Normal termination of Gaussian 09 at Tue Jan 28 08:55:39 2020.
