 Gaussian 09, Revision D.01,
 Gaussian 09:  ES64L-G09RevD.01 24-Apr-2013

 -----------------------------
 # b3lyp 6-31G(2df,p) opt Freq
 -----------------------------

 -----
 titel
 -----
 Symbolic Z-matrix:
 Charge =  0 Multiplicity = 1

 SCF Done:  E(RB3LYP) =  -423.157490951     A.U. after   14 cycles
 Optimization completed.
    -- Stationary point found.
 Normal termination of Gaussian 09 at Tue Jan 28 09:16:11 2020.

 ----------------------------------------------------------------------
 #N Geom=AllCheck Guess=TCheck SCRF=Check GenChk RB3LYP/6-31G(2df,p) Fr
 eq
 ----------------------------------------------------------------------

 Structure from the checkpoint file:  "/scratch/puck/g09_29d25a4d-26e7-4254-ad14-fc28c4bd3ccc/Gau-82378.chk"
 -----
 titel
 -----
 Charge =  0 Multiplicity = 1

                         Standard orientation:
 ---------------------------------------------------------------------
 Center     Atomic      Atomic             Coordinates (Angstroms)
 Number     Number       Type             X           Y           Z
 ---------------------------------------------------------------------
      1          6           0       -2.882337   -0.723570    0.012741
      2          6           0       -1.449785   -0.772280   -0.539089
      3          6           0       -0.553392    0.265555    0.074227
      4          6           0        0.134679    0.104557    1.398535
      5          6           0        0.986492    0.309621    0.171599
      6          8           0        1.045157    1.688473   -0.185784
      7          6           0       -0.394586    1.718114   -0.385279
      8          6           0        1.965401   -0.646640   -0.356457
      9          8           0        1.941847   -1.833088   -0.113785
     10          1           0       -2.891572   -0.889475    1.094536
     11          1           0       -3.352283    0.246879   -0.179732
     12          1           0       -3.504335   -1.493113   -0.453642
     13          1           0       -1.012322   -1.760577   -0.357076
     14          1           0       -1.468295   -0.638881   -1.628053
     15          1           0        0.130845    0.901103    2.137534
     16          1           0        0.149748   -0.908798    1.786442
     17          1           0       -0.878593    2.496909    0.214986
     18          1           0       -0.631440    1.862948   -1.445626
     19          1           0        2.723382   -0.192215   -1.030490
 ---------------------------------------------------------------------

 SCF Done:  E(RB3LYP) =  -423.157490951     A.U. after    1 cycles

 The electronic state is 1-A.
 Alpha  occ. eigenvalues --  -19.15265 -19.13607 -10.27132 -10.25172 -10.24762
 Alpha  occ. eigenvalues --  -10.22196 -10.20442 -10.19815 -10.18543  -1.06854
 Alpha  occ. eigenvalues --   -1.04060  -0.85723  -0.77343  -0.72381  -0.66496
 Alpha  occ. eigenvalues --   -0.63876  -0.58977  -0.52779  -0.50620  -0.49153
 Alpha  occ. eigenvalues --   -0.47513  -0.45281  -0.43691  -0.42378  -0.40422
 Alpha  occ. eigenvalues --   -0.39990  -0.39058  -0.38470  -0.36085  -0.34203
 Alpha  occ. eigenvalues --   -0.32689  -0.29134  -0.25227  -0.24364
 Alpha virt. eigenvalues --   -0.03442   0.06935   0.09226   0.11018   0.12039
 Alpha virt. eigenvalues --    0.12824   0.13519   0.14143   0.14607   0.15308
 Alpha virt. eigenvalues --    0.17259   0.18001   0.18648   0.20399   0.20481

 Mulliken charges:
               1
     1  C   -0.375381
     2  C   -0.293624
     3  C    0.230458
     4  C   -0.370646
     5  C    0.297456
     6  O   -0.323829
     7  C   -0.135553
     8  C    0.070971
     9  O   -0.278790
    10  H    0.124538
    11  H    0.117581
    12  H    0.119790
    13  H    0.129833
    14  H    0.103611
    15  H    0.122712
    16  H    0.145080
    17  H    0.112289
    18  H    0.114119
    19  H    0.089388
 Sum of Mulliken charges =   0.00000

 Dipole moment (field-independent basis, Debye):
    X=             -2.4904    Y=              1.2627    Z=             -0.0820  Tot=              2.7934
 Quadrupole moment (field-independent basis, Debye-Ang):
   XX=            -54.7818   YY=            -59.2085   ZZ=            -50.9153
   XY=              1.6310   XZ=              0.2541   YZ=             -0.1914

  Exact polarizability:  87.471  -4.900  77.833  -2.921  -1.521  68.138
 Approx polarizability: 120.482  -9.732 121.908  -4.258  -4.325 102.741

                      1                      2                      3
                      A                      A                      A
 Frequencies --     64.1435               100.2416               149.2727
 Red. masses --      2.8716                 3.5478                 2.8483
 Frc consts  --      0.0070                 0.0210                 0.0374
 IR Inten    --      1.1683                 2.6176                 3.6792

                      4                      5                      6
                      A                      A                      A
 Frequencies --    203.4234               218.3344               223.2050
 Red. masses --      2.2350                 1.9326                 1.6577
 Frc consts  --      0.0545                 0.0543                 0.0487
 IR Inten    --      6.5647                 3.9188                 2.9807

                      7                      8                      9
                      A                      A                      A
 Frequencies --    327.6286               352.8573               425.4197
 Red. masses --      3.1060                 2.0538                 3.7391
 Frc consts  --      0.1964                 0.1507                 0.3987
 IR Inten    --      7.5927                 0.6974                 2.2649

                     10                     11                     12
                      A                      A                      A
 Frequencies --    441.1052               545.8826               656.9842
 Red. masses --      2.6401                 4.0125                 3.1996
 Frc consts  --      0.3027                 0.7045                 0.8137
 IR Inten    --      1.3329                 4.6100                 2.7628

                     13                     14                     15
                      A                      A                      A
 Frequencies --    756.0476               767.0165               788.9171
 Red. masses --      3.3207                 3.7210                 1.2729
 Frc consts  --      1.1184                 1.2898                 0.4668
 IR Inten    --      3.9932                 7.8932                 4.2877

                     16                     17                     18
                      A                      A                      A
 Frequencies --    819.7087               924.2955               971.1309
 Red. masses --      4.1351                 1.5700                 1.6793
 Frc consts  --      1.6370                 0.7902                 0.9331
 IR Inten    --     31.9972                19.6689                19.0103

                     19                     20                     21
                      A                      A                      A
 Frequencies --    981.6900               987.0959              1030.0704
 Red. masses --      2.3491                 3.5902                 1.8576
 Frc consts  --      1.3338                 2.0610                 1.1613
 IR Inten    --     12.9269                15.0226                54.6523

                     22                     23                     24
                      A                      A                      A
 Frequencies --   1045.4206              1053.9357              1072.9980
 Red. masses --      1.7963                 1.6539                 1.4017
 Frc consts  --      1.1567                 1.0824                 0.9508
 IR Inten    --      0.6307                 0.6198                 1.6128

                     25                     26                     27
                      A                      A                      A
 Frequencies --   1093.4430              1152.7354              1158.4010
 Red. masses --      2.0210                 2.6846                 1.2529
 Frc consts  --      1.4236                 2.1018                 0.9906
 IR Inten    --      6.1827                71.3742                17.6074

                     28                     29                     30
                      A                      A                      A
 Frequencies --   1225.3579              1267.0907              1312.2900
 Red. masses --      2.4005                 1.9470                 1.4237
 Frc consts  --      2.1236                 1.8417                 1.4445
 IR Inten    --     14.0187                15.8754                 9.5913

                     31                     32                     33
                      A                      A                      A
 Frequencies --   1347.9910              1360.8903              1401.1779
 Red. masses --      1.4997                 1.6245                 1.5996
 Frc consts  --      1.6056                 1.7726                 1.8504
 IR Inten    --      2.3125                14.4925                 4.7170

                     34                     35                     36
                      A                      A                      A
 Frequencies --   1411.5324              1418.7117              1475.0353
 Red. masses --      1.2927                 1.5573                 1.5518
 Frc consts  --      1.5175                 1.8467                 1.9893
 IR Inten    --      2.6739                28.0062                14.9014

                     37                     38                     39
                      A                      A                      A
 Frequencies --   1485.8167              1498.5389              1507.0549
 Red. masses --      1.0889                 1.0406                 1.1072
 Frc consts  --      1.4164                 1.3768                 1.4816
 IR Inten    --      5.7392                 5.1930                 3.2274

                     40                     41                     42
                      A                      A                      A
 Frequencies --   1517.4485              1788.6580              2903.6322
 Red. masses --      1.1289                 9.9175                 1.0834
 Frc consts  --      1.5316                18.6943                 5.3818
 IR Inten    --      4.2491               157.6003               108.9066

                     43                     44                     45
                      A                      A                      A
 Frequencies --   3024.5660              3028.4663              3035.7401
 Red. masses --      1.0565                 1.0599                 1.0356
 Frc consts  --      5.6946                 5.7273                 5.6229
 IR Inten    --     39.6590                32.0302                28.1780

                     46                     47                     48
                      A                      A                      A
 Frequencies --   3067.4180              3077.6775              3105.0192
 Red. masses --      1.0993                 1.1115                 1.1016
 Frc consts  --      6.0939                 6.2029                 6.2576
 IR Inten    --      3.8564                31.1192                31.8933

                     49                     50                     51
                      A                      A                      A
 Frequencies --   3112.8511              3118.9248              3221.0923
 Red. masses --      1.1020                 1.0547                 1.1159
 Frc consts  --      6.2917                 6.0451                 6.8218
 IR Inten    --     28.7918                 8.1475                 2.3904

 - Thermochemistry -
 -------------------
 Temperature   298.150 Kelvin.  Pressure   1.00000 Atm.
 Atom     1 has atomic number  6 and mass  12.00000

 Molecular mass:   126.06808 amu.
 Principal axes and moments of inertia in atomic units:
                           1         2         3
     Eigenvalues --   785.477511273.458991725.14957
           X            0.99911   0.04221   0.00081
           Y           -0.04221   0.99911  -0.00253
           Z           -0.00092   0.00250   1.00000
 This molecule is an asymmetric top.
 Rotational symmetry number  1.
 Warning -- assumption of classical behavior for rotation
           may cause significant error
 Rotational temperatures (Kelvin)      0.11027     0.06801     0.05021
 Rotational constants (GHZ):           2.29764     1.41720     1.04614
 Zero-point vibrational energy     412857.5 (Joules/Mol)
                                   98.67531 (Kcal/Mol)
 Warning -- explicit consideration of  11 degrees of freedom as
           vibrations may cause significant error
 Vibrational temperatures:     92.29   144.23   214.77   292.68   314.13
          (Kelvin)            321.14   471.38   507.68   612.08   634.65
                              785.40   945.25  1087.78  1103.56  1135.07
                             1179.38  1329.85  1397.24  1412.43  1420.21
                             1482.04  1504.13  1516.38  1543.80  1573.22
                             1658.53  1666.68  1763.01  1823.06  1888.09
                             1939.46  1958.02  2015.98  2030.88  2041.21
                             2122.24  2137.76  2156.06  2168.31  2183.27
                             2573.48  4177.67  4351.67  4357.28  4367.75
                             4413.32  4428.09  4467.42  4478.69  4487.43
                             4634.43

 Zero-point correction=                           0.157249 (Hartree/Particle)
 Thermal correction to Energy=                    0.166300
 Thermal correction to Enthalpy=                  0.167244
 Thermal correction to Gibbs Free Energy=         0.123110
 Sum of electronic and zero-point Energies=           -423.000242
 Sum of electronic and thermal Energies=              -422.991191
 Sum of electronic and thermal Enthalpies=            -422.990247
 Sum of electronic and thermal Free Energies=         -423.034381

                     E (Thermal)             CV                S
                      KCal/Mol        Cal/Mol-Kelvin    Cal/Mol-Kelvin
 Total                  104.355             33.189             92.888
 Electronic               0.000              0.000              0.000
 Translational            0.889              2.981             40.409
 Rotational               0.889              2.981             28.936
 Vibrational            102.577             27.228             23.544
 Vibration     1          0.597              1.971              4.325
 Vibration     2          0.604              1.949              3.450
 Vibration     3          0.618              1.903              2.681
 Vibration     4          0.639              1.835              2.102
 Vibration     5          0.646              1.813              1.973
 Vibration     6          0.649              1.806              1.933
 Vibration     7          0.711              1.620              1.272
 Vibration     8          0.729              1.569              1.153
 Vibration     9          0.787              1.415              0.874
 Vibration    10          0.801              1.381              0.823
 Vibration    11          0.901              1.149              0.553

 Normal termination of Gaussian 09 at Tue Jan 28 10:07:34 2020.
