 Gaussian 09, Revision D.01,
 Gaussian 09:  ES64L-G09RevD.01 24-Apr-2013

 -----------------------------
 # b3lyp 6-31G(2df,p) opt Freq
 -----------------------------

 -----
 titel
 -----
 Symbolic Z-matrix:
 Charge =  0 Multiplicity = 1

 SCF Done:  E(RB3LYP) =  -423.225380577     A.U. after   14 cycles
 Optimization completed.
    -- Stationary point found.
 Normal termination of Gaussian 09 at Tue Jan 28 08:54:02 2020.

 ----------------------------------------------------------------------
 #N Geom=AllCheck Guess=TCheck SCRF=Check GenChk RB3LYP/6-31G(2df,p) Fr
 eq
 ----------------------------------------------------------------------

 Structure from the checkpoint file:  "/scratch/puck/g09_1f8ec8ba-bd76-465f-977f-7620a1c27d58/Gau-129631.chk"
 -----
 titel
 -----
 Charge =  0 Multiplicity = 1

                         Standard orientation:
 ---------------------------------------------------------------------
 Center     Atomic      Atomic             Coordinates (Angstroms)
 Number     Number       Type             X           Y           Z
 ---------------------------------------------------------------------
      1          6           0        2.437292    0.049109   -0.770763
      2          6           0        1.177567   -0.819574   -0.769149
      3          6           0        0.136442   -0.437101    0.311417
      4          8           0        0.714771   -0.462513    1.603295
      5          6           0       -1.107142   -1.348134    0.220640
      6          6           0       -2.146873   -0.485267   -0.450392
      7          6           0       -1.775928    0.797635   -0.569686
      8          6           0       -0.444254    0.969116    0.036289
      9          8           0        0.120160    1.994307    0.356275
     10          1           0        2.208628    1.100172   -0.964369
     11          1           0        2.946435   -0.013801    0.195102
     12          1           0        3.135364   -0.295456   -1.539427
     13          1           0        0.691460   -0.791986   -1.752847
     14          1           0        1.454250   -1.864332   -0.582424
     15          1           0        1.036719    0.435978    1.763979
     16          1           0       -0.925996   -2.277067   -0.330878
     17          1           0       -1.428164   -1.631001    1.229823
     18          1           0       -3.101586   -0.887290   -0.773933
     19          1           0       -2.359192    1.615726   -0.971734
 ---------------------------------------------------------------------

 SCF Done:  E(RB3LYP) =  -423.225380577     A.U. after    1 cycles

 The electronic state is 1-A.
 Alpha  occ. eigenvalues --  -19.13599 -19.13506 -10.26552 -10.24120 -10.22360
 Alpha  occ. eigenvalues --  -10.20021 -10.19930 -10.18603 -10.16981  -1.04924
 Alpha  occ. eigenvalues --   -1.01446  -0.85664  -0.77262  -0.71728  -0.67885
 Alpha  occ. eigenvalues --   -0.61484  -0.57132  -0.55215  -0.49440  -0.48248
 Alpha  occ. eigenvalues --   -0.45834  -0.44243  -0.42928  -0.41794  -0.39915
 Alpha  occ. eigenvalues --   -0.38695  -0.38623  -0.36012  -0.35327  -0.34503
 Alpha  occ. eigenvalues --   -0.33890  -0.28115  -0.27430  -0.24271
 Alpha virt. eigenvalues --   -0.05488   0.04811   0.08948   0.10275   0.12709
 Alpha virt. eigenvalues --    0.13870   0.14578   0.14844   0.15872   0.17004
 Alpha virt. eigenvalues --    0.17968   0.19184   0.19522   0.20750   0.23460

 Mulliken charges:
               1
     1  C   -0.403632
     2  C   -0.209987
     3  C    0.308471
     4  O   -0.484197
     5  C   -0.319617
     6  C   -0.049852
     7  C   -0.169726
     8  C    0.333770
     9  O   -0.362555
    10  H    0.136116
    11  H    0.123376
    12  H    0.110832
    13  H    0.096392
    14  H    0.105604
    15  H    0.290090
    16  H    0.114205
    17  H    0.139844
    18  H    0.119935
    19  H    0.120931
 Sum of Mulliken charges =   0.00000

 Dipole moment (field-independent basis, Debye):
    X=             -1.7974    Y=             -1.7142    Z=             -1.5449  Tot=              2.9250
 Quadrupole moment (field-independent basis, Debye-Ang):
   XX=            -48.3102   YY=            -56.9149   ZZ=            -54.3176
   XY=              0.9278   XZ=              0.7560   YZ=              0.9363

  Exact polarizability:  85.858   6.214  82.968   4.961  -0.128  61.900
 Approx polarizability: 116.132  19.641 144.268  10.700   1.856  95.956

                      1                      2                      3
                      A                      A                      A
 Frequencies --     75.3082               120.9225               182.5042
 Red. masses --      3.4636                 2.2157                 2.4117
 Frc consts  --      0.0116                 0.0191                 0.0473
 IR Inten    --      1.5112                 0.0949                 0.8965

                      4                      5                      6
                      A                      A                      A
 Frequencies --    234.5749               254.7324               301.2329
 Red. masses --      1.9146                 2.1194                 4.6342
 Frc consts  --      0.0621                 0.0810                 0.2478
 IR Inten    --      4.1146                 4.7374                14.0737

                      7                      8                      9
                      A                      A                      A
 Frequencies --    319.2982               377.9356               420.3587
 Red. masses --      2.8588                 2.0522                 2.4593
 Frc consts  --      0.1717                 0.1727                 0.2560
 IR Inten    --      1.6324                10.0892                39.6668

                     10                     11                     12
                      A                      A                      A
 Frequencies --    459.8896               526.5652               624.7339
 Red. masses --      1.3622                 3.2805                 4.2595
 Frc consts  --      0.1697                 0.5359                 0.9795
 IR Inten    --     36.8836                12.7988                 5.5388

                     13                     14                     15
                      A                      A                      A
 Frequencies --    677.4857               712.4872               753.5428
 Red. masses --      2.5905                 2.7357                 3.7401
 Frc consts  --      0.7005                 0.8182                 1.2513
 IR Inten    --      4.9880                 2.4037                13.5398

                     16                     17                     18
                      A                      A                      A
 Frequencies --    788.7821               840.9111               893.9353
 Red. masses --      1.3715                 2.3222                 1.9846
 Frc consts  --      0.5028                 0.9675                 0.9344
 IR Inten    --      6.0764                22.9865                13.1608

                     19                     20                     21
                      A                      A                      A
 Frequencies --    949.2940               973.7564               992.8506
 Red. masses --      2.1288                 2.1291                 1.5352
 Frc consts  --      1.1303                 1.1895                 0.8917
 IR Inten    --      6.2244                 8.2770                 1.9844

                     22                     23                     24
                      A                      A                      A
 Frequencies --   1007.0014              1046.6764              1093.4666
 Red. masses --      1.5616                 2.4014                 2.1044
 Frc consts  --      0.9330                 1.5500                 1.4825
 IR Inten    --      2.9759                30.8605                 3.4756

                     25                     26                     27
                      A                      A                      A
 Frequencies --   1104.8667              1125.6892              1144.9741
 Red. masses --      1.4428                 1.7022                 1.9388
 Frc consts  --      1.0377                 1.2708                 1.4975
 IR Inten    --      4.4501                22.0410                59.1246

                     28                     29                     30
                      A                      A                      A
 Frequencies --   1208.1393              1230.2786              1294.4155
 Red. masses --      2.1119                 1.9847                 1.2983
 Frc consts  --      1.8162                 1.7700                 1.2817
 IR Inten    --     41.7015                21.5231                 1.1415

                     31                     32                     33
                      A                      A                      A
 Frequencies --   1342.5104              1346.8430              1366.7854
 Red. masses --      1.5449                 1.5938                 1.8118
 Frc consts  --      1.6405                 1.7034                 1.9942
 IR Inten    --     11.7583                10.7275                 9.0776

                     34                     35                     36
                      A                      A                      A
 Frequencies --   1402.2032              1415.5476              1467.8470
 Red. masses --      1.3814                 1.3453                 1.1001
 Frc consts  --      1.6003                 1.5883                 1.3965
 IR Inten    --     31.9068                24.6513                 8.2125

                     37                     38                     39
                      A                      A                      A
 Frequencies --   1476.9080              1496.6687              1512.1285
 Red. masses --      1.0853                 1.0418                 1.0504
 Frc consts  --      1.3948                 1.3749                 1.4151
 IR Inten    --      2.5395                 6.3121                 3.4700

                     40                     41                     42
                      A                      A                      A
 Frequencies --   1639.6418              1799.2222              3021.4116
 Red. masses --      5.8366                12.1591                 1.0591
 Frc consts  --      9.2450                23.1911                 5.6966
 IR Inten    --     19.8577               222.2199                19.2122

                     43                     44                     45
                      A                      A                      A
 Frequencies --   3041.8202              3047.2846              3060.6546
 Red. masses --      1.0595                 1.0355                 1.1026
 Frc consts  --      5.7760                 5.6653                 6.0858
 IR Inten    --     14.0240                21.2475                17.4479

                     46                     47                     48
                      A                      A                      A
 Frequencies --   3078.0346              3113.1073              3127.5387
 Red. masses --      1.1028                 1.1010                 1.1019
 Frc consts  --      6.1560                 6.2866                 6.3502
 IR Inten    --     10.4293                23.3115                19.9544

                     49                     50                     51
                      A                      A                      A
 Frequencies --   3187.9489              3228.4610              3739.4344
 Red. masses --      1.0894                 1.1014                 1.0654
 Frc consts  --      6.5231                 6.7635                 8.7780
 IR Inten    --      8.1469                 5.7940                32.1046

 - Thermochemistry -
 -------------------
 Temperature   298.150 Kelvin.  Pressure   1.00000 Atm.
 Atom     1 has atomic number  6 and mass  12.00000

 Molecular mass:   126.06808 amu.
 Principal axes and moments of inertia in atomic units:
                           1         2         3
     Eigenvalues --   771.877311180.900161392.74195
           X            0.99967   0.01677  -0.01970
           Y           -0.01657   0.99981   0.00995
           Z            0.01986  -0.00962   0.99976
 This molecule is an asymmetric top.
 Rotational symmetry number  1.
 Warning -- assumption of classical behavior for rotation
           may cause significant error
 Rotational temperatures (Kelvin)      0.11221     0.07335     0.06219
 Rotational constants (GHZ):           2.33812     1.52828     1.29582
 Zero-point vibrational energy     416591.2 (Joules/Mol)
                                   99.56769 (Kcal/Mol)
 Warning -- explicit consideration of  11 degrees of freedom as
           vibrations may cause significant error
 Vibrational temperatures:    108.35   173.98   262.58   337.50   366.50
          (Kelvin)            433.41   459.40   543.76   604.80   661.68
                              757.61   898.85   974.75  1025.11  1084.18
                             1134.88  1209.88  1286.17  1365.82  1401.02
                             1428.49  1448.85  1505.93  1573.25  1589.65
                             1619.61  1647.36  1738.24  1770.09  1862.37
                             1931.57  1937.80  1966.50  2017.46  2036.65
                             2111.90  2124.94  2153.37  2175.61  2359.08
                             2588.68  4347.13  4376.50  4384.36  4403.59
                             4428.60  4479.06  4499.83  4586.74  4645.03
                             5380.21

 Zero-point correction=                           0.158671 (Hartree/Particle)
 Thermal correction to Energy=                    0.167523
 Thermal correction to Enthalpy=                  0.168467
 Thermal correction to Gibbs Free Energy=         0.125324
 Sum of electronic and zero-point Energies=           -423.066709
 Sum of electronic and thermal Energies=              -423.057858
 Sum of electronic and thermal Enthalpies=            -423.056914
 Sum of electronic and thermal Free Energies=         -423.100057

                     E (Thermal)             CV                S
                      KCal/Mol        Cal/Mol-Kelvin    Cal/Mol-Kelvin
 Total                  105.122             33.689             90.802
 Electronic               0.000              0.000              0.000
 Translational            0.889              2.981             40.409
 Rotational               0.889              2.981             28.631
 Vibrational            103.345             27.728             21.763
 Vibration     1          0.599              1.965              4.010
 Vibration     2          0.609              1.932              3.086
 Vibration     3          0.630              1.864              2.303
 Vibration     4          0.654              1.788              1.844
 Vibration     5          0.665              1.755              1.698
 Vibration     6          0.693              1.671              1.410
 Vibration     7          0.705              1.637              1.314
 Vibration     8          0.748              1.517              1.047
 Vibration     9          0.783              1.426              0.891
 Vibration    10          0.818              1.339              0.766
 Vibration    11          0.882              1.191              0.595

 Optimization completed.
    -- Stationary point found.
 Normal termination of Gaussian 09 at Tue Jan 28 09:38:19 2020.
