 Gaussian 09, Revision D.01,
 Gaussian 09:  ES64L-G09RevD.01 24-Apr-2013

 -----------------------------
 # b3lyp 6-31G(2df,p) opt Freq
 -----------------------------

 -----
 titel
 -----
 Symbolic Z-matrix:
 Charge =  0 Multiplicity = 1

 SCF Done:  E(RB3LYP) =  -423.182989173     A.U. after   14 cycles
 Optimization completed.
    -- Stationary point found.
 Normal termination of Gaussian 09 at Mon Jan 27 14:10:43 2020.

 ----------------------------------------------------------------------
 #N Geom=AllCheck Guess=TCheck SCRF=Check GenChk RB3LYP/6-31G(2df,p) Fr
 eq
 ----------------------------------------------------------------------

 Structure from the checkpoint file:  "/scratch/puck/g09_14e85075-ee88-482c-b966-e0b94ae7b2b8/Gau-171987.chk"
 -----
 titel
 -----
 Charge =  0 Multiplicity = 1

                         Standard orientation:
 ---------------------------------------------------------------------
 Center     Atomic      Atomic             Coordinates (Angstroms)
 Number     Number       Type             X           Y           Z
 ---------------------------------------------------------------------
      1          6           0        2.682908    0.790921    0.017451
      2          6           0        1.587037   -0.258888    0.089229
      3          8           0        1.791984   -1.413561   -0.205350
      4          6           0        0.227254    0.203113    0.601219
      5          6           0       -0.467312    1.355020   -0.210926
      6          6           0       -1.759668    0.583017   -0.557583
      7          6           0       -2.176450   -0.081740    0.771730
      8          6           0       -0.885205   -0.855240    0.426553
      9          8           0       -1.225750   -0.704876   -0.988333
     10          1           0        3.626567    0.318518   -0.257669
     11          1           0        2.432434    1.559253   -0.721782
     12          1           0        2.788647    1.302571    0.980820
     13          1           0        0.358511    0.493009    1.651623
     14          1           0       -0.639963    2.260176    0.376664
     15          1           0        0.075877    1.624421   -1.119439
     16          1           0       -2.463779    1.034017   -1.256660
     17          1           0       -2.220764    0.518342    1.685037
     18          1           0       -3.064727   -0.702632    0.654578
     19          1           0       -0.674059   -1.877398    0.730258
 ---------------------------------------------------------------------

 SCF Done:  E(RB3LYP) =  -423.182989173     A.U. after    1 cycles

 The electronic state is 1-A.
 Alpha  occ. eigenvalues --  -19.13314 -19.12645 -10.26818 -10.24173 -10.23758
 Alpha  occ. eigenvalues --  -10.19903 -10.19617 -10.19109 -10.18843  -1.05141
 Alpha  occ. eigenvalues --   -1.03564  -0.80861  -0.75015  -0.71490  -0.71324
 Alpha  occ. eigenvalues --   -0.60317  -0.55820  -0.53220  -0.51099  -0.47858
 Alpha  occ. eigenvalues --   -0.46715  -0.44135  -0.43272  -0.42596  -0.41108
 Alpha  occ. eigenvalues --   -0.38024  -0.37037  -0.36420  -0.35037  -0.33974
 Alpha  occ. eigenvalues --   -0.32420  -0.32001  -0.25004  -0.24125
 Alpha virt. eigenvalues --   -0.01069   0.07920   0.09827   0.10789   0.11382
 Alpha virt. eigenvalues --    0.13047   0.13592   0.14843   0.16131   0.16586
 Alpha virt. eigenvalues --    0.17510   0.17813   0.19450   0.20161   0.20898

 Mulliken charges:
               1
     1  C   -0.477774
     2  C    0.375819
     3  O   -0.293512
     4  C   -0.100727
     5  C   -0.252634
     6  C    0.088622
     7  C   -0.243182
     8  C    0.082341
     9  O   -0.295333
    10  H    0.143139
    11  H    0.143542
    12  H    0.132643
    13  H    0.092626
    14  H    0.102975
    15  H    0.114359
    16  H    0.082020
    17  H    0.091591
    18  H    0.115449
    19  H    0.098036
 Sum of Mulliken charges =   0.00000

 Dipole moment (field-independent basis, Debye):
    X=             -0.7133    Y=              3.2921    Z=              1.9467  Tot=              3.8906
 Quadrupole moment (field-independent basis, Debye-Ang):
   XX=            -51.5218   YY=            -55.4022   ZZ=            -52.9789
   XY=              3.2196   XZ=             -0.3042   YZ=             -2.9343

  Exact polarizability:  85.769   0.418  74.664  -1.067  -0.442  63.433
 Approx polarizability: 106.957  -3.963 121.176  -0.185   4.526 102.597

                      1                      2                      3
                      A                      A                      A
 Frequencies --     20.2420               105.8956               127.4244
 Red. masses --      2.2562                 1.3280                 4.9390
 Frc consts  --      0.0005                 0.0088                 0.0472
 IR Inten    --      1.4524                 0.0711                 0.0580

                      4                      5                      6
                      A                      A                      A
 Frequencies --    191.5265               326.0747               364.2944
 Red. masses --      3.2989                 3.1325                 2.6115
 Frc consts  --      0.0713                 0.1962                 0.2042
 IR Inten    --      2.7732                 1.0623                 1.4199

                      7                      8                      9
                      A                      A                      A
 Frequencies --    413.3286               522.6331               559.8190
 Red. masses --      2.4379                 3.1481                 2.7822
 Frc consts  --      0.2454                 0.5066                 0.5137
 IR Inten    --      2.8788                13.7776                12.9603

                     10                     11                     12
                      A                      A                      A
 Frequencies --    613.0647               718.4421               778.6837
 Red. masses --      3.5531                 3.3348                 2.7917
 Frc consts  --      0.7868                 1.0142                 0.9973
 IR Inten    --      2.7500                 6.3222                 0.5229

                     13                     14                     15
                      A                      A                      A
 Frequencies --    831.4065               846.8129               872.2203
 Red. masses --      2.9647                 3.0582                 2.3739
 Frc consts  --      1.2074                 1.2921                 1.0640
 IR Inten    --      2.7930                11.9054                 4.1821

                     16                     17                     18
                      A                      A                      A
 Frequencies --    878.1106               936.7735               944.6763
 Red. masses --      3.0142                 3.0186                 2.3704
 Frc consts  --      1.3693                 1.5607                 1.2464
 IR Inten    --     26.5272                10.4438                 5.2736

                     19                     20                     21
                      A                      A                      A
 Frequencies --    958.2889               978.8126               992.5682
 Red. masses --      1.5571                 2.2665                 1.8584
 Frc consts  --      0.8425                 1.2794                 1.0787
 IR Inten    --      4.1405                11.4611                 8.1689

                     22                     23                     24
                      A                      A                      A
 Frequencies --   1027.2437              1047.3580              1094.5041
 Red. masses --      1.5477                 2.3756                 1.3220
 Frc consts  --      0.9622                 1.5354                 0.9331
 IR Inten    --      9.0873                 8.0883                 5.4958

                     25                     26                     27
                      A                      A                      A
 Frequencies --   1099.6806              1148.2129              1182.3770
 Red. masses --      1.8732                 1.3279                 1.7517
 Frc consts  --      1.3346                 1.0315                 1.4429
 IR Inten    --      1.3747                 0.0789                30.3613

                     28                     29                     30
                      A                      A                      A
 Frequencies --   1203.7570              1227.6818              1233.8137
 Red. masses --      1.9189                 1.4877                 1.4460
 Frc consts  --      1.6382                 1.3211                 1.2970
 IR Inten    --     49.7677                 9.4522                 4.0277

                     31                     32                     33
                      A                      A                      A
 Frequencies --   1261.0398              1283.5075              1309.9923
 Red. masses --      1.3149                 1.5846                 1.7088
 Frc consts  --      1.2320                 1.5380                 1.7278
 IR Inten    --      1.0743                 8.9003                10.1543

                     34                     35                     36
                      A                      A                      A
 Frequencies --   1325.9474              1353.9860              1383.0261
 Red. masses --      1.4614                 1.7617                 1.3946
 Frc consts  --      1.5138                 1.9029                 1.5717
 IR Inten    --      0.3480                14.3566                45.5257

                     37                     38                     39
                      A                      A                      A
 Frequencies --   1462.1857              1476.1743              1482.1215
 Red. masses --      1.0534                 1.0503                 1.1200
 Frc consts  --      1.3270                 1.3484                 1.4496
 IR Inten    --      8.6579                 8.7719                 2.9988

                     40                     41                     42
                      A                      A                      A
 Frequencies --   1495.7397              1808.8908              3028.4556
 Red. masses --      1.1187                11.1597                 1.0797
 Frc consts  --      1.4746                21.5144                 5.8343
 IR Inten    --      0.9802               138.7215                12.0707

                     43                     44                     45
                      A                      A                      A
 Frequencies --   3038.8785              3061.4424              3068.1122
 Red. masses --      1.0394                 1.0610                 1.0590
 Frc consts  --      5.6556                 5.8589                 5.8732
 IR Inten    --      4.3282                33.3374                25.3206

                     46                     47                     48
                      A                      A                      A
 Frequencies --   3098.9697              3118.1027              3123.9603
 Red. masses --      1.0978                 1.1065                 1.0917
 Frc consts  --      6.2119                 6.3386                 6.2771
 IR Inten    --      7.0997                22.2571                44.0594

                     49                     50                     51
                      A                      A                      A
 Frequencies --   3144.5621              3152.1542              3163.0687
 Red. masses --      1.1050                 1.1019                 1.0919
 Frc consts  --      6.4377                 6.4508                 6.4366
 IR Inten    --     22.3747                10.0238                17.5391

 - Thermochemistry -
 -------------------
 Temperature   298.150 Kelvin.  Pressure   1.00000 Atm.
 Atom     1 has atomic number  6 and mass  12.00000

 Molecular mass:   126.06808 amu.
 Principal axes and moments of inertia in atomic units:
                           1         2         3
     Eigenvalues --   522.253921402.635621601.38858
           X            0.99955   0.02833  -0.01022
           Y           -0.02872   0.99877  -0.04032
           Z            0.00906   0.04060   0.99913
 This molecule is an asymmetric top.
 Rotational symmetry number  1.
 Warning -- assumption of classical behavior for rotation
           may cause significant error
 Rotational temperatures (Kelvin)      0.16585     0.06175     0.05409
 Rotational constants (GHZ):           3.45568     1.28668     1.12699
 Zero-point vibrational energy     418011.4 (Joules/Mol)
                                   99.90712 (Kcal/Mol)
 Warning -- explicit consideration of  10 degrees of freedom as
           vibrations may cause significant error
 Vibrational temperatures:     29.12   152.36   183.33   275.56   469.15
          (Kelvin)            524.14   594.69   751.95   805.45   882.06
                             1033.68  1120.35  1196.21  1218.37  1254.93
                             1263.40  1347.81  1359.18  1378.76  1408.29
                             1428.08  1477.97  1506.91  1574.75  1582.19
                             1652.02  1701.17  1731.94  1766.36  1775.18
                             1814.35  1846.68  1884.78  1907.74  1948.08
                             1989.86  2103.76  2123.88  2132.44  2152.03
                             2602.59  4357.27  4372.26  4404.73  4414.32
                             4458.72  4486.25  4494.68  4524.32  4535.24
                             4550.94

 Zero-point correction=                           0.159212 (Hartree/Particle)
 Thermal correction to Energy=                    0.167443
 Thermal correction to Enthalpy=                  0.168387
 Thermal correction to Gibbs Free Energy=         0.124964
 Sum of electronic and zero-point Energies=           -423.023777
 Sum of electronic and thermal Energies=              -423.015547
 Sum of electronic and thermal Enthalpies=            -423.014602
 Sum of electronic and thermal Free Energies=         -423.058025

                     E (Thermal)             CV                S
                      KCal/Mol        Cal/Mol-Kelvin    Cal/Mol-Kelvin
 Total                  105.072             30.896             91.390
 Electronic               0.000              0.000              0.000
 Translational            0.889              2.981             40.409
 Rotational               0.889              2.981             28.552
 Vibrational            103.294             24.934             22.429
 Vibration     1          0.593              1.986              6.610
 Vibration     2          0.605              1.945              3.343
 Vibration     3          0.611              1.926              2.985
 Vibration     4          0.634              1.852              2.213
 Vibration     5          0.710              1.623              1.279
 Vibration     6          0.738              1.546              1.104
 Vibration     7          0.777              1.441              0.915
 Vibration     8          0.878              1.200              0.604
 Vibration     9          0.915              1.118              0.524
 Vibration    10          0.972              1.004              0.428

 Optimization completed.
    -- Stationary point found.
 Normal termination of Gaussian 09 at Mon Jan 27 14:53:23 2020.
