 Gaussian 09, Revision D.01,
 Gaussian 09:  ES64L-G09RevD.01 24-Apr-2013

 -----------------------------
 # b3lyp 6-31G(2df,p) opt Freq
 -----------------------------

 -----
 titel
 -----
 Symbolic Z-matrix:
 Charge =  0 Multiplicity = 1

 SCF Done:  E(RB3LYP) =  -423.225383436     A.U. after   14 cycles
 Optimization completed.
    -- Stationary point found.
 Normal termination of Gaussian 09 at Tue Jan 28 03:17:09 2020.

 ----------------------------------------------------------------------
 #N Geom=AllCheck Guess=TCheck SCRF=Check GenChk RB3LYP/6-31G(2df,p) Fr
 eq
 ----------------------------------------------------------------------

 Structure from the checkpoint file:  "/scratch/puck/g09_4bf21853-c0f9-449e-81cd-4807491932ac/Gau-1280.chk"
 -----
 titel
 -----
 Charge =  0 Multiplicity = 1

                         Standard orientation:
 ---------------------------------------------------------------------
 Center     Atomic      Atomic             Coordinates (Angstroms)
 Number     Number       Type             X           Y           Z
 ---------------------------------------------------------------------
      1          6           0        2.753985    0.258275    0.161967
      2          6           0        1.341801   -0.000525   -0.335392
      3          6           0        0.797410   -1.377249    0.036451
      4          6           0       -0.670693   -1.502412   -0.357436
      5          6           0       -1.728877   -1.212751    0.664302
      6          6           0       -1.453723   -0.208621   -0.444565
      7          6           0       -0.809260    1.087069   -0.068955
      8          8           0       -1.409705    2.123532    0.021013
      9          8           0        0.518058    1.049595    0.229295
     10          1           0        3.447779   -0.466729   -0.274224
     11          1           0        3.078943    1.263942   -0.115309
     12          1           0        2.798454    0.171127    1.251839
     13          1           0        1.310578    0.111504   -1.428266
     14          1           0        1.393317   -2.141678   -0.472114
     15          1           0        0.930626   -1.534771    1.113151
     16          1           0       -0.904699   -2.251967   -1.105786
     17          1           0       -2.671458   -1.745447    0.615580
     18          1           0       -1.407282   -0.957764    1.668869
     19          1           0       -2.226942   -0.095945   -1.194430
 ---------------------------------------------------------------------

 SCF Done:  E(RB3LYP) =  -423.225383436     A.U. after    1 cycles

 The electronic state is 1-A.
 Alpha  occ. eigenvalues --  -19.16857 -19.11128 -10.29854 -10.25162 -10.21038
 Alpha  occ. eigenvalues --  -10.20681 -10.20452 -10.19968 -10.18596  -1.08570
 Alpha  occ. eigenvalues --   -1.00666  -0.88130  -0.79809  -0.71533  -0.65866
 Alpha  occ. eigenvalues --   -0.62973  -0.59872  -0.54442  -0.52226  -0.50244
 Alpha  occ. eigenvalues --   -0.45802  -0.44846  -0.43360  -0.41082  -0.40801
 Alpha  occ. eigenvalues --   -0.40195  -0.39782  -0.36665  -0.36028  -0.32625
 Alpha  occ. eigenvalues --   -0.31677  -0.29947  -0.28198  -0.25419
 Alpha virt. eigenvalues --    0.00920   0.07179   0.09197   0.11232   0.11418
 Alpha virt. eigenvalues --    0.12396   0.13789   0.14951   0.16110   0.16737
 Alpha virt. eigenvalues --    0.17490   0.18191   0.18621   0.21433   0.22627

 Mulliken charges:
               1
     1  C   -0.399016
     2  C    0.136681
     3  C   -0.235962
     4  C   -0.053864
     5  C   -0.279584
     6  C   -0.157774
     7  C    0.410398
     8  O   -0.334071
     9  O   -0.248778
    10  H    0.118386
    11  H    0.135196
    12  H    0.128783
    13  H    0.089195
    14  H    0.110649
    15  H    0.110545
    16  H    0.096120
    17  H    0.124602
    18  H    0.130261
    19  H    0.118233
 Sum of Mulliken charges =   0.00000

 Dipole moment (field-independent basis, Debye):
    X=              1.4927    Y=             -4.1513    Z=             -0.8459  Tot=              4.4919
 Quadrupole moment (field-independent basis, Debye-Ang):
   XX=            -51.0332   YY=            -60.3412   ZZ=            -51.0340
   XY=              4.8124   XZ=              0.0798   YZ=             -0.4400

  Exact polarizability:  87.023  -2.084  78.129  -0.582  -0.172  61.800
 Approx polarizability: 114.012  -9.787 118.265  -1.010   0.171  97.180

                      1                      2                      3
                      A                      A                      A
 Frequencies --     70.6221               133.9581               209.1042
 Red. masses --      3.2233                 3.6328                 3.3404
 Frc consts  --      0.0095                 0.0384                 0.0861
 IR Inten    --      0.6543                 0.5183                 2.5641

                      4                      5                      6
                      A                      A                      A
 Frequencies --    223.8599               280.3871               381.0294
 Red. masses --      1.0700                 2.8838                 2.4902
 Frc consts  --      0.0316                 0.1336                 0.2130
 IR Inten    --      0.0957                 1.6364                 1.3512

                      7                      8                      9
                      A                      A                      A
 Frequencies --    424.9955               440.6141               454.4730
 Red. masses --      3.1402                 3.6803                 3.7646
 Frc consts  --      0.3342                 0.4210                 0.4581
 IR Inten    --      2.4453                 1.4817                 2.6933

                     10                     11                     12
                      A                      A                      A
 Frequencies --    539.4437               656.2874               746.7939
 Red. masses --      4.4520                 3.9954                 3.9772
 Frc consts  --      0.7633                 1.0139                 1.3069
 IR Inten    --      6.1078                 3.1665                 5.7427

                     13                     14                     15
                      A                      A                      A
 Frequencies --    757.1191               819.4321               846.7279
 Red. masses --      2.3543                 2.2086                 1.8485
 Frc consts  --      0.7951                 0.8738                 0.7808
 IR Inten    --      2.1252                 4.6149                 8.7863

                     16                     17                     18
                      A                      A                      A
 Frequencies --    893.1269               903.8628               944.2934
 Red. masses --      1.5554                 2.0567                 2.2538
 Frc consts  --      0.7310                 0.9900                 1.1841
 IR Inten    --      2.6971                 8.9646                 8.7410

                     19                     20                     21
                      A                      A                      A
 Frequencies --    976.6991              1000.7141              1027.2271
 Red. masses --      3.2113                 2.0673                 1.8836
 Frc consts  --      1.8049                 1.2198                 1.1710
 IR Inten    --      5.2487                18.2683                21.2670

                     22                     23                     24
                      A                      A                      A
 Frequencies --   1061.5167              1089.9087              1119.3027
 Red. masses --      1.4914                 1.7540                 1.3336
 Frc consts  --      0.9902                 1.2276                 0.9844
 IR Inten    --     72.4249                77.7596                 4.3499

                     25                     26                     27
                      A                      A                      A
 Frequencies --   1128.9814              1157.5467              1158.4596
 Red. masses --      1.8994                 1.7828                 2.2402
 Frc consts  --      1.4264                 1.4075                 1.7713
 IR Inten    --      5.8466                15.0451                23.2885

                     28                     29                     30
                      A                      A                      A
 Frequencies --   1210.0349              1245.5905              1262.7342
 Red. masses --      1.6424                 1.7790                 1.4548
 Frc consts  --      1.4168                 1.6262                 1.3667
 IR Inten    --     19.5469                89.3515                64.6581

                     31                     32                     33
                      A                      A                      A
 Frequencies --   1316.2501              1366.1775              1383.5209
 Red. masses --      1.3838                 1.7329                 1.2946
 Frc consts  --      1.4126                 1.9056                 1.4601
 IR Inten    --     21.0087                32.8969                 6.7806

                     34                     35                     36
                      A                      A                      A
 Frequencies --   1394.7065              1399.8754              1413.3560
 Red. masses --      1.8338                 1.5996                 1.3362
 Frc consts  --      2.1017                 1.8469                 1.5726
 IR Inten    --      4.2985                19.4733                12.4572

                     37                     38                     39
                      A                      A                      A
 Frequencies --   1476.2277              1483.3257              1494.1594
 Red. masses --      1.1201                 1.0736                 1.1966
 Frc consts  --      1.4382                 1.3917                 1.5739
 IR Inten    --      0.6683                 2.2597                 6.6056

                     40                     41                     42
                      A                      A                      A
 Frequencies --   1498.7590              1842.2079              3006.7759
 Red. masses --      1.0539                12.4881                 1.0836
 Frc consts  --      1.3948                24.9702                 5.7720
 IR Inten    --      1.8197               357.8912                22.9913

                     43                     44                     45
                      A                      A                      A
 Frequencies --   3037.5587              3045.4279              3084.6916
 Red. masses --      1.0596                 1.0380                 1.1013
 Frc consts  --      5.7602                 5.6723                 6.1744
 IR Inten    --     16.6024                23.9180                13.6061

                     46                     47                     48
                      A                      A                      A
 Frequencies --   3117.9831              3128.8321              3134.9396
 Red. masses --      1.1017                 1.1019                 1.0544
 Frc consts  --      6.3107                 6.3556                 6.1053
 IR Inten    --     24.8113                15.1514                10.2016

                     49                     50                     51
                      A                      A                      A
 Frequencies --   3162.0735              3189.7953              3224.5959
 Red. masses --      1.0897                 1.0904                 1.1163
 Frc consts  --      6.4196                 6.5370                 6.8388
 IR Inten    --     13.4458                 2.7055                 7.0716

 - Thermochemistry -
 -------------------
 Temperature   298.150 Kelvin.  Pressure   1.00000 Atm.
 Atom     1 has atomic number  6 and mass  12.00000

 Molecular mass:   126.06808 amu.
 Principal axes and moments of inertia in atomic units:
                           1         2         3
     Eigenvalues --   759.461501081.470881677.81139
           X            0.99750   0.07061   0.00136
           Y           -0.07060   0.99750  -0.00428
           Z           -0.00166   0.00417   0.99999
 This molecule is an asymmetric top.
 Rotational symmetry number  1.
 Warning -- assumption of classical behavior for rotation
           may cause significant error
 Rotational temperatures (Kelvin)      0.11405     0.08009     0.05162
 Rotational constants (GHZ):           2.37634     1.66878     1.07565
 Zero-point vibrational energy     420882.7 (Joules/Mol)
                                  100.59337 (Kcal/Mol)
 Warning -- explicit consideration of  10 degrees of freedom as
           vibrations may cause significant error
 Vibrational temperatures:    101.61   192.74   300.85   322.08   403.41
          (Kelvin)            548.22   611.47   633.94   653.88   776.14
                              944.25  1074.47  1089.32  1178.98  1218.25
                             1285.01  1300.46  1358.63  1405.25  1439.80
                             1477.95  1527.28  1568.13  1610.42  1624.35
                             1665.45  1666.76  1740.97  1792.12  1816.79
                             1893.79  1965.62  1990.58  2006.67  2014.11
                             2033.50  2123.96  2134.17  2149.76  2156.38
                             2650.52  4326.07  4370.36  4381.69  4438.18
                             4486.08  4501.69  4510.47  4549.51  4589.40
                             4639.47

 Zero-point correction=                           0.160306 (Hartree/Particle)
 Thermal correction to Energy=                    0.168437
 Thermal correction to Enthalpy=                  0.169381
 Thermal correction to Gibbs Free Energy=         0.127441
 Sum of electronic and zero-point Energies=           -423.065078
 Sum of electronic and thermal Energies=              -423.056947
 Sum of electronic and thermal Enthalpies=            -423.056002
 Sum of electronic and thermal Free Energies=         -423.097943

                     E (Thermal)             CV                S
                      KCal/Mol        Cal/Mol-Kelvin    Cal/Mol-Kelvin
 Total                  105.696             31.320             88.271
 Electronic               0.000              0.000              0.000
 Translational            0.889              2.981             40.409
 Rotational               0.889              2.981             28.712
 Vibrational            103.918             25.358             19.150
 Vibration     1          0.598              1.968              4.136
 Vibration     2          0.613              1.919              2.888
 Vibration     3          0.642              1.827              2.051
 Vibration     4          0.649              1.805              1.928
 Vibration     5          0.680              1.710              1.531
 Vibration     6          0.751              1.511              1.035
 Vibration     7          0.787              1.416              0.875
 Vibration     8          0.801              1.382              0.825
 Vibration     9          0.813              1.351              0.782
 Vibration    10          0.894              1.163              0.566

 Optimization completed.
    -- Stationary point found.
 Normal termination of Gaussian 09 at Tue Jan 28 03:59:19 2020.
