 Gaussian 09, Revision D.01,
 Gaussian 09:  ES64L-G09RevD.01 24-Apr-2013

 -----------------------------
 # b3lyp 6-31G(2df,p) opt Freq
 -----------------------------

 -----
 titel
 -----
 Symbolic Z-matrix:
 Charge =  0 Multiplicity = 1

 SCF Done:  E(RB3LYP) =  -423.170215527     A.U. after   14 cycles
 Optimization completed.
    -- Stationary point found.
 Normal termination of Gaussian 09 at Tue Jan 28 02:25:21 2020.

 ----------------------------------------------------------------------
 #N Geom=AllCheck Guess=TCheck SCRF=Check GenChk RB3LYP/6-31G(2df,p) Fr
 eq
 ----------------------------------------------------------------------

 Structure from the checkpoint file:  "/scratch/puck/g09_a370378d-c13c-48b7-8561-bbc44af873d1/Gau-5108.chk"
 -----
 titel
 -----
 Charge =  0 Multiplicity = 1

                         Standard orientation:
 ---------------------------------------------------------------------
 Center     Atomic      Atomic             Coordinates (Angstroms)
 Number     Number       Type             X           Y           Z
 ---------------------------------------------------------------------
      1          6           0        1.733650   -1.783687    0.289315
      2          6           0        0.773421   -0.866704   -0.459309
      3          6           0       -0.684712   -1.375508   -0.732754
      4          6           0       -1.263198   -0.173030   -0.001212
      5          8           0       -2.370732    0.467528   -0.499913
      6          6           0       -0.756537   -0.041954    1.376838
      7          6           0        0.217312    0.359945    0.270067
      8          6           0        0.722495    1.720684    0.137530
      9          8           0        1.703207    2.029484   -0.504504
     10          1           0        2.670474   -1.262281    0.508993
     11          1           0        1.313686   -2.135098    1.238249
     12          1           0        1.973393   -2.667820   -0.311035
     13          1           0        1.238252   -0.535152   -1.390879
     14          1           0       -0.941120   -1.363033   -1.793619
     15          1           0       -0.956257   -2.350280   -0.312263
     16          1           0       -2.840667    0.903593    0.217617
     17          1           0       -1.147173    0.808021    1.934593
     18          1           0       -0.539252   -0.908269    1.998730
     19          1           0        0.114276    2.495738    0.662091
 ---------------------------------------------------------------------

 SCF Done:  E(RB3LYP) =  -423.170215527     A.U. after    1 cycles

 The electronic state is 1-A.
 Alpha  occ. eigenvalues --  -19.17173 -19.12063 -10.26851 -10.25835 -10.21150
 Alpha  occ. eigenvalues --  -10.20035 -10.19702 -10.19290 -10.17680  -1.06028
 Alpha  occ. eigenvalues --   -1.02718  -0.90253  -0.76673  -0.71478  -0.67346
 Alpha  occ. eigenvalues --   -0.61494  -0.59606  -0.54856  -0.50541  -0.49354
 Alpha  occ. eigenvalues --   -0.45972  -0.44578  -0.42394  -0.41404  -0.41044
 Alpha  occ. eigenvalues --   -0.39688  -0.38635  -0.36653  -0.35170  -0.34604
 Alpha  occ. eigenvalues --   -0.32252  -0.29963  -0.24911  -0.23112
 Alpha virt. eigenvalues --   -0.01641   0.05669   0.09402   0.10475   0.11148
 Alpha virt. eigenvalues --    0.11962   0.13753   0.15029   0.15519   0.16367
 Alpha virt. eigenvalues --    0.17204   0.18539   0.19487   0.20620   0.22137

 Mulliken charges:
               1
     1  C   -0.413900
     2  C   -0.035507
     3  C   -0.297881
     4  C    0.382996
     5  O   -0.444745
     6  C   -0.420836
     7  C    0.182921
     8  C    0.058068
     9  O   -0.281840
    10  H    0.132298
    11  H    0.108752
    12  H    0.117826
    13  H    0.102217
    14  H    0.123203
    15  H    0.100858
    16  H    0.294726
    17  H    0.117526
    18  H    0.122920
    19  H    0.050399
 Sum of Mulliken charges =   0.00000

 Dipole moment (field-independent basis, Debye):
    X=             -2.5987    Y=             -1.6550    Z=              2.2600  Tot=              3.8210
 Quadrupole moment (field-independent basis, Debye-Ang):
   XX=            -55.6149   YY=            -55.4081   ZZ=            -52.3865
   XY=             -7.1167   XZ=             -2.3935   YZ=              3.8539

  Exact polarizability:  84.875   2.835  83.651  -5.001   2.132  67.878
 Approx polarizability: 134.530  14.909 117.871 -11.347  -0.746 106.642

                      1                      2                      3
                      A                      A                      A
 Frequencies --     92.9308               142.6985               161.5499
 Red. masses --      5.4045                 2.9129                 3.1053
 Frc consts  --      0.0275                 0.0349                 0.0477
 IR Inten    --      3.8057                 1.9760                16.5480

                      4                      5                      6
                      A                      A                      A
 Frequencies --    170.8851               227.3693               242.2951
 Red. masses --      1.9716                 1.0760                 2.0703
 Frc consts  --      0.0339                 0.0328                 0.0716
 IR Inten    --     18.9744                 1.9892                12.1137

                      7                      8                      9
                      A                      A                      A
 Frequencies --    258.5270               373.8372               403.8446
 Red. masses --      1.7879                 3.2730                 2.1443
 Frc consts  --      0.0704                 0.2695                 0.2060
 IR Inten    --     17.2793                 4.8216                 5.5056

                     10                     11                     12
                      A                      A                      A
 Frequencies --    448.5680               506.8883               540.1711
 Red. masses --      2.4120                 4.7473                 2.6792
 Frc consts  --      0.2859                 0.7186                 0.4606
 IR Inten    --      8.6142                14.8164                20.9410

                     13                     14                     15
                      A                      A                      A
 Frequencies --    629.0332               672.9661               748.5674
 Red. masses --      4.5914                 4.1882                 3.8645
 Frc consts  --      1.0704                 1.1175                 1.2759
 IR Inten    --     20.7618                 7.5283                13.5273

                     16                     17                     18
                      A                      A                      A
 Frequencies --    785.7895               856.5252               893.8182
 Red. masses --      4.0293                 2.1764                 1.5789
 Frc consts  --      1.4659                 0.9407                 0.7432
 IR Inten    --     82.3952                 5.6824                29.6121

                     19                     20                     21
                      A                      A                      A
 Frequencies --    950.1781               963.7302              1022.7338
 Red. masses --      1.3234                 1.5272                 1.5407
 Frc consts  --      0.7040                 0.8357                 0.9495
 IR Inten    --     24.4975                 8.6211                13.7690

                     22                     23                     24
                      A                      A                      A
 Frequencies --   1035.6284              1075.5749              1089.9424
 Red. masses --      1.7589                 1.4698                 1.4216
 Frc consts  --      1.1115                 1.0018                 0.9950
 IR Inten    --      2.1234                64.5924                 7.6012

                     25                     26                     27
                      A                      A                      A
 Frequencies --   1110.8107              1140.9077              1172.6824
 Red. masses --      1.7801                 1.9339                 1.7593
 Frc consts  --      1.2941                 1.4831                 1.4255
 IR Inten    --      7.1359                32.2399                 9.7765

                     28                     29                     30
                      A                      A                      A
 Frequencies --   1193.8960              1246.5850              1250.5147
 Red. masses --      2.8776                 1.5501                 1.5378
 Frc consts  --      2.4166                 1.4192                 1.4169
 IR Inten    --     36.1193                10.6817                 5.5918

                     31                     32                     33
                      A                      A                      A
 Frequencies --   1332.6750              1377.2894              1395.5707
 Red. masses --      1.7186                 2.9115                 1.5648
 Frc consts  --      1.7983                 3.2540                 1.7956
 IR Inten    --     31.7687               127.4959                16.4788

                     34                     35                     36
                      A                      A                      A
 Frequencies --   1407.1868              1410.6864              1440.9929
 Red. masses --      1.8065                 1.3936                 1.4853
 Frc consts  --      2.1077                 1.6340                 1.8172
 IR Inten    --      7.3340                 4.9838                21.5956

                     37                     38                     39
                      A                      A                      A
 Frequencies --   1476.2528              1496.0308              1496.4868
 Red. masses --      1.1648                 1.0544                 1.1040
 Frc consts  --      1.4957                 1.3903                 1.4567
 IR Inten    --      9.3913                 1.2499                13.3009

                     40                     41                     42
                      A                      A                      A
 Frequencies --   1504.2797              1782.6977              2841.2292
 Red. masses --      1.2893                10.2574                 1.0806
 Frc consts  --      1.7190                19.2062                 5.1395
 IR Inten    --     18.8418               273.4824               133.8048

                     43                     44                     45
                      A                      A                      A
 Frequencies --   3030.0043              3043.1732              3076.1796
 Red. masses --      1.0361                 1.0645                 1.0879
 Frc consts  --      5.6045                 5.8081                 6.0656
 IR Inten    --     19.1730                42.0837                 0.7411

                     46                     47                     48
                      A                      A                      A
 Frequencies --   3089.7207              3097.6755              3106.4416
 Red. masses --      1.0564                 1.0974                 1.1008
 Frc consts  --      5.9418                 6.2043                 6.2588
 IR Inten    --     10.0013                37.5659                18.3334

                     49                     50                     51
                      A                      A                      A
 Frequencies --   3120.6783              3169.3488              3826.2585
 Red. masses --      1.0997                 1.1146                 1.0662
 Frc consts  --      6.3097                 6.5965                 9.1972
 IR Inten    --     17.0572                11.2542                39.4527

 - Thermochemistry -
 -------------------
 Temperature   298.150 Kelvin.  Pressure   1.00000 Atm.
 Atom     1 has atomic number  6 and mass  12.00000

 Molecular mass:   126.06808 amu.
 Principal axes and moments of inertia in atomic units:
                           1         2         3
     Eigenvalues --   929.496671086.744271607.32190
           X            0.96448  -0.26404  -0.00748
           Y            0.26413   0.96428   0.01994
           Z            0.00195  -0.02120   0.99977
 This molecule is an asymmetric top.
 Rotational symmetry number  1.
 Warning -- assumption of classical behavior for rotation
           may cause significant error
 Rotational temperatures (Kelvin)      0.09318     0.07970     0.05389
 Rotational constants (GHZ):           1.94163     1.66069     1.12282
 Zero-point vibrational energy     412294.8 (Joules/Mol)
                                   98.54082 (Kcal/Mol)
 Warning -- explicit consideration of  12 degrees of freedom as
           vibrations may cause significant error
 Vibrational temperatures:    133.71   205.31   232.43   245.87   327.13
          (Kelvin)            348.61   371.96   537.87   581.04   645.39
                              729.30   777.18   905.04   968.25  1077.02
                             1130.57  1232.35  1286.00  1367.09  1386.59
                             1471.48  1490.04  1547.51  1568.18  1598.21
                             1641.51  1687.23  1717.75  1793.56  1799.21
                             1917.42  1981.61  2007.91  2024.63  2029.66
                             2073.26  2124.00  2152.45  2153.11  2164.32
                             2564.90  4087.89  4359.49  4378.44  4425.93
                             4445.41  4456.86  4469.47  4489.95  4559.98
                             5505.13

 Zero-point correction=                           0.157035 (Hartree/Particle)
 Thermal correction to Energy=                    0.166263
 Thermal correction to Enthalpy=                  0.167207
 Thermal correction to Gibbs Free Energy=         0.123276
 Sum of electronic and zero-point Energies=           -423.013181
 Sum of electronic and thermal Energies=              -423.003953
 Sum of electronic and thermal Enthalpies=            -423.003008
 Sum of electronic and thermal Free Energies=         -423.046940

                     E (Thermal)             CV                S
                      KCal/Mol        Cal/Mol-Kelvin    Cal/Mol-Kelvin
 Total                  104.332             34.427             92.461
 Electronic               0.000              0.000              0.000
 Translational            0.889              2.981             40.409
 Rotational               0.889              2.981             28.875
 Vibrational            102.554             28.465             23.177
 Vibration     1          0.602              1.954              3.597
 Vibration     2          0.616              1.911              2.767
 Vibration     3          0.622              1.890              2.532
 Vibration     4          0.626              1.878              2.426
 Vibration     5          0.651              1.799              1.900
 Vibration     6          0.658              1.775              1.786
 Vibration     7          0.667              1.748              1.672
 Vibration     8          0.745              1.526              1.064
 Vibration     9          0.769              1.462              0.949
 Vibration    10          0.808              1.364              0.800
 Vibration    11          0.862              1.235              0.641
 Vibration    12          0.895              1.161              0.565

 Normal termination of Gaussian 09 at Tue Jan 28 03:08:38 2020.
