 Gaussian 09, Revision D.01,
 Gaussian 09:  ES64L-G09RevD.01 24-Apr-2013

 -----------------------------
 # b3lyp 6-31G(2df,p) opt Freq
 -----------------------------

 -----
 titel
 -----
 Symbolic Z-matrix:
 Charge =  0 Multiplicity = 1

 SCF Done:  E(RB3LYP) =  -423.248270386     A.U. after   14 cycles
 Optimization completed.
    -- Stationary point found.
 Normal termination of Gaussian 09 at Tue Jan 28 03:58:30 2020.

 ----------------------------------------------------------------------
 #N Geom=AllCheck Guess=TCheck SCRF=Check GenChk RB3LYP/6-31G(2df,p) Fr
 eq
 ----------------------------------------------------------------------

 Structure from the checkpoint file:  "/scratch/puck/g09_00606501-9c2a-49af-8ce9-69f6be9bbaf0/Gau-32163.chk"
 -----
 titel
 -----
 Charge =  0 Multiplicity = 1

                         Standard orientation:
 ---------------------------------------------------------------------
 Center     Atomic      Atomic             Coordinates (Angstroms)
 Number     Number       Type             X           Y           Z
 ---------------------------------------------------------------------
      1          6           0       -2.646949   -0.573362   -0.128852
      2          6           0       -1.204933   -0.442131    0.357057
      3          6           0       -0.258924   -1.482779   -0.283501
      4          6           0        1.188845   -1.367382    0.225324
      5          6           0        1.734291    0.037965    0.023743
      6          8           0        2.795440    0.271933   -0.498797
      7          6           0        0.816640    1.153628    0.528608
      8          6           0       -0.641882    0.957587    0.112307
      9          8           0       -1.282117    1.850199   -0.387613
     10          1           0       -3.287261    0.177856    0.338669
     11          1           0       -2.707704   -0.424134   -1.210784
     12          1           0       -3.042627   -1.566088    0.105578
     13          1           0       -1.169611   -0.600574    1.446943
     14          1           0       -0.639826   -2.487610   -0.076856
     15          1           0       -0.276283   -1.360135   -1.374167
     16          1           0        1.212065   -1.588186    1.302190
     17          1           0        1.854986   -2.073368   -0.275064
     18          1           0        0.846911    1.116972    1.627678
     19          1           0        1.180227    2.127060    0.198970
 ---------------------------------------------------------------------

 SCF Done:  E(RB3LYP) =  -423.248270386     A.U. after    1 cycles

 The electronic state is 1-A.
 Alpha  occ. eigenvalues --  -19.13974 -19.13878 -10.28099 -10.27885 -10.20997
 Alpha  occ. eigenvalues --  -10.20967 -10.20429 -10.20337 -10.18320  -1.05232
 Alpha  occ. eigenvalues --   -1.04853  -0.84390  -0.77233  -0.75325  -0.67198
 Alpha  occ. eigenvalues --   -0.62709  -0.55836  -0.53937  -0.48057  -0.47314
 Alpha  occ. eigenvalues --   -0.46836  -0.45587  -0.45403  -0.42599  -0.40969
 Alpha  occ. eigenvalues --   -0.39544  -0.38955  -0.37758  -0.36580  -0.36350
 Alpha  occ. eigenvalues --   -0.34744  -0.34002  -0.26017  -0.24588
 Alpha virt. eigenvalues --   -0.03517  -0.00805   0.08281   0.09965   0.10832
 Alpha virt. eigenvalues --    0.12588   0.13250   0.14654   0.15946   0.16953
 Alpha virt. eigenvalues --    0.17052   0.17413   0.17708   0.20526   0.22174

 Mulliken charges:
               1
     1  C   -0.401392
     2  C   -0.079195
     3  C   -0.218325
     4  C   -0.309241
     5  C    0.384196
     6  O   -0.293451
     7  C   -0.390796
     8  C    0.374011
     9  O   -0.296890
    10  H    0.132195
    11  H    0.130857
    12  H    0.110043
    13  H    0.092197
    14  H    0.115327
    15  H    0.120590
    16  H    0.118805
    17  H    0.127286
    18  H    0.139929
    19  H    0.143855
 Sum of Mulliken charges =   0.00000

 Dipole moment (field-independent basis, Debye):
    X=             -1.1986    Y=             -2.7147    Z=              2.1325  Tot=              3.6543
 Quadrupole moment (field-independent basis, Debye-Ang):
   XX=            -63.4597   YY=            -55.2373   ZZ=            -51.2220
   XY=              2.3829   XZ=              1.8719   YZ=              2.1345

  Exact polarizability:  90.293  -0.693  78.146  -0.625  -1.191  61.459
 Approx polarizability: 127.526  -5.855 114.596  -3.504  -6.877 101.562

                      1                      2                      3
                      A                      A                      A
 Frequencies --     71.4562                92.0311               185.3914
 Red. masses --      4.4849                 5.2613                 1.2912
 Frc consts  --      0.0135                 0.0263                 0.0261
 IR Inten    --      0.9211                 4.3431                 0.5986

                      4                      5                      6
                      A                      A                      A
 Frequencies --    198.9443               277.0805               308.3065
 Red. masses --      1.6156                 2.8831                 2.7200
 Frc consts  --      0.0377                 0.1304                 0.1523
 IR Inten    --      0.1261                 3.7272                 1.2855

                      7                      8                      9
                      A                      A                      A
 Frequencies --    359.5743               409.2366               433.6447
 Red. masses --      3.5846                 3.2083                 3.1011
 Frc consts  --      0.2731                 0.3166                 0.3436
 IR Inten    --      7.5116                 2.2959                 8.7845

                     10                     11                     12
                      A                      A                      A
 Frequencies --    485.8475               565.2472               617.9601
 Red. masses --      2.5529                 4.3158                 3.6860
 Frc consts  --      0.3550                 0.8124                 0.8293
 IR Inten    --      5.5777                 1.5651                 8.1761

                     13                     14                     15
                      A                      A                      A
 Frequencies --    686.8118               724.9376               784.2990
 Red. masses --      3.5980                 2.2458                 2.4427
 Frc consts  --      1.0000                 0.6954                 0.8853
 IR Inten    --      2.3937                10.6919                 2.0469

                     16                     17                     18
                      A                      A                      A
 Frequencies --    851.4587               862.6842               931.2591
 Red. masses --      2.1754                 1.8468                 1.9616
 Frc consts  --      0.9292                 0.8098                 1.0023
 IR Inten    --      1.0008                 1.0055                 2.8103

                     19                     20                     21
                      A                      A                      A
 Frequencies --    957.6142              1010.5474              1046.5978
 Red. masses --      1.3649                 1.8510                 1.4858
 Frc consts  --      0.7375                 1.1137                 0.9589
 IR Inten    --      3.3911                13.3889                 6.0738

                     22                     23                     24
                      A                      A                      A
 Frequencies --   1072.9893              1117.4362              1128.4944
 Red. masses --      2.4250                 2.2248                 2.1273
 Frc consts  --      1.6449                 1.6367                 1.5961
 IR Inten    --     11.5485                16.2807                38.6728

                     25                     26                     27
                      A                      A                      A
 Frequencies --   1146.3220              1201.6629              1218.4477
 Red. masses --      1.9461                 1.4269                 2.1810
 Frc consts  --      1.5067                 1.2140                 1.9078
 IR Inten    --      4.0119                17.2418                51.6002

                     28                     29                     30
                      A                      A                      A
 Frequencies --   1250.8187              1262.9407              1309.7668
 Red. masses --      1.5062                 1.5956                 1.3406
 Frc consts  --      1.3884                 1.4995                 1.3550
 IR Inten    --     10.3105                20.2241                 5.1706

                     31                     32                     33
                      A                      A                      A
 Frequencies --   1338.4457              1345.8186              1381.2826
 Red. masses --      1.6623                 1.3103                 1.7223
 Frc consts  --      1.7546                 1.3983                 1.9361
 IR Inten    --     15.9472                 3.3442                 9.1967

                     34                     35                     36
                      A                      A                      A
 Frequencies --   1415.3573              1439.0845              1465.8492
 Red. masses --      1.2274                 1.0885                 1.0889
 Frc consts  --      1.4487                 1.3281                 1.3786
 IR Inten    --      4.5684                11.5644                 7.5925

                     37                     38                     39
                      A                      A                      A
 Frequencies --   1488.6390              1493.1758              1499.3490
 Red. masses --      1.0529                 1.0535                 1.0747
 Frc consts  --      1.3748                 1.3839                 1.4235
 IR Inten    --      2.7765                 6.2758                 5.5819

                     40                     41                     42
                      A                      A                      A
 Frequencies --   1808.9087              1833.7482              2982.8453
 Red. masses --     10.7947                12.1023                 1.0802
 Frc consts  --     20.8110                23.9771                 5.6627
 IR Inten    --    272.1832               143.2135                12.2756

                     43                     44                     45
                      A                      A                      A
 Frequencies --   3013.4285              3019.3797              3031.8572
 Red. masses --      1.0681                 1.0677                 1.0621
 Frc consts  --      5.7148                 5.7349                 5.7524
 IR Inten    --      3.0926                 3.4939                26.7992

                     46                     47                     48
                      A                      A                      A
 Frequencies --   3047.2846              3081.9900              3113.2545
 Red. masses --      1.0363                 1.1003                 1.0946
 Frc consts  --      5.6697                 6.1576                 6.2507
 IR Inten    --     22.9577                18.0052                12.8692

                     49                     50                     51
                      A                      A                      A
 Frequencies --   3116.3926              3129.5502              3140.8490
 Red. masses --      1.1019                 1.1010                 1.0944
 Frc consts  --      6.3049                 6.3531                 6.3611
 IR Inten    --     21.5823                14.8515                 3.9482

 - Thermochemistry -
 -------------------
 Temperature   298.150 Kelvin.  Pressure   1.00000 Atm.
 Atom     1 has atomic number  6 and mass  12.00000

 Molecular mass:   126.06808 amu.
 Principal axes and moments of inertia in atomic units:
                           1         2         3
     Eigenvalues --   659.237731354.443961847.87858
           X            0.99949   0.03028   0.00971
           Y           -0.03044   0.99940   0.01641
           Z           -0.00921  -0.01670   0.99982
 This molecule is an asymmetric top.
 Rotational symmetry number  1.
 Warning -- assumption of classical behavior for rotation
           may cause significant error
 Rotational temperatures (Kelvin)      0.13138     0.06395     0.04687
 Rotational constants (GHZ):           2.73762     1.33246     0.97666
 Zero-point vibrational energy     417235.3 (Joules/Mol)
                                   99.72163 (Kcal/Mol)
 Warning -- explicit consideration of  12 degrees of freedom as
           vibrations may cause significant error
 Vibrational temperatures:    102.81   132.41   266.74   286.24   398.66
          (Kelvin)            443.58   517.35   588.80   623.92   699.03
                              813.26   889.11   988.17  1043.02  1128.43
                             1225.06  1241.21  1339.87  1377.79  1453.95
                             1505.82  1543.79  1607.74  1623.65  1649.30
                             1728.92  1753.07  1799.65  1817.09  1884.46
                             1925.72  1936.33  1987.36  2036.38  2070.52
                             2109.03  2141.82  2148.34  2157.23  2602.61
                             2638.35  4291.64  4335.65  4344.21  4362.16
                             4384.36  4434.29  4479.27  4483.79  4502.72
                             4518.98

 Zero-point correction=                           0.158917 (Hartree/Particle)
 Thermal correction to Energy=                    0.167606
 Thermal correction to Enthalpy=                  0.168550
 Thermal correction to Gibbs Free Energy=         0.125309
 Sum of electronic and zero-point Energies=           -423.089354
 Sum of electronic and thermal Energies=              -423.080664
 Sum of electronic and thermal Enthalpies=            -423.079720
 Sum of electronic and thermal Free Energies=         -423.122961

                     E (Thermal)             CV                S
                      KCal/Mol        Cal/Mol-Kelvin    Cal/Mol-Kelvin
 Total                  105.174             32.635             91.008
 Electronic               0.000              0.000              0.000
 Translational            0.889              2.981             40.409
 Rotational               0.889              2.981             28.891
 Vibrational            103.397             26.673             21.708
 Vibration     1          0.598              1.968              4.113
 Vibration     2          0.602              1.955              3.616
 Vibration     3          0.631              1.860              2.273
 Vibration     4          0.637              1.841              2.143
 Vibration     5          0.678              1.716              1.552
 Vibration     6          0.698              1.658              1.371
 Vibration     7          0.734              1.556              1.124
 Vibration     8          0.774              1.450              0.929
 Vibration     9          0.794              1.397              0.847
 Vibration    10          0.842              1.281              0.694
 Vibration    11          0.921              1.106              0.513
 Vibration    12          0.978              0.994              0.420

 Normal termination of Gaussian 09 at Tue Jan 28 04:43:27 2020.
