 Gaussian 09, Revision D.01,
 Gaussian 09:  ES64L-G09RevD.01 24-Apr-2013

 -----------------------------
 # b3lyp 6-31G(2df,p) opt Freq
 -----------------------------

 -----
 titel
 -----
 Symbolic Z-matrix:
 Charge =  0 Multiplicity = 1

 SCF Done:  E(RB3LYP) =  -423.134689192     A.U. after   13 cycles
 Optimization completed.
    -- Stationary point found.
 Normal termination of Gaussian 09 at Mon Jan 27 12:16:43 2020.

 ----------------------------------------------------------------------
 #N Geom=AllCheck Guess=TCheck SCRF=Check GenChk RB3LYP/6-31G(2df,p) Fr
 eq
 ----------------------------------------------------------------------

 Structure from the checkpoint file:  "/scratch/puck/g09_384074c4-2744-4bf6-aaef-bb2f315fb77c/Gau-153352.chk"
 -----
 titel
 -----
 Charge =  0 Multiplicity = 1

                         Standard orientation:
 ---------------------------------------------------------------------
 Center     Atomic      Atomic             Coordinates (Angstroms)
 Number     Number       Type             X           Y           Z
 ---------------------------------------------------------------------
      1          6           0       -1.972305   -0.696113    0.016981
      2          8           0       -1.950299    0.759046    0.146889
      3          6           0       -0.635520    0.776858   -0.456003
      4          6           0        0.510777    1.619535    0.088079
      5          8           0        1.714477    0.861186   -0.121903
      6          6           0        1.599267   -0.539625    0.147110
      7          6           0        0.720447   -1.286183   -0.923135
      8          6           0       -0.442654   -0.698723   -0.095595
      9          6           0        0.461084   -0.820216    1.154730
     10          1           0       -2.418288   -1.178100    0.892334
     11          1           0       -2.506299   -1.005824   -0.892186
     12          1           0       -0.729553    0.914489   -1.544521
     13          1           0        0.657265    2.563392   -0.441993
     14          1           0        0.355260    1.843590    1.150968
     15          1           0        2.611455   -0.899406    0.336031
     16          1           0        0.811714   -0.965874   -1.963848
     17          1           0        0.842184   -2.370423   -0.843744
     18          1           0        0.317379   -0.144958    1.999682
     19          1           0        0.498895   -1.851939    1.514380
 ---------------------------------------------------------------------

 SCF Done:  E(RB3LYP) =  -423.134689192     A.U. after    1 cycles

 The electronic state is 1-A.
 Alpha  occ. eigenvalues --  -19.14225 -19.13673 -10.24162 -10.23365 -10.22986
 Alpha  occ. eigenvalues --  -10.22917 -10.20224 -10.18857 -10.18690  -1.04473
 Alpha  occ. eigenvalues --   -1.02615  -0.84929  -0.75024  -0.69919  -0.67372
 Alpha  occ. eigenvalues --   -0.63354  -0.58865  -0.53142  -0.51274  -0.49689
 Alpha  occ. eigenvalues --   -0.46956  -0.45759  -0.44191  -0.40522  -0.40075
 Alpha  occ. eigenvalues --   -0.38993  -0.38298  -0.36164  -0.34447  -0.32733
 Alpha  occ. eigenvalues --   -0.29168  -0.28610  -0.25691  -0.24089
 Alpha virt. eigenvalues --    0.06771   0.09650   0.09873   0.10907   0.12151
 Alpha virt. eigenvalues --    0.12965   0.14837   0.15023   0.15413   0.16235
 Alpha virt. eigenvalues --    0.17835   0.18517   0.20378   0.21043   0.21940

 Mulliken charges:
               1
     1  C   -0.214539
     2  O   -0.310151
     3  C    0.129252
     4  C   -0.125309
     5  O   -0.287259
     6  C    0.137361
     7  C   -0.330021
     8  C    0.285601
     9  C   -0.284562
    10  H    0.109571
    11  H    0.101823
    12  H    0.073522
    13  H    0.111068
    14  H    0.108062
    15  H    0.082567
    16  H    0.102391
    17  H    0.099783
    18  H    0.110134
    19  H    0.100706
 Sum of Mulliken charges =   0.00000

 Dipole moment (field-independent basis, Debye):
    X=              0.1390    Y=             -1.6934    Z=             -0.0264  Tot=              1.6993
 Quadrupole moment (field-independent basis, Debye-Ang):
   XX=            -58.6847   YY=            -51.1754   ZZ=            -51.9005
   XY=              0.9228   XZ=              1.3901   YZ=             -0.7893

  Exact polarizability:  77.531   0.526  76.631  -0.120  -0.837  68.706
 Approx polarizability: 110.284  -0.085 111.976  -2.699  -1.078 104.719

                      1                      2                      3
                      A                      A                      A
 Frequencies --    189.9520               251.2248               335.3731
 Red. masses --      3.5326                 3.0621                 2.2390
 Frc consts  --      0.0751                 0.1139                 0.1484
 IR Inten    --      5.3426                 3.2750                 2.0885

                      4                      5                      6
                      A                      A                      A
 Frequencies --    377.9447               419.1037               459.1730
 Red. masses --      3.5224                 2.5505                 3.3086
 Frc consts  --      0.2964                 0.2639                 0.4110
 IR Inten    --      2.3424                 2.0536                 1.5397

                      7                      8                      9
                      A                      A                      A
 Frequencies --    499.0522               534.9361               591.7513
 Red. masses --      2.5263                 4.4302                 2.2767
 Frc consts  --      0.3707                 0.7469                 0.4697
 IR Inten    --      0.7624                 1.3457                 1.4678

                     10                     11                     12
                      A                      A                      A
 Frequencies --    778.6520               804.6365               824.3615
 Red. masses --      3.4493                 2.5626                 2.3774
 Frc consts  --      1.2322                 0.9775                 0.9519
 IR Inten    --      4.7856                 0.8816                11.5309

                     13                     14                     15
                      A                      A                      A
 Frequencies --    838.7404               876.8926               932.9460
 Red. masses --      2.5745                 2.3519                 2.4595
 Frc consts  --      1.0671                 1.0655                 1.2613
 IR Inten    --     14.9894                 1.3709                32.9329

                     16                     17                     18
                      A                      A                      A
 Frequencies --    957.7697               967.2655               974.9454
 Red. masses --      3.8948                 1.8090                 3.1934
 Frc consts  --      2.1050                 0.9972                 1.7884
 IR Inten    --     22.2991                15.6858                 7.9609

                     19                     20                     21
                      A                      A                      A
 Frequencies --    986.3349              1021.7708              1055.1266
 Red. masses --      2.6408                 2.1452                 1.2588
 Frc consts  --      1.5137                 1.3196                 0.8257
 IR Inten    --     50.5814                27.5343                 8.2187

                     22                     23                     24
                      A                      A                      A
 Frequencies --   1064.2978              1110.6367              1139.2445
 Red. masses --      2.0805                 2.3863                 2.1728
 Frc consts  --      1.3885                 1.7343                 1.6615
 IR Inten    --      7.9624                 8.2612                 5.5540

                     25                     26                     27
                      A                      A                      A
 Frequencies --   1153.2172              1167.7305              1189.0948
 Red. masses --      1.2939                 2.2181                 1.6050
 Frc consts  --      1.0139                 1.7820                 1.3371
 IR Inten    --      3.2154                45.1095                 5.1165

                     28                     29                     30
                      A                      A                      A
 Frequencies --   1204.6867              1230.7727              1243.4481
 Red. masses --      1.9985                 1.3117                 1.2814
 Frc consts  --      1.7089                 1.1707                 1.1673
 IR Inten    --      4.0713                 4.4247                 1.2972

                     31                     32                     33
                      A                      A                      A
 Frequencies --   1266.2708              1277.7131              1299.0979
 Red. masses --      1.8495                 1.5255                 1.8271
 Frc consts  --      1.7472                 1.4673                 1.8168
 IR Inten    --      3.9649                 1.9159                16.9255

                     34                     35                     36
                      A                      A                      A
 Frequencies --   1337.7030              1356.5740              1380.8848
 Red. masses --      1.3373                 1.7670                 1.4161
 Frc consts  --      1.4099                 1.9159                 1.5910
 IR Inten    --      1.6435                 3.4502                 8.7505

                     37                     38                     39
                      A                      A                      A
 Frequencies --   1406.8934              1475.2242              1502.5069
 Red. masses --      1.3915                 1.1004                 1.1259
 Frc consts  --      1.6228                 1.4110                 1.4975
 IR Inten    --      3.8589                 2.6980                 3.3794

                     40                     41                     42
                      A                      A                      A
 Frequencies --   1511.7434              1532.2632              2976.5478
 Red. masses --      1.1191                 1.0947                 1.0827
 Frc consts  --      1.5069                 1.5144                 5.6518
 IR Inten    --      0.3087                 2.4530                41.1683

                     43                     44                     45
                      A                      A                      A
 Frequencies --   3007.1826              3026.5661              3053.6023
 Red. masses --      1.0629                 1.0659                 1.0571
 Frc consts  --      5.6631                 5.7524                 5.8074
 IR Inten    --     71.5549                39.3428                36.4164

                     46                     47                     48
                      A                      A                      A
 Frequencies --   3068.8651              3081.7995              3101.2138
 Red. masses --      1.0600                 1.1031                 1.0983
 Frc consts  --      5.8819                 6.1724                 6.2235
 IR Inten    --     13.6133                35.6306                38.1680

                     49                     50                     51
                      A                      A                      A
 Frequencies --   3106.1392              3118.2791              3126.6357
 Red. masses --      1.0906                 1.1086                 1.1063
 Frc consts  --      6.1994                 6.3515                 6.3721
 IR Inten    --     49.3322                31.8009                23.9100

 - Thermochemistry -
 -------------------
 Temperature   298.150 Kelvin.  Pressure   1.00000 Atm.
 Atom     1 has atomic number  6 and mass  12.00000

 Molecular mass:   126.06808 amu.
 Principal axes and moments of inertia in atomic units:
                           1         2         3
     Eigenvalues --   619.11834 973.619591261.61545
           X            0.99993   0.00934   0.00708
           Y           -0.00933   0.99996  -0.00093
           Z           -0.00709   0.00086   0.99997
 This molecule is an asymmetric top.
 Rotational symmetry number  1.
 Warning -- assumption of classical behavior for rotation
           may cause significant error
 Rotational temperatures (Kelvin)      0.13990     0.08896     0.06865
 Rotational constants (GHZ):           2.91502     1.85364     1.43050
 Zero-point vibrational energy     425839.4 (Joules/Mol)
                                  101.77806 (Kcal/Mol)
 Warning -- explicit consideration of   9 degrees of freedom as
           vibrations may cause significant error
 Vibrational temperatures:    273.30   361.46   482.53   543.78   603.00
          (Kelvin)            660.65   718.02   769.65   851.40  1120.31
                             1157.69  1186.07  1206.76  1261.65  1342.30
                             1378.02  1391.68  1402.73  1419.11  1470.10
                             1518.09  1531.29  1597.96  1639.12  1659.22
                             1680.10  1710.84  1733.27  1770.81  1789.04
                             1821.88  1838.34  1869.11  1924.65  1951.80
                             1986.78  2024.20  2122.52  2161.77  2175.06
                             2204.58  4282.58  4326.66  4354.55  4393.45
                             4415.41  4434.02  4461.95  4469.04  4486.50
                             4498.53

 Zero-point correction=                           0.162194 (Hartree/Particle)
 Thermal correction to Energy=                    0.168835
 Thermal correction to Enthalpy=                  0.169779
 Thermal correction to Gibbs Free Energy=         0.131563
 Sum of electronic and zero-point Energies=           -422.972496
 Sum of electronic and thermal Energies=              -422.965855
 Sum of electronic and thermal Enthalpies=            -422.964910
 Sum of electronic and thermal Free Energies=         -423.003126

                     E (Thermal)             CV                S
                      KCal/Mol        Cal/Mol-Kelvin    Cal/Mol-Kelvin
 Total                  105.945             28.086             80.431
 Electronic               0.000              0.000              0.000
 Translational            0.889              2.981             40.409
 Rotational               0.889              2.981             28.122
 Vibrational            104.168             22.124             11.901
 Vibration     1          0.633              1.854              2.228
 Vibration     2          0.663              1.761              1.722
 Vibration     3          0.716              1.605              1.234
 Vibration     4          0.748              1.517              1.047
 Vibration     5          0.782              1.429              0.895
 Vibration     6          0.817              1.341              0.769
 Vibration     7          0.854              1.252              0.660
 Vibration     8          0.890              1.173              0.576
 Vibration     9          0.949              1.049              0.464

 Optimization completed.
    -- Stationary point found.
 Normal termination of Gaussian 09 at Mon Jan 27 13:05:02 2020.
