 Gaussian 09, Revision D.01,
 Gaussian 09:  ES64L-G09RevD.01 24-Apr-2013

 -----------------------------
 # b3lyp 6-31G(2df,p) opt Freq
 -----------------------------

 -----
 titel
 -----
 Symbolic Z-matrix:
 Charge =  0 Multiplicity = 1

 SCF Done:  E(RB3LYP) =  -423.151461940     A.U. after   14 cycles
 Optimization completed.
    -- Stationary point found.
 Normal termination of Gaussian 09 at Tue Jan 28 03:16:46 2020.

 ----------------------------------------------------------------------
 #N Geom=AllCheck Guess=TCheck SCRF=Check GenChk RB3LYP/6-31G(2df,p) Fr
 eq
 ----------------------------------------------------------------------

 Structure from the checkpoint file:  "/scratch/puck/g09_701218ff-23f4-4cb1-8dff-96f600071b6a/Gau-46402.chk"
 -----
 titel
 -----
 Charge =  0 Multiplicity = 1

                         Standard orientation:
 ---------------------------------------------------------------------
 Center     Atomic      Atomic             Coordinates (Angstroms)
 Number     Number       Type             X           Y           Z
 ---------------------------------------------------------------------
      1          6           0       -0.903081    2.018657    0.432728
      2          6           0       -0.900396    0.802772   -0.468937
      3          8           0       -2.179844    0.098173   -0.520420
      4          6           0       -1.524897   -1.141384   -0.260858
      5          6           0       -0.899760   -1.138313    1.097570
      6          6           0       -0.172207   -0.491953   -0.072897
      7          6           0        1.214500   -0.867871   -0.526078
      8          6           0        2.271941   -0.155597    0.298443
      9          8           0        3.122801    0.566337   -0.152523
     10          1           0        0.077672    2.505888    0.407073
     11          1           0       -1.649352    2.741252    0.087984
     12          1           0       -1.136686    1.754533    1.467394
     13          1           0       -0.620191    1.088645   -1.492088
     14          1           0       -1.845613   -2.017291   -0.813307
     15          1           0       -1.346092   -0.547937    1.892111
     16          1           0       -0.471346   -2.084372    1.416159
     17          1           0        1.361487   -1.948965   -0.394795
     18          1           0        1.376611   -0.626631   -1.581540
     19          1           0        2.193251   -0.339084    1.394727
 ---------------------------------------------------------------------

 SCF Done:  E(RB3LYP) =  -423.151461940     A.U. after    1 cycles

 The electronic state is 1-A.
 Alpha  occ. eigenvalues --  -19.14451 -19.14105 -10.27635 -10.24592 -10.24498
 Alpha  occ. eigenvalues --  -10.21421 -10.20636 -10.19899 -10.18213  -1.05623
 Alpha  occ. eigenvalues --   -1.05115  -0.85042  -0.77026  -0.75014  -0.65092
 Alpha  occ. eigenvalues --   -0.60781  -0.58172  -0.54406  -0.51229  -0.49939
 Alpha  occ. eigenvalues --   -0.46303  -0.45051  -0.44084  -0.43046  -0.41978
 Alpha  occ. eigenvalues --   -0.40361  -0.38510  -0.38038  -0.36749  -0.34134
 Alpha  occ. eigenvalues --   -0.31804  -0.28327  -0.26035  -0.23489
 Alpha virt. eigenvalues --   -0.02747   0.07510   0.09294   0.10154   0.11211
 Alpha virt. eigenvalues --    0.12096   0.13094   0.13433   0.14363   0.15530
 Alpha virt. eigenvalues --    0.17484   0.17680   0.18546   0.20437   0.21576

 Mulliken charges:
               1
     1  C   -0.414818
     2  C    0.112449
     3  O   -0.305779
     4  C    0.046747
     5  C   -0.354037
     6  C    0.241339
     7  C   -0.394382
     8  C    0.166917
     9  O   -0.237359
    10  H    0.130175
    11  H    0.132795
    12  H    0.122013
    13  H    0.086895
    14  H    0.108176
    15  H    0.120913
    16  H    0.114775
    17  H    0.121010
    18  H    0.123625
    19  H    0.078543
 Sum of Mulliken charges =   0.00000

 Dipole moment (field-independent basis, Debye):
    X=             -0.5545    Y=             -1.7353    Z=              0.7123  Tot=              1.9560
 Quadrupole moment (field-independent basis, Debye-Ang):
   XX=            -67.7645   YY=            -49.0614   ZZ=            -51.9596
   XY=             -3.6216   XZ=              0.3661   YZ=              0.2825

  Exact polarizability:  80.712   4.818  77.854  -1.103  -2.682  69.386
 Approx polarizability: 117.895  11.921 111.570  -2.508  -7.511 106.400

                      1                      2                      3
                      A                      A                      A
 Frequencies --     40.9077                67.2742               137.2865
 Red. masses --      6.3015                 3.3109                 2.8059
 Frc consts  --      0.0062                 0.0088                 0.0312
 IR Inten    --      5.3630                 4.6891                 1.5355

                      4                      5                      6
                      A                      A                      A
 Frequencies --    214.1783               220.4523               269.8696
 Red. masses --      1.4935                 1.6219                 2.5219
 Frc consts  --      0.0404                 0.0464                 0.1082
 IR Inten    --      0.2912                 0.3207                 1.4169

                      7                      8                      9
                      A                      A                      A
 Frequencies --    320.1357               357.8836               454.8987
 Red. masses --      2.6569                 3.2889                 2.6164
 Frc consts  --      0.1604                 0.2482                 0.3190
 IR Inten    --      3.1622                 1.6806                 9.8526

                     10                     11                     12
                      A                      A                      A
 Frequencies --    484.4888               532.6858               668.4595
 Red. masses --      2.5965                 2.5626                 2.5502
 Frc consts  --      0.3591                 0.4284                 0.6714
 IR Inten    --      1.4503                10.8804                 0.0439

                     13                     14                     15
                      A                      A                      A
 Frequencies --    709.0895               815.7726               837.3903
 Red. masses --      3.3349                 1.8368                 2.4187
 Frc consts  --      0.9880                 0.7202                 0.9993
 IR Inten    --      3.1591                10.9560                14.0457

                     16                     17                     18
                      A                      A                      A
 Frequencies --    869.8722               895.9212               917.6927
 Red. masses --      2.7818                 2.0476                 2.1864
 Frc consts  --      1.2402                 0.9683                 1.0849
 IR Inten    --      8.1469                 9.6309                13.9770

                     19                     20                     21
                      A                      A                      A
 Frequencies --    983.5101               998.2941              1031.3137
 Red. masses --      1.4597                 1.4577                 1.7619
 Frc consts  --      0.8319                 0.8559                 1.1041
 IR Inten    --      7.9064                 1.4122                26.0704

                     22                     23                     24
                      A                      A                      A
 Frequencies --   1054.5254              1065.1078              1084.4469
 Red. masses --      1.9670                 2.1425                 1.6993
 Frc consts  --      1.2888                 1.4321                 1.1774
 IR Inten    --     21.2984                32.2666                19.7500

                     25                     26                     27
                      A                      A                      A
 Frequencies --   1090.1868              1133.9402              1138.9251
 Red. masses --      2.0772                 2.4536                 2.8113
 Frc consts  --      1.4545                 1.8588                 2.1485
 IR Inten    --      9.1421                 7.6570                 6.7660

                     28                     29                     30
                      A                      A                      A
 Frequencies --   1179.5471              1248.7515              1262.7668
 Red. masses --      1.6318                 1.6092                 1.2802
 Frc consts  --      1.3377                 1.4784                 1.2028
 IR Inten    --     17.2992                 9.2806                 8.5076

                     31                     32                     33
                      A                      A                      A
 Frequencies --   1304.5835              1313.2359              1380.0165
 Red. masses --      1.7440                 1.7789                 1.5500
 Frc consts  --      1.7488                 1.8075                 1.7392
 IR Inten    --      0.7345                 4.9862                 5.5753

                     34                     35                     36
                      A                      A                      A
 Frequencies --   1396.5004              1416.3450              1425.5597
 Red. masses --      1.4692                 1.5119                 1.1890
 Frc consts  --      1.6881                 1.7870                 1.4237
 IR Inten    --      0.8927                19.5052                 4.9303

                     37                     38                     39
                      A                      A                      A
 Frequencies --   1454.3803              1481.8499              1484.4436
 Red. masses --      1.1169                 1.3697                 1.0956
 Frc consts  --      1.3919                 1.7721                 1.4225
 IR Inten    --      7.8371                 7.1767                 2.6658

                     40                     41                     42
                      A                      A                      A
 Frequencies --   1496.8053              1833.8499              2870.1863
 Red. masses --      1.0844                10.0200                 1.0824
 Frc consts  --      1.4315                19.8538                 5.2538
 IR Inten    --      6.3068               175.1008                89.6333

                     43                     44                     45
                      A                      A                      A
 Frequencies --   3010.2282              3018.1450              3039.2698
 Red. masses --      1.0843                 1.0630                 1.0358
 Frc consts  --      5.7889                 5.7049                 5.6369
 IR Inten    --     35.2115                13.7641                10.7463

                     46                     47                     48
                      A                      A                      A
 Frequencies --   3087.5823              3108.5539              3117.4978
 Red. masses --      1.0988                 1.1006                 1.0593
 Frc consts  --      6.1719                 6.2661                 6.0657
 IR Inten    --     13.6385                14.7304                 1.5886

                     49                     50                     51
                      A                      A                      A
 Frequencies --   3122.5806              3178.4203              3206.6255
 Red. masses --      1.0952                 1.0947                 1.1155
 Frc consts  --      6.2916                 6.5160                 6.7581
 IR Inten    --     29.9179                19.1302                10.1718

 - Thermochemistry -
 -------------------
 Temperature   298.150 Kelvin.  Pressure   1.00000 Atm.
 Atom     1 has atomic number  6 and mass  12.00000

 Molecular mass:   126.06808 amu.
 Principal axes and moments of inertia in atomic units:
                           1         2         3
     Eigenvalues --   647.432801544.626491872.34298
           X            0.99972  -0.02285  -0.00676
           Y            0.02293   0.99965   0.01295
           Z            0.00646  -0.01310   0.99989
 This molecule is an asymmetric top.
 Rotational symmetry number  1.
 Warning -- assumption of classical behavior for rotation
           may cause significant error
 Rotational temperatures (Kelvin)      0.13378     0.05607     0.04626
 Rotational constants (GHZ):           2.78753     1.16840     0.96389
 Zero-point vibrational energy     411708.2 (Joules/Mol)
                                   98.40062 (Kcal/Mol)
 Warning -- explicit consideration of  11 degrees of freedom as
           vibrations may cause significant error
 Vibrational temperatures:     58.86    96.79   197.52   308.15   317.18
          (Kelvin)            388.28   460.60   514.91   654.50   697.07
                              766.42   961.76  1020.22  1173.71  1204.82
                             1251.55  1289.03  1320.35  1415.05  1436.32
                             1483.83  1517.22  1532.45  1560.28  1568.53
                             1631.48  1638.66  1697.10  1796.67  1816.84
                             1877.00  1889.45  1985.53  2009.25  2037.80
                             2051.06  2092.53  2132.05  2135.78  2153.57
                             2638.50  4129.55  4331.04  4342.43  4372.83
                             4442.34  4472.51  4485.38  4492.69  4573.03
                             4613.61

 Zero-point correction=                           0.156811 (Hartree/Particle)
 Thermal correction to Energy=                    0.165860
 Thermal correction to Enthalpy=                  0.166804
 Thermal correction to Gibbs Free Energy=         0.122061
 Sum of electronic and zero-point Energies=           -422.994651
 Sum of electronic and thermal Energies=              -422.985602
 Sum of electronic and thermal Enthalpies=            -422.984658
 Sum of electronic and thermal Free Energies=         -423.029401

                     E (Thermal)             CV                S
                      KCal/Mol        Cal/Mol-Kelvin    Cal/Mol-Kelvin
 Total                  104.079             33.082             94.169
 Electronic               0.000              0.000              0.000
 Translational            0.889              2.981             40.409
 Rotational               0.889              2.981             29.017
 Vibrational            102.301             27.121             24.744
 Vibration     1          0.594              1.981              5.215
 Vibration     2          0.598              1.970              4.232
 Vibration     3          0.614              1.916              2.841
 Vibration     4          0.644              1.819              2.008
 Vibration     5          0.647              1.810              1.955
 Vibration     6          0.674              1.729              1.597
 Vibration     7          0.706              1.635              1.309
 Vibration     8          0.733              1.559              1.131
 Vibration     9          0.813              1.350              0.781
 Vibration    10          0.841              1.284              0.698
 Vibration    11          0.888              1.178              0.581

 Normal termination of Gaussian 09 at Tue Jan 28 05:08:00 2020.
