 Gaussian 09, Revision D.01,
 Gaussian 09:  ES64L-G09RevD.01 24-Apr-2013

 -----------------------------
 # b3lyp 6-31G(2df,p) opt Freq
 -----------------------------

 -----
 titel
 -----
 Symbolic Z-matrix:
 Charge =  0 Multiplicity = 1

 SCF Done:  E(RB3LYP) =  -423.207044100     A.U. after   14 cycles
 Optimization completed.
    -- Stationary point found.
 Normal termination of Gaussian 09 at Tue Jan 28 11:50:41 2020.

 ----------------------------------------------------------------------
 #N Geom=AllCheck Guess=TCheck SCRF=Check GenChk RB3LYP/6-31G(2df,p) Fr
 eq
 ----------------------------------------------------------------------

 Structure from the checkpoint file:  "/scratch/puck/g09_ea9c17d4-1ad9-463f-b39e-38ba70a85e32/Gau-102507.chk"
 -----
 titel
 -----
 Charge =  0 Multiplicity = 1

                         Standard orientation:
 ---------------------------------------------------------------------
 Center     Atomic      Atomic             Coordinates (Angstroms)
 Number     Number       Type             X           Y           Z
 ---------------------------------------------------------------------
      1          6           0        3.424276    0.171490   -0.300766
      2          6           0        2.168628   -0.693493   -0.430138
      3          6           0        1.055469   -0.256010    0.533747
      4          8           0        0.676134    1.101226    0.281426
      5          6           0       -0.727041    1.202828    0.039993
      6          6           0       -1.233681   -0.214387    0.102529
      7          6           0       -2.628186   -0.596817   -0.119395
      8          8           0       -3.509759    0.193532   -0.375958
      9          6           0       -0.220109   -1.034684    0.395215
     10          1           0        3.184336    1.221305   -0.486444
     11          1           0        3.853834    0.096672    0.704485
     12          1           0        4.190451   -0.139968   -1.016616
     13          1           0        1.777396   -0.645463   -1.453211
     14          1           0        2.407849   -1.745203   -0.226192
     15          1           0        1.443095   -0.331977    1.565813
     16          1           0       -1.200618    1.841170    0.799580
     17          1           0       -0.911686    1.668892   -0.937170
     18          1           0       -2.833332   -1.686716   -0.035741
     19          1           0       -0.278475   -2.110344    0.514643
 ---------------------------------------------------------------------

 SCF Done:  E(RB3LYP) =  -423.207044100     A.U. after    1 cycles

 The electronic state is 1-A.
 Alpha  occ. eigenvalues --  -19.14308 -19.14027 -10.27445 -10.24762 -10.23746
 Alpha  occ. eigenvalues --  -10.21631 -10.20581 -10.19133 -10.17673  -1.04672
 Alpha  occ. eigenvalues --   -1.04089  -0.81945  -0.79448  -0.72385  -0.65801
 Alpha  occ. eigenvalues --   -0.63183  -0.58264  -0.55736  -0.50923  -0.48620
 Alpha  occ. eigenvalues --   -0.46543  -0.45601  -0.42783  -0.42529  -0.41135
 Alpha  occ. eigenvalues --   -0.39443  -0.39179  -0.36573  -0.35725  -0.34558
 Alpha  occ. eigenvalues --   -0.32688  -0.29074  -0.25857  -0.24682
 Alpha virt. eigenvalues --   -0.06499   0.05882   0.08665   0.11018   0.11524
 Alpha virt. eigenvalues --    0.12451   0.13194   0.14048   0.15745   0.16705
 Alpha virt. eigenvalues --    0.17418   0.18314   0.19079   0.19465   0.21220

 Mulliken charges:
               1
     1  C   -0.381000
     2  C   -0.179512
     3  C    0.106654
     4  O   -0.285179
     5  C   -0.163310
     6  C    0.207458
     7  C    0.074389
     8  O   -0.264644
     9  C   -0.210670
    10  H    0.140344
    11  H    0.113895
    12  H    0.113099
    13  H    0.103472
    14  H    0.094593
    15  H    0.089503
    16  H    0.120942
    17  H    0.123331
    18  H    0.073750
    19  H    0.122887
 Sum of Mulliken charges =   0.00000

 Dipole moment (field-independent basis, Debye):
    X=              2.1381    Y=             -2.3257    Z=              0.5370  Tot=              3.2045
 Quadrupole moment (field-independent basis, Debye-Ang):
   XX=            -63.8977   YY=            -51.4013   ZZ=            -52.6096
   XY=              0.8726   XZ=             -1.9052   YZ=             -0.8185

  Exact polarizability: 113.320  -8.471  76.280   5.519  -3.375  57.436
 Approx polarizability: 157.151 -27.525 120.583  15.503  -9.538  89.597

                      1                      2                      3
                      A                      A                      A
 Frequencies --     50.4983                99.4330               112.9360
 Red. masses --      4.8861                 2.1153                 3.4138
 Frc consts  --      0.0073                 0.0123                 0.0257
 IR Inten    --      0.1353                 1.1393                 5.1681

                      4                      5                      6
                      A                      A                      A
 Frequencies --    156.8104               200.3596               227.5868
 Red. masses --      3.6325                 3.6668                 1.2405
 Frc consts  --      0.0526                 0.0867                 0.0379
 IR Inten    --      6.5430                 5.3595                 0.8165

                      7                      8                      9
                      A                      A                      A
 Frequencies --    281.4076               359.9108               406.2954
 Red. masses --      2.3375                 3.4394                 2.4525
 Frc consts  --      0.1091                 0.2625                 0.2385
 IR Inten    --      0.3500                 2.1019                 4.6544

                     10                     11                     12
                      A                      A                      A
 Frequencies --    480.2572               537.4030               709.9359
 Red. masses --      2.5661                 3.9632                 5.0022
 Frc consts  --      0.3487                 0.6744                 1.4854
 IR Inten    --      0.5004                 1.2366                34.7343

                     13                     14                     15
                      A                      A                      A
 Frequencies --    731.3789               799.3760               844.3303
 Red. masses --      2.1015                 1.9138                 2.0280
 Frc consts  --      0.6623                 0.7205                 0.8518
 IR Inten    --      7.6349                 2.2081                 4.6554

                     16                     17                     18
                      A                      A                      A
 Frequencies --    892.0874               912.7228               938.2718
 Red. masses --      1.5779                 4.0113                 2.0871
 Frc consts  --      0.7398                 1.9689                 1.0825
 IR Inten    --     16.6776                 1.0752                11.3532

                     19                     20                     21
                      A                      A                      A
 Frequencies --    998.7851              1016.5487              1039.8523
 Red. masses --      2.1543                 1.4939                 2.1212
 Frc consts  --      1.2662                 0.9095                 1.3514
 IR Inten    --      1.8693                 3.1941                18.0530

                     22                     23                     24
                      A                      A                      A
 Frequencies --   1057.8386              1075.3828              1116.6485
 Red. masses --      1.8679                 3.4571                 2.6276
 Frc consts  --      1.2315                 2.3555                 1.9304
 IR Inten    --      2.4942                45.6050                16.4521

                     25                     26                     27
                      A                      A                      A
 Frequencies --   1138.6742              1191.8580              1218.6368
 Red. masses --      1.9294                 1.1034                 1.8328
 Frc consts  --      1.4739                 0.9235                 1.6037
 IR Inten    --      6.3866                 1.7023                41.8824

                     28                     29                     30
                      A                      A                      A
 Frequencies --   1283.7963              1288.1256              1321.9860
 Red. masses --      1.4727                 1.2259                 1.5332
 Frc consts  --      1.4301                 1.1985                 1.5787
 IR Inten    --     43.9996                 7.2690                 0.3353

                     31                     32                     33
                      A                      A                      A
 Frequencies --   1361.0148              1381.1031              1389.5938
 Red. masses --      1.6392                 1.4737                 1.8738
 Frc consts  --      1.7890                 1.6562                 2.1318
 IR Inten    --     18.2962                 4.3118                22.2715

                     34                     35                     36
                      A                      A                      A
 Frequencies --   1408.0408              1419.4030              1476.0238
 Red. masses --      1.2372                 1.2480                 1.0790
 Frc consts  --      1.4452                 1.4814                 1.3851
 IR Inten    --      1.1438                 2.2687                 0.9255

                     37                     38                     39
                      A                      A                      A
 Frequencies --   1495.9290              1509.2926              1520.3082
 Red. masses --      1.0427                 1.0553                 1.0833
 Frc consts  --      1.3748                 1.4163                 1.4752
 IR Inten    --      4.5556                 4.1456                 1.0193

                     40                     41                     42
                      A                      A                      A
 Frequencies --   1691.5835              1782.9941              2889.0621
 Red. masses --      7.5313                10.2393                 1.0831
 Frc consts  --     12.6972                19.1787                 5.3264
 IR Inten    --     30.4990               261.2445               111.7280

                     43                     44                     45
                      A                      A                      A
 Frequencies --   2937.4639              3002.6950              3024.4747
 Red. masses --      1.0809                 1.0594                 1.0604
 Frc consts  --      5.4950                 5.6279                 5.7152
 IR Inten    --     47.3765                48.6700                21.5639

                     46                     47                     48
                      A                      A                      A
 Frequencies --   3030.0479              3038.0595              3066.4385
 Red. masses --      1.1029                 1.0380                 1.1004
 Frc consts  --      5.9663                 5.6447                 6.0964
 IR Inten    --     29.1358                26.4259                20.0275

                     49                     50                     51
                      A                      A                      A
 Frequencies --   3104.7721              3127.4959              3208.4327
 Red. masses --      1.1005                 1.1013                 1.0949
 Frc consts  --      6.2500                 6.3467                 6.6405
 IR Inten    --     35.7029                19.1109                 2.7556

 - Thermochemistry -
 -------------------
 Temperature   298.150 Kelvin.  Pressure   1.00000 Atm.
 Atom     1 has atomic number  6 and mass  12.00000

 Molecular mass:   126.06808 amu.
 Principal axes and moments of inertia in atomic units:
                           1         2         3
     Eigenvalues --   361.623802167.673302381.94416
           X            0.99997  -0.00144  -0.00727
           Y            0.00135   0.99994  -0.01115
           Z            0.00729   0.01114   0.99991
 This molecule is an asymmetric top.
 Rotational symmetry number  1.
 Rotational temperatures (Kelvin)      0.23951     0.03996     0.03636
 Rotational constants (GHZ):           4.99066     0.83257     0.75768
 Zero-point vibrational energy     414825.2 (Joules/Mol)
                                   99.14561 (Kcal/Mol)
 Warning -- explicit consideration of  11 degrees of freedom as
           vibrations may cause significant error
 Vibrational temperatures:     72.66   143.06   162.49   225.61   288.27
          (Kelvin)            327.45   404.88   517.83   584.57   690.98
                              773.20  1021.44  1052.29  1150.12  1214.80
                             1283.51  1313.20  1349.96  1437.03  1462.59
                             1496.11  1521.99  1547.23  1606.61  1638.30
                             1714.82  1753.34  1847.09  1853.32  1902.04
                             1958.19  1987.10  1999.31  2025.85  2042.20
                             2123.67  2152.31  2171.53  2187.38  2433.81
                             2565.33  4156.71  4226.35  4320.20  4351.54
                             4359.56  4371.08  4411.92  4467.07  4499.76
                             4616.21

 Zero-point correction=                           0.157999 (Hartree/Particle)
 Thermal correction to Energy=                    0.167198
 Thermal correction to Enthalpy=                  0.168142
 Thermal correction to Gibbs Free Energy=         0.123214
 Sum of electronic and zero-point Energies=           -423.049046
 Sum of electronic and thermal Energies=              -423.039846
 Sum of electronic and thermal Enthalpies=            -423.038902
 Sum of electronic and thermal Free Energies=         -423.083830

                     E (Thermal)             CV                S
                      KCal/Mol        Cal/Mol-Kelvin    Cal/Mol-Kelvin
 Total                  104.918             32.768             94.560
 Electronic               0.000              0.000              0.000
 Translational            0.889              2.981             40.409
 Rotational               0.889              2.981             29.014
 Vibrational            103.141             26.807             25.137
 Vibration     1          0.595              1.977              4.798
 Vibration     2          0.604              1.950              3.465
 Vibration     3          0.607              1.939              3.218
 Vibration     4          0.620              1.895              2.588
 Vibration     5          0.638              1.839              2.130
 Vibration     6          0.651              1.799              1.898
 Vibration     7          0.681              1.708              1.525
 Vibration     8          0.734              1.555              1.122
 Vibration     9          0.771              1.457              0.940
 Vibration    10          0.837              1.294              0.709
 Vibration    11          0.892              1.167              0.571

 Optimization completed.
    -- Stationary point found.
 Normal termination of Gaussian 09 at Tue Jan 28 12:28:10 2020.
