 Gaussian 09, Revision D.01,
 Gaussian 09:  ES64L-G09RevD.01 24-Apr-2013

 -----------------------------
 # b3lyp 6-31G(2df,p) opt Freq
 -----------------------------

 -----
 titel
 -----
 Symbolic Z-matrix:
 Charge =  0 Multiplicity = 1

 SCF Done:  E(RB3LYP) =  -423.181329336     A.U. after   13 cycles
 Optimization completed.
    -- Stationary point found.
 Normal termination of Gaussian 09 at Mon Jan 27 11:19:10 2020.

 ----------------------------------------------------------------------
 #N Geom=AllCheck Guess=TCheck SCRF=Check GenChk RB3LYP/6-31G(2df,p) Fr
 eq
 ----------------------------------------------------------------------

 Structure from the checkpoint file:  "/scratch/puck/g09_819794bb-54d5-4e23-920f-669570a6e623/Gau-162685.chk"
 -----
 titel
 -----
 Charge =  0 Multiplicity = 1

                         Standard orientation:
 ---------------------------------------------------------------------
 Center     Atomic      Atomic             Coordinates (Angstroms)
 Number     Number       Type             X           Y           Z
 ---------------------------------------------------------------------
      1          6           0       -0.191890   -0.000004    1.454740
      2          6           0       -0.104298   -1.182241    0.465038
      3          6           0        1.329964   -1.202382   -0.102593
      4          8           0        1.651201    0.000002   -0.791220
      5          6           0        1.329960    1.202386   -0.102590
      6          6           0       -0.104301    1.182239    0.465043
      7          6           0       -1.049480    0.732900   -0.647586
      8          8           0       -2.200107   -0.000001   -0.203591
      9          6           0       -1.049475   -0.732899   -0.647589
     10          1           0       -1.139036   -0.000007    1.993261
     11          1           0        0.628284   -0.000005    2.178293
     12          1           0       -0.350522   -2.152035    0.907470
     13          1           0        2.040306   -1.384088    0.721022
     14          1           0        1.462784   -2.000539   -0.840620
     15          1           0        2.040303    1.384091    0.721024
     16          1           0        1.462780    2.000544   -0.840616
     17          1           0       -0.350527    2.152030    0.907478
     18          1           0       -1.183004    1.326282   -1.547799
     19          1           0       -1.183002   -1.326275   -1.547805
 ---------------------------------------------------------------------

 SCF Done:  E(RB3LYP) =  -423.181329336     A.U. after    1 cycles

 The electronic state is 1-A.
 Alpha  occ. eigenvalues --  -19.14695 -19.14013 -10.23137 -10.23136 -10.23044
 Alpha  occ. eigenvalues --  -10.23011 -10.19322 -10.19321 -10.18171  -1.06951
 Alpha  occ. eigenvalues --   -1.03150  -0.82303  -0.77383  -0.67325  -0.66620
 Alpha  occ. eigenvalues --   -0.63897  -0.57011  -0.55325  -0.51882  -0.49443
 Alpha  occ. eigenvalues --   -0.46091  -0.46048  -0.43582  -0.43062  -0.40067
 Alpha  occ. eigenvalues --   -0.38357  -0.37277  -0.36854  -0.34236  -0.31912
 Alpha  occ. eigenvalues --   -0.31096  -0.28566  -0.26298  -0.24812
 Alpha virt. eigenvalues --    0.08610   0.09997   0.11472   0.11809   0.13237
 Alpha virt. eigenvalues --    0.13396   0.14159   0.15311   0.15459   0.16893
 Alpha virt. eigenvalues --    0.17332   0.19268   0.20312   0.20537   0.20750

 Mulliken charges:
               1
     1  C   -0.233375
     2  C   -0.082243
     3  C   -0.078839
     4  O   -0.253414
     5  C   -0.078839
     6  C   -0.082243
     7  C    0.072776
     8  O   -0.275642
     9  C    0.072776
    10  H    0.118252
    11  H    0.089484
    12  H    0.071676
    13  H    0.090480
    14  H    0.108038
    15  H    0.090480
    16  H    0.108038
    17  H    0.071676
    18  H    0.095458
    19  H    0.095459
 Sum of Mulliken charges =   0.00000

 Dipole moment (field-independent basis, Debye):
    X=              1.1032    Y=              0.0000    Z=              0.5766  Tot=              1.2448
 Quadrupole moment (field-independent basis, Debye-Ang):
   XX=            -60.8912   YY=            -48.1573   ZZ=            -52.3284
   XY=              0.0000   XZ=              2.7743   YZ=              0.0000

  Exact polarizability:  71.215   0.000  78.263   2.419   0.000  68.082
 Approx polarizability: 105.423   0.000 115.717   0.480   0.000 102.555

                      1                      2                      3
                      A                      A                      A
 Frequencies --    233.0890               250.3610               329.6767
 Red. masses --      4.6990                 2.6198                 2.3439
 Frc consts  --      0.1504                 0.0968                 0.1501
 IR Inten    --      8.4995                 1.5847                 0.7757

                      4                      5                      6
                      A                      A                      A
 Frequencies --    337.1200               438.1456               460.9833
 Red. masses --      2.8342                 2.6291                 4.2475
 Frc consts  --      0.1898                 0.2974                 0.5318
 IR Inten    --      0.6406                 1.1452                 7.0417

                      7                      8                      9
                      A                      A                      A
 Frequencies --    511.3975               633.4280               762.7484
 Red. masses --      4.9700                 3.3582                 4.6706
 Frc consts  --      0.7658                 0.7939                 1.6010
 IR Inten    --      0.6840                12.0262                 0.5873

                     10                     11                     12
                      A                      A                      A
 Frequencies --    789.5207               825.9758               830.2716
 Red. masses --      3.1938                 3.3712                 2.9951
 Frc consts  --      1.1730                 1.3551                 1.2165
 IR Inten    --      5.1429                 2.6086                 3.1584

                     13                     14                     15
                      A                      A                      A
 Frequencies --    868.6906               875.1590               892.9321
 Red. masses --      2.2912                 3.6364                 3.0260
 Frc consts  --      1.0187                 1.6410                 1.4215
 IR Inten    --     47.3538                 0.4501                 6.0955

                     16                     17                     18
                      A                      A                      A
 Frequencies --    933.7930               937.5282               981.3534
 Red. masses --      1.7382                 2.4814                 1.7376
 Frc consts  --      0.8930                 1.2851                 0.9859
 IR Inten    --      8.7701                 5.5310                 4.1326

                     19                     20                     21
                      A                      A                      A
 Frequencies --   1004.9555              1045.1783              1047.2119
 Red. masses --      1.6056                 2.7762                 1.2816
 Frc consts  --      0.9554                 1.7868                 0.8281
 IR Inten    --      6.3044                 2.2557                 1.0380

                     22                     23                     24
                      A                      A                      A
 Frequencies --   1056.3720              1085.0341              1119.2640
 Red. masses --      2.3143                 2.0645                 1.7557
 Frc consts  --      1.5216                 1.4320                 1.2959
 IR Inten    --      7.6209                53.7888                 7.0451

                     25                     26                     27
                      A                      A                      A
 Frequencies --   1131.0201              1180.7055              1213.6224
 Red. masses --      1.6281                 1.3550                 1.7511
 Frc consts  --      1.2271                 1.1130                 1.5196
 IR Inten    --      8.1964                 6.1507                39.0213

                     28                     29                     30
                      A                      A                      A
 Frequencies --   1243.9161              1252.0230              1276.5286
 Red. masses --      1.4328                 1.3381                 1.3444
 Frc consts  --      1.3062                 1.2359                 1.2907
 IR Inten    --      5.1379                 0.9101                10.3376

                     31                     32                     33
                      A                      A                      A
 Frequencies --   1302.6474              1316.1229              1333.8014
 Red. masses --      1.2798                 1.8532                 1.3308
 Frc consts  --      1.2795                 1.8913                 1.3949
 IR Inten    --      0.5157                 2.9827                 0.2616

                     34                     35                     36
                      A                      A                      A
 Frequencies --   1341.0156              1342.2406              1391.5941
 Red. masses --      1.5372                 1.5846                 1.3451
 Frc consts  --      1.6287                 1.6820                 1.5347
 IR Inten    --      2.8415                 0.4939                 0.7684

                     37                     38                     39
                      A                      A                      A
 Frequencies --   1410.4716              1433.5002              1491.7954
 Red. masses --      1.4805                 2.3388                 1.1184
 Frc consts  --      1.7354                 2.8316                 1.4664
 IR Inten    --     14.2983                 6.3083                 3.7078

                     40                     41                     42
                      A                      A                      A
 Frequencies --   1496.5664              1510.5757              2965.5703
 Red. masses --      1.0814                 1.1061                 1.0699
 Frc consts  --      1.4270                 1.4871                 5.5437
 IR Inten    --      0.1292                 6.4529                41.8587

                     43                     44                     45
                      A                      A                      A
 Frequencies --   2971.2562              3062.1675              3065.0517
 Red. masses --      1.0706                 1.0791                 1.0899
 Frc consts  --      5.5687                 5.9618                 6.0326
 IR Inten    --     87.3517                 6.5679                 0.2291

                     46                     47                     48
                      A                      A                      A
 Frequencies --   3070.7752              3071.1074              3075.7177
 Red. masses --      1.0870                 1.0869                 1.0790
 Frc consts  --      6.0392                 6.0401                 6.0143
 IR Inten    --     95.2997                45.7638                22.8871

                     49                     50                     51
                      A                      A                      A
 Frequencies --   3134.6128              3149.4615              3161.8103
 Red. masses --      1.1008                 1.0868                 1.0961
 Frc consts  --      6.3728                 6.3515                 6.4564
 IR Inten    --     13.3920                18.5262                26.6964

 - Thermochemistry -
 -------------------
 Temperature   298.150 Kelvin.  Pressure   1.00000 Atm.
 Atom     1 has atomic number  6 and mass  12.00000

 Molecular mass:   126.06808 amu.
 Principal axes and moments of inertia in atomic units:
                           1         2         3
     Eigenvalues --   625.52003 990.178431121.31242
           X            0.99982   0.00000   0.01911
           Y            0.00000   1.00000   0.00000
           Z           -0.01911   0.00000   0.99982
 This molecule is an asymmetric top.
 Rotational symmetry number  1.
 Warning -- assumption of classical behavior for rotation
           may cause significant error
 Rotational temperatures (Kelvin)      0.13847     0.08747     0.07724
 Rotational constants (GHZ):           2.88519     1.82264     1.60949
 Zero-point vibrational energy     428537.4 (Joules/Mol)
                                  102.42291 (Kcal/Mol)
 Warning -- explicit consideration of   7 degrees of freedom as
           vibrations may cause significant error
 Vibrational temperatures:    335.36   360.21   474.33   485.04   630.39
          (Kelvin)            663.25   735.79   911.36  1097.42  1135.94
                             1188.39  1194.57  1249.85  1259.16  1284.73
                             1343.52  1348.89  1411.95  1445.90  1503.78
                             1506.70  1519.88  1561.12  1610.37  1627.28
                             1698.77  1746.13  1789.72  1801.38  1836.64
                             1874.22  1893.60  1919.04  1929.42  1931.18
                             2002.19  2029.35  2062.48  2146.36  2153.22
                             2173.38  4266.79  4274.97  4405.77  4409.92
                             4418.16  4418.63  4425.27  4510.00  4531.37
                             4549.13

 Zero-point correction=                           0.163221 (Hartree/Particle)
 Thermal correction to Energy=                    0.169679
 Thermal correction to Enthalpy=                  0.170623
 Thermal correction to Gibbs Free Energy=         0.132779
 Sum of electronic and zero-point Energies=           -423.018108
 Sum of electronic and thermal Energies=              -423.011651
 Sum of electronic and thermal Enthalpies=            -423.010706
 Sum of electronic and thermal Free Energies=         -423.048550

                     E (Thermal)             CV                S
                      KCal/Mol        Cal/Mol-Kelvin    Cal/Mol-Kelvin
 Total                  106.475             27.424             79.649
 Electronic               0.000              0.000              0.000
 Translational            0.889              2.981             40.409
 Rotational               0.889              2.981             28.031
 Vibrational            104.698             21.462             11.209
 Vibration     1          0.654              1.790              1.855
 Vibration     2          0.663              1.762              1.728
 Vibration     3          0.712              1.616              1.262
 Vibration     4          0.718              1.601              1.226
 Vibration     5          0.798              1.387              0.832
 Vibration     6          0.819              1.337              0.763
 Vibration     7          0.867              1.225              0.630

 Optimization completed.
    -- Stationary point found.
 Normal termination of Gaussian 09 at Mon Jan 27 12:11:34 2020.
