 Gaussian 09, Revision D.01,
 Gaussian 09:  ES64L-G09RevD.01 24-Apr-2013

 -----------------------------
 # b3lyp 6-31G(2df,p) opt Freq
 -----------------------------

 -----
 titel
 -----
 Symbolic Z-matrix:
 Charge =  0 Multiplicity = 1

 SCF Done:  E(RB3LYP) =  -423.128382442     A.U. after   12 cycles
 Optimization completed.
    -- Stationary point found.
 Normal termination of Gaussian 09 at Mon Jan 27 23:46:09 2020.

 ----------------------------------------------------------------------
 #N Geom=AllCheck Guess=TCheck SCRF=Check GenChk RB3LYP/6-31G(2df,p) Fr
 eq
 ----------------------------------------------------------------------

 Structure from the checkpoint file:  "/scratch/puck/g09_95b84940-fb36-409f-abbe-4fe022c4f653/Gau-193923.chk"
 -----
 titel
 -----
 Charge =  0 Multiplicity = 1

                         Standard orientation:
 ---------------------------------------------------------------------
 Center     Atomic      Atomic             Coordinates (Angstroms)
 Number     Number       Type             X           Y           Z
 ---------------------------------------------------------------------
      1          6           0       -1.445700   -1.343886    1.237431
      2          6           0       -0.766803   -0.318618    0.390888
      3          6           0       -1.037081    0.179106   -1.022004
      4          6           0       -1.067825    1.639819   -0.578185
      5          6           0       -0.238607    1.162515    0.643000
      6          6           0        1.131564    0.728626    0.031552
      7          8           0        2.088039    0.280112    0.964827
      8          6           0        0.339710   -0.394822   -0.632973
      9          8           0        0.834742   -1.563813   -1.174860
     10          1           0       -1.581113   -2.272383    0.672812
     11          1           0       -0.860550   -1.584042    2.133095
     12          1           0       -2.433713   -1.005890    1.570326
     13          1           0       -1.624974   -0.322007   -1.782706
     14          1           0       -0.613422    2.400425   -1.224770
     15          1           0       -2.076877    1.957495   -0.299354
     16          1           0       -0.241730    1.689491    1.594991
     17          1           0        1.638996    1.472377   -0.595245
     18          1           0        1.812258   -0.589247    1.276569
     19          1           0        1.107330   -1.393047   -2.083710
 ---------------------------------------------------------------------

 SCF Done:  E(RB3LYP) =  -423.128382442     A.U. after    1 cycles

 The electronic state is 1-A.
 Alpha  occ. eigenvalues --  -19.15473 -19.13096 -10.23481 -10.22643 -10.19527
 Alpha  occ. eigenvalues --  -10.18987 -10.18844 -10.18504 -10.18458  -1.04286
 Alpha  occ. eigenvalues --   -1.01314  -0.91864  -0.73780  -0.70339  -0.69378
 Alpha  occ. eigenvalues --   -0.61083  -0.57639  -0.53498  -0.51193  -0.46755
 Alpha  occ. eigenvalues --   -0.46257  -0.44373  -0.43392  -0.41553  -0.40389
 Alpha  occ. eigenvalues --   -0.39013  -0.36938  -0.35160  -0.33518  -0.31956
 Alpha  occ. eigenvalues --   -0.30839  -0.26470  -0.23843  -0.23585
 Alpha virt. eigenvalues --    0.06702   0.09006   0.10697   0.11471   0.12341
 Alpha virt. eigenvalues --    0.13162   0.13984   0.14942   0.16230   0.16644
 Alpha virt. eigenvalues --    0.18146   0.18603   0.21387   0.21838   0.22092

 Mulliken charges:
               1
     1  C   -0.531208
     2  C    0.281122
     3  C   -0.188126
     4  C   -0.246654
     5  C   -0.147253
     6  C    0.096124
     7  O   -0.449774
     8  C    0.284964
     9  O   -0.466919
    10  H    0.134030
    11  H    0.118298
    12  H    0.122717
    13  H    0.084700
    14  H    0.087600
    15  H    0.100730
    16  H    0.076294
    17  H    0.069592
    18  H    0.285563
    19  H    0.288200
 Sum of Mulliken charges =   0.00000

 Dipole moment (field-independent basis, Debye):
    X=             -1.4410    Y=             -0.2086    Z=             -1.0431  Tot=              1.7911
 Quadrupole moment (field-independent basis, Debye-Ang):
   XX=            -56.6783   YY=            -54.0274   ZZ=            -48.2186
   XY=             -1.1585   XZ=             -3.1459   YZ=             -0.8988

  Exact polarizability:  75.266  -0.476  76.784  -1.150  -2.629  73.606
 Approx polarizability: 109.142  -1.938 110.455  -0.738  -2.461 111.761

                      1                      2                      3
                      A                      A                      A
 Frequencies --    140.2438               167.0527               175.6675
 Red. masses --      2.9288                 1.3996                 2.5361
 Frc consts  --      0.0339                 0.0230                 0.0461
 IR Inten    --     13.2038                39.6950                 0.8898

                      4                      5                      6
                      A                      A                      A
 Frequencies --    194.7764               251.4090               294.7421
 Red. masses --      1.1234                 2.1892                 1.9638
 Frc consts  --      0.0251                 0.0815                 0.1005
 IR Inten    --      0.8322                23.6936                41.0621

                      7                      8                      9
                      A                      A                      A
 Frequencies --    305.0923               347.8929               411.3654
 Red. masses --      2.4199                 1.6298                 4.1502
 Frc consts  --      0.1327                 0.1162                 0.4138
 IR Inten    --     16.6826                44.5766                 5.1315

                     10                     11                     12
                      A                      A                      A
 Frequencies --    489.5903               541.8806               616.9343
 Red. masses --      2.9546                 3.7288                 4.4177
 Frc consts  --      0.4173                 0.6451                 0.9907
 IR Inten    --      2.3459                 2.1303                 6.3484

                     13                     14                     15
                      A                      A                      A
 Frequencies --    674.7623               723.3247               816.6229
 Red. masses --      4.5829                 3.0711                 3.5650
 Frc consts  --      1.2294                 0.9467                 1.4007
 IR Inten    --      3.0522                 2.5363                13.1837

                     16                     17                     18
                      A                      A                      A
 Frequencies --    843.2370               893.1498               912.2534
 Red. masses --      2.5213                 2.3817                 2.3356
 Frc consts  --      1.0563                 1.1194                 1.1452
 IR Inten    --      5.1454                 8.9013                 3.0739

                     19                     20                     21
                      A                      A                      A
 Frequencies --    931.5361               947.7446               984.2756
 Red. masses --      1.2739                 2.0162                 1.9082
 Frc consts  --      0.6513                 1.0670                 1.0892
 IR Inten    --      4.6574                 4.3910                 3.7381

                     22                     23                     24
                      A                      A                      A
 Frequencies --   1037.6862              1069.0278              1095.5158
 Red. masses --      1.6159                 2.3378                 1.6979
 Frc consts  --      1.0252                 1.5741                 1.2006
 IR Inten    --      4.4351                69.1968                 2.1775

                     25                     26                     27
                      A                      A                      A
 Frequencies --   1118.6107              1136.8307              1155.4737
 Red. masses --      1.8993                 1.6474                 2.0937
 Frc consts  --      1.4003                 1.2544                 1.6470
 IR Inten    --     17.9899                60.3678                 4.7949

                     28                     29                     30
                      A                      A                      A
 Frequencies --   1173.8584              1204.9143              1237.1915
 Red. masses --      2.0894                 1.6314                 1.8996
 Frc consts  --      1.6963                 1.3955                 1.7131
 IR Inten    --      0.9908                 3.6524                 6.0123

                     31                     32                     33
                      A                      A                      A
 Frequencies --   1242.5747              1280.6824              1284.2134
 Red. masses --      1.9336                 1.5569                 1.6081
 Frc consts  --      1.7590                 1.5045                 1.5626
 IR Inten    --     50.8751                11.2327                40.0051

                     34                     35                     36
                      A                      A                      A
 Frequencies --   1307.0762              1349.1926              1411.5386
 Red. masses --      1.4412                 2.6981                 1.2322
 Frc consts  --      1.4507                 2.8937                 1.4465
 IR Inten    --     50.5146                29.7977                 9.3967

                     37                     38                     39
                      A                      A                      A
 Frequencies --   1433.3230              1481.9966              1491.5697
 Red. masses --      1.5447                 1.1639                 1.5005
 Frc consts  --      1.8698                 1.5061                 1.9669
 IR Inten    --     58.8450                 0.3534                12.2925

                     40                     41                     42
                      A                      A                      A
 Frequencies --   1499.1160              1508.5927              3020.1386
 Red. masses --      1.1435                 1.5564                 1.0370
 Frc consts  --      1.5141                 2.0869                 5.5728
 IR Inten    --      5.3397                15.6875                55.8014

                     43                     44                     45
                      A                      A                      A
 Frequencies --   3023.6088              3034.9132              3076.0852
 Red. masses --      1.0636                 1.0803                 1.1007
 Frc consts  --      5.7291                 5.8626                 6.1364
 IR Inten    --     26.5885                89.6162                21.2348

                     46                     47                     48
                      A                      A                      A
 Frequencies --   3085.3059              3096.0994              3140.0371
 Red. masses --      1.1038                 1.0997                 1.0916
 Frc consts  --      6.1906                 6.2111                 6.3413
 IR Inten    --     33.0175                15.5910                24.3169

                     49                     50                     51
                      A                      A                      A
 Frequencies --   3180.2918              3785.2723              3800.5483
 Red. masses --      1.0923                 1.0660                 1.0655
 Frc consts  --      6.5093                 8.9994                 9.0677
 IR Inten    --     17.1235                22.9441                14.3907

 - Thermochemistry -
 -------------------
 Temperature   298.150 Kelvin.  Pressure   1.00000 Atm.
 Atom     1 has atomic number  6 and mass  12.00000

 Molecular mass:   126.06808 amu.
 Principal axes and moments of inertia in atomic units:
                           1         2         3
     Eigenvalues --   895.521301017.408951171.16683
           X            0.99797   0.03655  -0.05209
           Y           -0.04300   0.99077  -0.12857
           Z            0.04691   0.13055   0.99033
 This molecule is an asymmetric top.
 Rotational symmetry number  1.
 Warning -- assumption of classical behavior for rotation
           may cause significant error
 Rotational temperatures (Kelvin)      0.09672     0.08513     0.07396
 Rotational constants (GHZ):           2.01530     1.77386     1.54098
 Zero-point vibrational energy     415252.8 (Joules/Mol)
                                   99.24779 (Kcal/Mol)
 Warning -- explicit consideration of  12 degrees of freedom as
           vibrations may cause significant error
 Vibrational temperatures:    201.78   240.35   252.75   280.24   361.72
          (Kelvin)            424.07   438.96   500.54   591.86   704.41
                              779.64   887.63   970.83  1040.70  1174.94
                             1213.23  1285.04  1312.53  1340.27  1363.59
                             1416.15  1493.00  1538.09  1576.20  1609.43
                             1635.64  1662.47  1688.92  1733.60  1780.04
                             1787.79  1842.61  1847.69  1880.59  1941.18
                             2030.89  2062.23  2132.26  2146.03  2156.89
                             2170.53  4345.30  4350.29  4366.56  4425.79
                             4439.06  4454.59  4517.81  4575.72  5446.16
                             5468.13

 Zero-point correction=                           0.158161 (Hartree/Particle)
 Thermal correction to Energy=                    0.166900
 Thermal correction to Enthalpy=                  0.167844
 Thermal correction to Gibbs Free Energy=         0.125399
 Sum of electronic and zero-point Energies=           -422.970221
 Sum of electronic and thermal Energies=              -422.961482
 Sum of electronic and thermal Enthalpies=            -422.960538
 Sum of electronic and thermal Free Energies=         -423.002983

                     E (Thermal)             CV                S
                      KCal/Mol        Cal/Mol-Kelvin    Cal/Mol-Kelvin
 Total                  104.731             33.741             89.334
 Electronic               0.000              0.000              0.000
 Translational            0.889              2.981             40.409
 Rotational               0.889              2.981             28.458
 Vibrational            102.954             27.779             20.467
 Vibration     1          0.615              1.913              2.801
 Vibration     2          0.624              1.883              2.468
 Vibration     3          0.628              1.872              2.374
 Vibration     4          0.635              1.847              2.182
 Vibration     5          0.663              1.760              1.721
 Vibration     6          0.689              1.684              1.447
 Vibration     7          0.696              1.664              1.389
 Vibration     8          0.726              1.580              1.176
 Vibration     9          0.775              1.446              0.922
 Vibration    10          0.845              1.273              0.685
 Vibration    11          0.897              1.157              0.561
 Vibration    12          0.977              0.996              0.421

 Optimization completed.
    -- Stationary point found.
 Normal termination of Gaussian 09 at Tue Jan 28 00:31:40 2020.
