 Gaussian 09, Revision D.01,
 Gaussian 09:  ES64L-G09RevD.01 24-Apr-2013

 -----------------------------
 # b3lyp 6-31G(2df,p) opt Freq
 -----------------------------

 -----
 titel
 -----
 Symbolic Z-matrix:
 Charge =  0 Multiplicity = 1

 SCF Done:  E(RB3LYP) =  -423.194450916     A.U. after   14 cycles
 Optimization completed.
    -- Stationary point found.
 Normal termination of Gaussian 09 at Mon Jan 27 13:34:08 2020.

 ----------------------------------------------------------------------
 #N Geom=AllCheck Guess=TCheck SCRF=Check GenChk RB3LYP/6-31G(2df,p) Fr
 eq
 ----------------------------------------------------------------------

 Structure from the checkpoint file:  "/scratch/puck/g09_13cceec7-bacf-463c-b04c-09288e02882c/Gau-46329.chk"
 -----
 titel
 -----
 Charge =  0 Multiplicity = 1

                         Standard orientation:
 ---------------------------------------------------------------------
 Center     Atomic      Atomic             Coordinates (Angstroms)
 Number     Number       Type             X           Y           Z
 ---------------------------------------------------------------------
      1          8           0       -2.691684    0.238267   -0.538432
      2          6           0       -1.939944   -0.674901   -0.313173
      3          6           0       -0.704353   -0.596786    0.569189
      4          6           0       -0.398310    0.823537    1.065874
      5          6           0        0.249204    1.673255   -0.036066
      6          6           0        1.598235    1.100332   -0.503059
      7          6           0        1.585919   -0.409621   -0.662508
      8          8           0        1.721665   -1.178211    0.546657
      9          6           0        0.479031   -1.234820   -0.145700
     10          1           0       -2.130117   -1.685778   -0.745053
     11          1           0       -0.939698   -1.252832    1.424778
     12          1           0       -1.330856    1.288180    1.396119
     13          1           0        0.269534    0.757424    1.930498
     14          1           0       -0.441182    1.728495   -0.884903
     15          1           0        0.389172    2.699902    0.317075
     16          1           0        1.888213    1.557129   -1.455514
     17          1           0        2.389241    1.348851    0.215037
     18          1           0        2.172778   -0.811906   -1.488477
     19          1           0        0.274364   -2.195889   -0.622711
 ---------------------------------------------------------------------

 SCF Done:  E(RB3LYP) =  -423.194450916     A.U. after    1 cycles

 The electronic state is 1-A.
 Alpha  occ. eigenvalues --  -19.15345 -19.14820 -10.27827 -10.24715 -10.24141
 Alpha  occ. eigenvalues --  -10.20632 -10.18939 -10.18484 -10.18386  -1.07573
 Alpha  occ. eigenvalues --   -1.05470  -0.82246  -0.77303  -0.70828  -0.63699
 Alpha  occ. eigenvalues --   -0.62836  -0.58978  -0.53365  -0.52305  -0.48290
 Alpha  occ. eigenvalues --   -0.47083  -0.45607  -0.44039  -0.41416  -0.41302
 Alpha  occ. eigenvalues --   -0.39468  -0.38429  -0.37219  -0.34720  -0.33440
 Alpha  occ. eigenvalues --   -0.32236  -0.29440  -0.27446  -0.25366
 Alpha virt. eigenvalues --   -0.02909   0.08492   0.08928   0.10756   0.11265
 Alpha virt. eigenvalues --    0.12403   0.14472   0.14903   0.15620   0.15894
 Alpha virt. eigenvalues --    0.17300   0.18146   0.18922   0.21266   0.22684

 Mulliken charges:
               1
     1  O   -0.240920
     2  C    0.150116
     3  C   -0.121173
     4  C   -0.221338
     5  C   -0.208885
     6  C   -0.224033
     7  C    0.050847
     8  O   -0.260685
     9  C    0.043017
    10  H    0.079812
    11  H    0.108996
    12  H    0.115051
    13  H    0.109350
    14  H    0.117789
    15  H    0.098862
    16  H    0.101847
    17  H    0.117469
    18  H    0.094236
    19  H    0.089643
 Sum of Mulliken charges =   0.00000

 Dipole moment (field-independent basis, Debye):
    X=              0.8031    Y=             -0.5422    Z=             -0.4666  Tot=              1.0754
 Quadrupole moment (field-independent basis, Debye-Ang):
   XX=            -61.2853   YY=            -51.4549   ZZ=            -52.2534
   XY=              6.0773   XZ=             -4.9894   YZ=              1.9643

  Exact polarizability:  80.327   2.308  77.838  -1.715   1.168  64.691
 Approx polarizability: 114.347  -3.138 113.614   3.382  -3.561 101.524

                      1                      2                      3
                      A                      A                      A
 Frequencies --     75.6191               117.0904               193.5788
 Red. masses --      4.8553                 2.8192                 3.0436
 Frc consts  --      0.0164                 0.0228                 0.0672
 IR Inten    --      5.7704                 5.5456                 3.2653

                      4                      5                      6
                      A                      A                      A
 Frequencies --    231.8264               312.1897               361.3384
 Red. masses --      2.8316                 2.1623                 3.2638
 Frc consts  --      0.0897                 0.1242                 0.2511
 IR Inten    --      2.1745                 6.9026                 4.7060

                      7                      8                      9
                      A                      A                      A
 Frequencies --    407.8241               427.4806               523.8635
 Red. masses --      5.9550                 2.5310                 3.6366
 Frc consts  --      0.5835                 0.2725                 0.5880
 IR Inten    --      2.9146                 0.4315                 7.3710

                     10                     11                     12
                      A                      A                      A
 Frequencies --    658.9806               691.9673               757.4197
 Red. masses --      2.9767                 2.1887                 3.0620
 Frc consts  --      0.7616                 0.6175                 1.0350
 IR Inten    --      6.6299                 7.1443                 6.3897

                     13                     14                     15
                      A                      A                      A
 Frequencies --    785.8658               819.7095               876.4612
 Red. masses --      3.6262                 2.4793                 2.4723
 Frc consts  --      1.3195                 0.9815                 1.1190
 IR Inten    --      5.6569                32.9217                 0.3546

                     16                     17                     18
                      A                      A                      A
 Frequencies --    886.4935               926.4319               956.8592
 Red. masses --      1.8844                 2.3502                 2.7536
 Frc consts  --      0.8725                 1.1884                 1.4854
 IR Inten    --      7.9108                27.3035                 1.0069

                     19                     20                     21
                      A                      A                      A
 Frequencies --   1009.4011              1027.6917              1052.0753
 Red. masses --      2.2061                 2.0925                 1.5169
 Frc consts  --      1.3244                 1.3021                 0.9893
 IR Inten    --      5.2316                 5.0178                 0.4698

                     22                     23                     24
                      A                      A                      A
 Frequencies --   1070.8522              1094.0494              1133.5323
 Red. masses --      1.5252                 1.4352                 1.8323
 Frc consts  --      1.0305                 1.0121                 1.3871
 IR Inten    --      5.3397                 0.6829                13.2965

                     25                     26                     27
                      A                      A                      A
 Frequencies --   1164.5654              1198.2853              1220.4812
 Red. masses --      1.4879                 1.2420                 1.7098
 Frc consts  --      1.1889                 1.0508                 1.5005
 IR Inten    --      1.7118                 1.8884                 2.6389

                     28                     29                     30
                      A                      A                      A
 Frequencies --   1273.0922              1298.1768              1305.3147
 Red. masses --      1.3710                 1.2883                 1.3377
 Frc consts  --      1.3092                 1.2792                 1.3428
 IR Inten    --      4.4754                 2.3113                 3.2939

                     31                     32                     33
                      A                      A                      A
 Frequencies --   1327.4509              1356.5545              1372.5930
 Red. masses --      1.9023                 1.2922                 1.4504
 Frc consts  --      1.9749                 1.4011                 1.6100
 IR Inten    --      3.7776                 0.9854                 2.5198

                     34                     35                     36
                      A                      A                      A
 Frequencies --   1387.0913              1400.2223              1432.0880
 Red. masses --      1.4239                 1.4044                 1.2417
 Frc consts  --      1.6141                 1.6224                 1.5003
 IR Inten    --      2.3652                 9.6058                 3.2538

                     37                     38                     39
                      A                      A                      A
 Frequencies --   1462.5213              1479.5824              1481.6149
 Red. masses --      1.5650                 1.1597                 1.4336
 Frc consts  --      1.9723                 1.4958                 1.8542
 IR Inten    --      7.0767                 8.1856                 9.6511

                     40                     41                     42
                      A                      A                      A
 Frequencies --   1502.6727              1829.5072              2853.3581
 Red. masses --      1.1104                10.5492                 1.0820
 Frc consts  --      1.4773                20.8037                 5.1905
 IR Inten    --      6.5708               135.9558               119.6049

                     43                     44                     45
                      A                      A                      A
 Frequencies --   2969.9608              3032.4275              3044.9469
 Red. masses --      1.0803                 1.0612                 1.0629
 Frc consts  --      5.6142                 5.7496                 5.8061
 IR Inten    --     20.5055                21.1014                18.6932

                     46                     47                     48
                      A                      A                      A
 Frequencies --   3055.7261              3070.5160              3080.3221
 Red. masses --      1.0635                 1.0974                 1.0858
 Frc consts  --      5.8507                 6.0960                 6.0701
 IR Inten    --     17.1053                18.1717                35.7233

                     49                     50                     51
                      A                      A                      A
 Frequencies --   3088.6696              3106.3409              3109.3475
 Red. masses --      1.1012                 1.1018                 1.0919
 Frc consts  --      6.1894                 6.2641                 6.2195
 IR Inten    --     29.0639                25.4813                43.7281

 - Thermochemistry -
 -------------------
 Temperature   298.150 Kelvin.  Pressure   1.00000 Atm.
 Atom     1 has atomic number  8 and mass  15.99491

 Molecular mass:   126.06808 amu.
 Principal axes and moments of inertia in atomic units:
                           1         2         3
     Eigenvalues --   665.725751262.069911567.19306
           X            0.99871   0.04504  -0.02357
           Y           -0.04435   0.99860   0.02871
           Z            0.02483  -0.02763   0.99931
 This molecule is an asymmetric top.
 Rotational symmetry number  1.
 Warning -- assumption of classical behavior for rotation
           may cause significant error
 Rotational temperatures (Kelvin)      0.13010     0.06863     0.05527
 Rotational constants (GHZ):           2.71094     1.42999     1.15158
 Zero-point vibrational energy     420499.5 (Joules/Mol)
                                  100.50180 (Kcal/Mol)
 Warning -- explicit consideration of   9 degrees of freedom as
           vibrations may cause significant error
 Vibrational temperatures:    108.80   168.47   278.52   333.55   449.17
          (Kelvin)            519.88   586.77   615.05   753.72   948.12
                              995.59  1089.76  1130.68  1179.38  1261.03
                             1275.46  1332.93  1376.71  1452.30  1478.62
                             1513.70  1540.72  1574.09  1630.90  1675.55
                             1724.06  1756.00  1831.69  1867.78  1878.05
                             1909.90  1951.78  1974.85  1995.71  2014.61
                             2060.45  2104.24  2128.79  2131.71  2162.01
                             2632.25  4105.34  4273.11  4362.98  4380.99
                             4396.50  4417.78  4431.89  4443.90  4469.33
                             4473.65

 Zero-point correction=                           0.160160 (Hartree/Particle)
 Thermal correction to Energy=                    0.168140
 Thermal correction to Enthalpy=                  0.169085
 Thermal correction to Gibbs Free Energy=         0.127348
 Sum of electronic and zero-point Energies=           -423.034291
 Sum of electronic and thermal Energies=              -423.026311
 Sum of electronic and thermal Enthalpies=            -423.025366
 Sum of electronic and thermal Free Energies=         -423.067103

                     E (Thermal)             CV                S
                      KCal/Mol        Cal/Mol-Kelvin    Cal/Mol-Kelvin
 Total                  105.510             30.476             87.843
 Electronic               0.000              0.000              0.000
 Translational            0.889              2.981             40.409
 Rotational               0.889              2.981             28.667
 Vibrational            103.732             24.514             18.767
 Vibration     1          0.599              1.965              4.001
 Vibration     2          0.608              1.935              3.148
 Vibration     3          0.635              1.849              2.193
 Vibration     4          0.653              1.792              1.865
 Vibration     5          0.701              1.650              1.351
 Vibration     6          0.736              1.552              1.116
 Vibration     7          0.772              1.453              0.934
 Vibration     8          0.789              1.410              0.867
 Vibration     9          0.879              1.197              0.601

 Optimization completed.
    -- Stationary point found.
 Normal termination of Gaussian 09 at Mon Jan 27 14:16:20 2020.
