 Gaussian 09, Revision D.01,
 Gaussian 09:  ES64L-G09RevD.01 24-Apr-2013

 -----------------------------
 # b3lyp 6-31G(2df,p) opt Freq
 -----------------------------

 -----
 titel
 -----
 Symbolic Z-matrix:
 Charge =  0 Multiplicity = 1

 SCF Done:  E(RB3LYP) =  -423.171185855     A.U. after   14 cycles
 Optimization completed.
    -- Stationary point found.
 Normal termination of Gaussian 09 at Mon Jan 27 14:06:50 2020.

 ----------------------------------------------------------------------
 #N Geom=AllCheck Guess=TCheck SCRF=Check GenChk RB3LYP/6-31G(2df,p) Fr
 eq
 ----------------------------------------------------------------------

 Structure from the checkpoint file:  "/scratch/puck/g09_5e2e1a51-ca8d-411c-b65f-ad56cae30b92/Gau-171795.chk"
 -----
 titel
 -----
 Charge =  0 Multiplicity = 1

                         Standard orientation:
 ---------------------------------------------------------------------
 Center     Atomic      Atomic             Coordinates (Angstroms)
 Number     Number       Type             X           Y           Z
 ---------------------------------------------------------------------
      1          6           0       -2.447720   -0.644901   -0.518186
      2          6           0       -1.424202    0.316174    0.044181
      3          8           0       -1.635659    1.503258    0.201242
      4          6           0       -0.102669   -0.254623    0.384820
      5          6           0        0.854318    0.332826    1.391249
      6          6           0        1.294282    0.227350   -0.041014
      7          6           0        1.686983    1.399637   -0.888433
      8          6           0        1.524355   -1.249171   -0.369032
      9          8           0        0.212929   -1.626646    0.133953
     10          1           0       -3.371239   -0.108999   -0.738749
     11          1           0       -2.058174   -1.125192   -1.421681
     12          1           0       -2.638610   -1.451947    0.197839
     13          1           0        0.597045    1.334433    1.717919
     14          1           0        1.251765   -0.334546    2.151234
     15          1           0        1.593075    1.170034   -1.955186
     16          1           0        1.042622    2.256214   -0.670193
     17          1           0        2.724385    1.698025   -0.697231
     18          1           0        1.594674   -1.447600   -1.444913
     19          1           0        2.334204   -1.767060    0.157891
 ---------------------------------------------------------------------

 SCF Done:  E(RB3LYP) =  -423.171185855     A.U. after    1 cycles

 The electronic state is 1-A.
 Alpha  occ. eigenvalues --  -19.14911 -19.12346 -10.26940 -10.24625 -10.24409
 Alpha  occ. eigenvalues --  -10.21807 -10.19833 -10.18948 -10.18417  -1.06381
 Alpha  occ. eigenvalues --   -1.03224  -0.85035  -0.75669  -0.73127  -0.69178
 Alpha  occ. eigenvalues --   -0.63071  -0.58369  -0.50540  -0.49067  -0.48466
 Alpha  occ. eigenvalues --   -0.46680  -0.43863  -0.43126  -0.42272  -0.41361
 Alpha  occ. eigenvalues --   -0.40276  -0.39988  -0.38647  -0.36077  -0.34251
 Alpha  occ. eigenvalues --   -0.32530  -0.28653  -0.24605  -0.23757
 Alpha virt. eigenvalues --   -0.01978   0.07665   0.09301   0.11543   0.12502
 Alpha virt. eigenvalues --    0.13227   0.14028   0.14258   0.15883   0.16363
 Alpha virt. eigenvalues --    0.16862   0.17727   0.18530   0.19768   0.21497

 Mulliken charges:
               1
     1  C   -0.480399
     2  C    0.294655
     3  O   -0.329898
     4  C    0.315906
     5  C   -0.371278
     6  C    0.215159
     7  C   -0.494388
     8  C   -0.135140
     9  O   -0.329302
    10  H    0.136723
    11  H    0.145905
    12  H    0.149856
    13  H    0.143895
    14  H    0.118321
    15  H    0.120844
    16  H    0.152415
    17  H    0.126104
    18  H    0.110754
    19  H    0.109869
 Sum of Mulliken charges =   0.00000

 Dipole moment (field-independent basis, Debye):
    X=              1.8625    Y=             -0.9754    Z=             -0.7231  Tot=              2.2234
 Quadrupole moment (field-independent basis, Debye-Ang):
   XX=            -50.5400   YY=            -58.6431   ZZ=            -50.9052
   XY=              3.6164   XZ=              0.4132   YZ=              0.3667

  Exact polarizability:  88.804  -0.946  75.724   0.957   2.548  67.941
 Approx polarizability: 122.114  -5.063 119.023  -0.589   5.370 100.882

                      1                      2                      3
                      A                      A                      A
 Frequencies --     67.5018               107.0064               126.2446
 Red. masses --      3.4401                 1.9660                 1.4131
 Frc consts  --      0.0092                 0.0133                 0.0133
 IR Inten    --      5.1353                 2.0392                 1.0772

                      4                      5                      6
                      A                      A                      A
 Frequencies --    171.1961               195.2565               261.0687
 Red. masses --      2.5058                 1.1445                 3.1738
 Frc consts  --      0.0433                 0.0257                 0.1274
 IR Inten    --      2.1763                 0.2582                 6.5325

                      7                      8                      9
                      A                      A                      A
 Frequencies --    331.5815               367.6366               405.3670
 Red. masses --      2.4303                 3.2499                 2.7832
 Frc consts  --      0.1574                 0.2588                 0.2695
 IR Inten    --      1.1101                 3.3824                 2.0484

                     10                     11                     12
                      A                      A                      A
 Frequencies --    445.1668               508.1311               601.2068
 Red. masses --      2.8877                 3.8250                 2.5299
 Frc consts  --      0.3372                 0.5819                 0.5388
 IR Inten    --      3.3694                 3.4993                 4.9760

                     13                     14                     15
                      A                      A                      A
 Frequencies --    609.7684               679.6830               779.3305
 Red. masses --      3.5449                 3.5942                 3.7497
 Frc consts  --      0.7766                 0.9783                 1.3418
 IR Inten    --      8.4781                 2.5712                 9.4382

                     16                     17                     18
                      A                      A                      A
 Frequencies --    809.5079               922.6812               936.8006
 Red. masses --      4.3525                 1.6444                 2.3051
 Frc consts  --      1.6805                 0.8248                 1.1919
 IR Inten    --      5.4658                 5.9511                23.7270

                     19                     20                     21
                      A                      A                      A
 Frequencies --    963.1097               966.0012               994.1825
 Red. masses --      1.4016                 2.0518                 3.1478
 Frc consts  --      0.7660                 1.1281                 1.8331
 IR Inten    --      5.2160                14.8403                70.9923

                     22                     23                     24
                      A                      A                      A
 Frequencies --   1033.9197              1045.7461              1064.2931
 Red. masses --      1.6059                 1.8352                 1.3820
 Frc consts  --      1.0114                 1.1824                 0.9223
 IR Inten    --      0.1886                 3.8074                 3.7553

                     25                     26                     27
                      A                      A                      A
 Frequencies --   1099.3789              1133.3573              1153.7820
 Red. masses --      1.8880                 2.1794                 3.0804
 Frc consts  --      1.3445                 1.6494                 2.4160
 IR Inten    --     15.3300                 6.1364                91.3583

                     28                     29                     30
                      A                      A                      A
 Frequencies --   1162.7992              1271.7515              1286.5809
 Red. masses --      1.2480                 3.4609                 1.8954
 Frc consts  --      0.9942                 3.2980                 1.8486
 IR Inten    --      1.9050                45.8259                13.6918

                     31                     32                     33
                      A                      A                      A
 Frequencies --   1359.1231              1380.8429              1398.7171
 Red. masses --      2.0828                 1.4051                 1.4946
 Frc consts  --      2.2669                 1.5785                 1.7228
 IR Inten    --     15.2345                13.4672                66.4114

                     34                     35                     36
                      A                      A                      A
 Frequencies --   1426.3991              1454.7704              1466.7825
 Red. masses --      1.4892                 1.0616                 1.0505
 Frc consts  --      1.7852                 1.3237                 1.3316
 IR Inten    --     20.1036                16.9903                10.0657

                     37                     38                     39
                      A                      A                      A
 Frequencies --   1476.3039              1489.3889              1496.9537
 Red. masses --      1.7251                 1.0484                 1.0720
 Frc consts  --      2.2152                 1.3703                 1.4153
 IR Inten    --     21.9495                 3.9684                 3.9961

                     40                     41                     42
                      A                      A                      A
 Frequencies --   1516.7182              1774.8820              3021.9326
 Red. masses --      1.1418                10.7279                 1.0527
 Frc consts  --      1.5475                19.9115                 5.6640
 IR Inten    --      5.5235               129.4667                52.9469

                     43                     44                     45
                      A                      A                      A
 Frequencies --   3028.5207              3042.9311              3073.6156
 Red. masses --      1.0385                 1.0360                 1.1115
 Frc consts  --      5.6121                 5.6519                 6.1866
 IR Inten    --     44.1142                 1.0239                28.9061

                     46                     47                     48
                      A                      A                      A
 Frequencies --   3088.4975              3103.7253              3113.1160
 Red. masses --      1.1004                 1.0972                 1.0991
 Frc consts  --      6.1845                 6.2271                 6.2758
 IR Inten    --     22.6679                 4.6996                 8.3512

                     49                     50                     51
                      A                      A                      A
 Frequencies --   3118.0519              3158.1158              3224.8689
 Red. masses --      1.0564                 1.1037                 1.1149
 Frc consts  --      6.0510                 6.4855                 6.8317
 IR Inten    --     10.6582                10.6162                 2.2447

 - Thermochemistry -
 -------------------
 Temperature   298.150 Kelvin.  Pressure   1.00000 Atm.
 Atom     1 has atomic number  6 and mass  12.00000

 Molecular mass:   126.06808 amu.
 Principal axes and moments of inertia in atomic units:
                           1         2         3
     Eigenvalues --   736.978101188.049631514.79205
           X            0.99731   0.07320   0.00402
           Y           -0.07320   0.99732  -0.00185
           Z           -0.00415   0.00155   0.99999
 This molecule is an asymmetric top.
 Rotational symmetry number  1.
 Warning -- assumption of classical behavior for rotation
           may cause significant error
 Rotational temperatures (Kelvin)      0.11753     0.07290     0.05718
 Rotational constants (GHZ):           2.44884     1.51908     1.19141
 Zero-point vibrational energy     411002.8 (Joules/Mol)
                                   98.23201 (Kcal/Mol)
 Warning -- explicit consideration of  13 degrees of freedom as
           vibrations may cause significant error
 Vibrational temperatures:     97.12   153.96   181.64   246.31   280.93
          (Kelvin)            375.62   477.07   528.95   583.23   640.49
                              731.09   865.00   877.32   977.91  1121.28
                             1164.70  1327.53  1347.85  1385.70  1389.86
                             1430.41  1487.58  1504.59  1531.28  1581.76
                             1630.65  1660.03  1673.01  1829.76  1851.10
                             1955.47  1986.72  2012.44  2052.27  2093.09
                             2110.37  2124.07  2142.90  2153.78  2182.22
                             2553.66  4347.88  4357.36  4378.09  4422.24
                             4443.65  4465.56  4479.07  4486.18  4543.82
                             4639.86

 Zero-point correction=                           0.156543 (Hartree/Particle)
 Thermal correction to Energy=                    0.165823
 Thermal correction to Enthalpy=                  0.166767
 Thermal correction to Gibbs Free Energy=         0.122353
 Sum of electronic and zero-point Energies=           -423.014643
 Sum of electronic and thermal Energies=              -423.005363
 Sum of electronic and thermal Enthalpies=            -423.004419
 Sum of electronic and thermal Free Energies=         -423.048833

                     E (Thermal)             CV                S
                      KCal/Mol        Cal/Mol-Kelvin    Cal/Mol-Kelvin
 Total                  104.055             34.099             93.478
 Electronic               0.000              0.000              0.000
 Translational            0.889              2.981             40.409
 Rotational               0.889              2.981             28.674
 Vibrational            102.278             28.137             24.395
 Vibration     1          0.598              1.970              4.225
 Vibration     2          0.606              1.944              3.323
 Vibration     3          0.611              1.927              3.002
 Vibration     4          0.626              1.878              2.422
 Vibration     5          0.636              1.846              2.177
 Vibration     6          0.669              1.744              1.655
 Vibration     7          0.714              1.612              1.252
 Vibration     8          0.740              1.539              1.090
 Vibration     9          0.770              1.459              0.943
 Vibration    10          0.805              1.372              0.811
 Vibration    11          0.863              1.232              0.638
 Vibration    12          0.959              1.029              0.448
 Vibration    13          0.969              1.011              0.433

 Normal termination of Gaussian 09 at Mon Jan 27 14:49:55 2020.
