 Gaussian 09, Revision D.01,
 Gaussian 09:  ES64L-G09RevD.01 24-Apr-2013

 -----------------------------
 # b3lyp 6-31G(2df,p) opt Freq
 -----------------------------

 -----
 titel
 -----
 Symbolic Z-matrix:
 Charge =  0 Multiplicity = 1

 SCF Done:  E(RB3LYP) =  -423.072849132     A.U. after   14 cycles
 Optimization completed.
    -- Stationary point found.
 Normal termination of Gaussian 09 at Tue Jan 28 13:09:56 2020.

 ----------------------------------------------------------------------
 #N Geom=AllCheck Guess=TCheck SCRF=Check GenChk RB3LYP/6-31G(2df,p) Fr
 eq
 ----------------------------------------------------------------------

 Structure from the checkpoint file:  "/scratch/puck/g09_2ecd8340-b28f-4a3e-9e99-c721fefb1383/Gau-7416.chk"
 -----
 titel
 -----
 Charge =  0 Multiplicity = 1

                         Standard orientation:
 ---------------------------------------------------------------------
 Center     Atomic      Atomic             Coordinates (Angstroms)
 Number     Number       Type             X           Y           Z
 ---------------------------------------------------------------------
      1          6           0        2.789828   -0.684022    0.304599
      2          8           0        1.647932   -0.496520   -0.506711
      3          6           0        0.944217    0.661966   -0.206100
      4          6           0       -0.428189    0.868287   -0.888640
      5          8           0       -0.719231    1.868759    0.168776
      6          6           0       -0.174257    0.699165    0.897676
      7          6           0       -1.037249   -0.211121    0.016640
      8          6           0       -1.250159   -1.677360   -0.094056
      9          6           0       -2.421169   -0.733557    0.161436
     10          1           0        2.522656   -0.825573    1.362086
     11          1           0        3.297957   -1.581424   -0.054794
     12          1           0        3.480063    0.170122    0.233630
     13          1           0        1.574697    1.560436   -0.200243
     14          1           0       -0.657765    1.135633   -1.920251
     15          1           0       -0.105424    0.770194    1.983592
     16          1           0       -1.165520   -2.137643   -1.072761
     17          1           0       -0.916974   -2.310503    0.721845
     18          1           0       -3.124613   -0.563470   -0.647201
     19          1           0       -2.872810   -0.735832    1.148251
 ---------------------------------------------------------------------

 SCF Done:  E(RB3LYP) =  -423.072849132     A.U. after    1 cycles

 The electronic state is 1-A.
 Alpha  occ. eigenvalues --  -19.14878 -19.13342 -10.24417 -10.24269 -10.24003
 Alpha  occ. eigenvalues --  -10.23068 -10.20092 -10.18448 -10.18332  -1.06392
 Alpha  occ. eigenvalues --   -1.03517  -0.85356  -0.76479  -0.68969  -0.65398
 Alpha  occ. eigenvalues --   -0.62184  -0.60033  -0.52330  -0.52100  -0.49617
 Alpha  occ. eigenvalues --   -0.47540  -0.46695  -0.45785  -0.40563  -0.39381
 Alpha  occ. eigenvalues --   -0.38159  -0.36483  -0.35459  -0.32029  -0.31434
 Alpha  occ. eigenvalues --   -0.29624  -0.28135  -0.26326  -0.23489
 Alpha virt. eigenvalues --    0.06950   0.09500   0.10556   0.11022   0.12626
 Alpha virt. eigenvalues --    0.13313   0.13911   0.14252   0.15442   0.16512
 Alpha virt. eigenvalues --    0.16686   0.17711   0.19263   0.19412   0.21852

 Mulliken charges:
               1
     1  C   -0.239186
     2  O   -0.243272
     3  C    0.167875
     4  C   -0.120515
     5  O   -0.306210
     6  C   -0.115795
     7  C    0.484412
     8  C   -0.339484
     9  C   -0.372538
    10  H    0.109445
    11  H    0.130993
    12  H    0.111143
    13  H    0.081165
    14  H    0.094794
    15  H    0.090691
    16  H    0.119224
    17  H    0.113581
    18  H    0.117455
    19  H    0.116223
 Sum of Mulliken charges =   0.00000

 Dipole moment (field-independent basis, Debye):
    X=              1.1040    Y=             -1.3067    Z=              0.5397  Tot=              1.7937
 Quadrupole moment (field-independent basis, Debye-Ang):
   XX=            -50.0685   YY=            -57.8115   ZZ=            -49.6657
   XY=              1.6898   XZ=              2.5467   YZ=             -1.7420

  Exact polarizability:  87.033   1.318  74.798   1.118  -1.028  68.362
 Approx polarizability: 111.049  -2.049 112.410   0.800   0.518 107.207

                      1                      2                      3
                      A                      A                      A
 Frequencies --     74.0260               137.4709               163.3768
 Red. masses --      2.7908                 2.8338                 1.3071
 Frc consts  --      0.0090                 0.0316                 0.0206
 IR Inten    --      1.5050                 1.4858                 0.3316

                      4                      5                      6
                      A                      A                      A
 Frequencies --    210.6435               260.3314               283.7722
 Red. masses --      2.1517                 2.7535                 2.6060
 Frc consts  --      0.0563                 0.1099                 0.1236
 IR Inten    --      0.3946                 1.4350                 0.4875

                      7                      8                      9
                      A                      A                      A
 Frequencies --    339.1954               442.6927               510.8396
 Red. masses --      4.5461                 3.4581                 5.2415
 Frc consts  --      0.3082                 0.3993                 0.8059
 IR Inten    --      7.9144                 1.5610                 2.9183

                     10                     11                     12
                      A                      A                      A
 Frequencies --    612.5773               687.2846               731.6731
 Red. masses --      4.5829                 3.9534                 2.5740
 Frc consts  --      1.0132                 1.1002                 0.8119
 IR Inten    --      2.0534                10.9332                10.0127

                     13                     14                     15
                      A                      A                      A
 Frequencies --    766.5655               829.8546               862.1638
 Red. masses --      1.2948                 2.3582                 2.9021
 Frc consts  --      0.4483                 0.9568                 1.2710
 IR Inten    --      3.1607                 5.8628                12.1914

                     16                     17                     18
                      A                      A                      A
 Frequencies --    891.5111               914.7261               930.5491
 Red. masses --      2.7624                 1.2245                 1.9778
 Frc consts  --      1.2936                 0.6036                 1.0091
 IR Inten    --     13.3847                 1.1901                 2.3371

                     19                     20                     21
                      A                      A                      A
 Frequencies --    967.4930              1027.1871              1052.0736
 Red. masses --      3.1637                 4.9857                 1.8976
 Frc consts  --      1.7448                 3.0994                 1.2375
 IR Inten    --      3.7547                10.9518                22.5136

                     22                     23                     24
                      A                      A                      A
 Frequencies --   1057.5557              1074.4704              1080.8829
 Red. masses --      2.8461                 1.4855                 1.5277
 Frc consts  --      1.8754                 1.0105                 1.0516
 IR Inten    --     13.4812                 0.0795                 6.2297

                     25                     26                     27
                      A                      A                      A
 Frequencies --   1119.8777              1131.5708              1156.4326
 Red. masses --      4.8841                 1.3389                 2.1198
 Frc consts  --      3.6089                 1.0101                 1.6702
 IR Inten    --     12.3930                21.8026               122.0609

                     28                     29                     30
                      A                      A                      A
 Frequencies --   1178.4370              1180.5851              1187.8327
 Red. masses --      1.2798                 1.3489                 1.5069
 Frc consts  --      1.0472                 1.1077                 1.2527
 IR Inten    --      0.1557                 2.4175                 6.0105

                     31                     32                     33
                      A                      A                      A
 Frequencies --   1229.7831              1237.8544              1243.6542
 Red. masses --      1.7615                 1.5966                 1.7154
 Frc consts  --      1.5696                 1.4414                 1.5632
 IR Inten    --     26.8923                35.2669                23.6274

                     34                     35                     36
                      A                      A                      A
 Frequencies --   1265.2150              1368.9098              1426.8193
 Red. masses --      1.9685                 1.4151                 1.6685
 Frc consts  --      1.8566                 1.5624                 2.0013
 IR Inten    --     45.8556                60.9572                 2.7234

                     37                     38                     39
                      A                      A                      A
 Frequencies --   1461.1905              1484.2237              1489.3263
 Red. masses --      1.0882                 1.1237                 1.0825
 Frc consts  --      1.3689                 1.4584                 1.4147
 IR Inten    --      0.7088                 4.4472                 2.7455

                     40                     41                     42
                      A                      A                      A
 Frequencies --   1506.9475              1522.6243              2982.4023
 Red. masses --      1.0671                 2.2457                 1.0364
 Frc consts  --      1.4277                 3.0676                 5.4311
 IR Inten    --      5.7045                 0.8259                54.1193

                     43                     44                     45
                      A                      A                      A
 Frequencies --   3031.9016              3034.5538              3115.3356
 Red. masses --      1.1004                 1.0874                 1.0911
 Frc consts  --      5.9599                 5.8999                 6.2390
 IR Inten    --     77.1054                24.1090                63.8568

                     46                     47                     48
                      A                      A                      A
 Frequencies --   3121.7848              3123.1660              3126.6784
 Red. masses --      1.0970                 1.0956                 1.0514
 Frc consts  --      6.2991                 6.2962                 6.0559
 IR Inten    --     26.5908                17.0224                16.4311

                     49                     50                     51
                      A                      A                      A
 Frequencies --   3130.5686              3203.5122              3217.5400
 Red. masses --      1.0578                 1.1176                 1.1150
 Frc consts  --      6.1078                 6.7573                 6.8007
 IR Inten    --     10.1039                 0.1185                13.8196

 - Thermochemistry -
 -------------------
 Temperature   298.150 Kelvin.  Pressure   1.00000 Atm.
 Atom     1 has atomic number  6 and mass  12.00000

 Molecular mass:   126.06808 amu.
 Principal axes and moments of inertia in atomic units:
                           1         2         3
     Eigenvalues --   654.634921257.392881635.42416
           X            0.99969   0.01996   0.01475
           Y           -0.01970   0.99966  -0.01706
           Z           -0.01509   0.01677   0.99975
 This molecule is an asymmetric top.
 Rotational symmetry number  1.
 Warning -- assumption of classical behavior for rotation
           may cause significant error
 Rotational temperatures (Kelvin)      0.13231     0.06888     0.05296
 Rotational constants (GHZ):           2.75687     1.43530     1.10353
 Zero-point vibrational energy     413834.0 (Joules/Mol)
                                   98.90870 (Kcal/Mol)
 Warning -- explicit consideration of  10 degrees of freedom as
           vibrations may cause significant error
 Vibrational temperatures:    106.51   197.79   235.06   303.07   374.56
          (Kelvin)            408.28   488.03   636.94   734.98   881.36
                              988.85  1052.71  1102.92  1193.97  1240.46
                             1282.68  1316.09  1338.85  1392.00  1477.89
                             1513.70  1521.58  1545.92  1555.15  1611.25
                             1628.08  1663.85  1695.51  1698.60  1709.02
                             1769.38  1780.99  1789.34  1820.36  1969.55
                             2052.87  2102.32  2135.46  2142.81  2168.16
                             2190.71  4291.01  4362.22  4366.04  4482.27
                             4491.55  4493.53  4498.59  4504.18  4609.13
                             4629.32

 Zero-point correction=                           0.157621 (Hartree/Particle)
 Thermal correction to Energy=                    0.165994
 Thermal correction to Enthalpy=                  0.166938
 Thermal correction to Gibbs Free Energy=         0.124473
 Sum of electronic and zero-point Energies=           -422.915228
 Sum of electronic and thermal Energies=              -422.906855
 Sum of electronic and thermal Enthalpies=            -422.905911
 Sum of electronic and thermal Free Energies=         -422.948376

                     E (Thermal)             CV                S
                      KCal/Mol        Cal/Mol-Kelvin    Cal/Mol-Kelvin
 Total                  104.163             31.868             89.375
 Electronic               0.000              0.000              0.000
 Translational            0.889              2.981             40.409
 Rotational               0.889              2.981             28.689
 Vibrational            102.385             25.906             20.278
 Vibration     1          0.599              1.966              4.043
 Vibration     2          0.614              1.916              2.839
 Vibration     3          0.623              1.887              2.510
 Vibration     4          0.643              1.825              2.038
 Vibration     5          0.668              1.745              1.660
 Vibration     6          0.682              1.704              1.511
 Vibration     7          0.719              1.597              1.216
 Vibration     8          0.802              1.377              0.818
 Vibration     9          0.866              1.226              0.632
 Vibration    10          0.972              1.005              0.429

 Normal termination of Gaussian 09 at Tue Jan 28 13:58:41 2020.
