 Gaussian 09, Revision D.01,
 Gaussian 09:  ES64L-G09RevD.01 24-Apr-2013

 -----------------------------
 # b3lyp 6-31G(2df,p) opt Freq
 -----------------------------

 -----
 titel
 -----
 Symbolic Z-matrix:
 Charge =  0 Multiplicity = 1

 SCF Done:  E(RB3LYP) =  -423.182408527     A.U. after   14 cycles
 Optimization completed.
    -- Stationary point found.
 Normal termination of Gaussian 09 at Tue Jan 28 02:51:10 2020.

 ----------------------------------------------------------------------
 #N Geom=AllCheck Guess=TCheck SCRF=Check GenChk RB3LYP/6-31G(2df,p) Fr
 eq
 ----------------------------------------------------------------------

 Structure from the checkpoint file:  "/scratch/puck/g09_c1a4360d-9a02-45f5-bd1f-fa5cbeb4a575/Gau-60101.chk"
 -----
 titel
 -----
 Charge =  0 Multiplicity = 1

                         Standard orientation:
 ---------------------------------------------------------------------
 Center     Atomic      Atomic             Coordinates (Angstroms)
 Number     Number       Type             X           Y           Z
 ---------------------------------------------------------------------
      1          6           0        2.757543   -0.393108    0.491481
      2          6           0        1.612011   -0.206521   -0.486555
      3          8           0        0.579602   -1.224668   -0.387880
      4          6           0       -0.475169   -0.290119   -0.102175
      5          6           0       -1.739392   -0.212323   -0.992437
      6          6           0       -2.554552    0.111677    0.289771
      7          6           0       -1.385282   -0.462632    1.136334
      8          6           0        0.544571    0.846271   -0.147113
      9          8           0        0.523802    2.027428    0.031194
     10          1           0        2.390090   -0.450105    1.519883
     11          1           0        3.300871   -1.315429    0.266218
     12          1           0        3.453730    0.447810    0.413741
     13          1           0        1.984136   -0.122409   -1.517211
     14          1           0       -1.739251    0.511216   -1.810751
     15          1           0       -1.968632   -1.206475   -1.386270
     16          1           0       -2.667154    1.188121    0.435377
     17          1           0       -3.529713   -0.365815    0.395417
     18          1           0       -1.095311    0.058909    2.051283
     19          1           0       -1.514368   -1.527372    1.349970
 ---------------------------------------------------------------------

 SCF Done:  E(RB3LYP) =  -423.182408527     A.U. after    1 cycles

 The electronic state is 1-A.
 Alpha  occ. eigenvalues --  -19.15020 -19.14456 -10.27420 -10.24341 -10.24249
 Alpha  occ. eigenvalues --  -10.19115 -10.19111 -10.19047 -10.18929  -1.06655
 Alpha  occ. eigenvalues --   -1.04049  -0.84770  -0.76202  -0.68818  -0.67178
 Alpha  occ. eigenvalues --   -0.64510  -0.58059  -0.51550  -0.50504  -0.48162
 Alpha  occ. eigenvalues --   -0.46947  -0.45104  -0.43712  -0.40467  -0.39878
 Alpha  occ. eigenvalues --   -0.39335  -0.37531  -0.37045  -0.35121  -0.33573
 Alpha  occ. eigenvalues --   -0.33167  -0.32722  -0.25858  -0.24544
 Alpha virt. eigenvalues --   -0.02866   0.06804   0.09278   0.10650   0.12240
 Alpha virt. eigenvalues --    0.12877   0.13423   0.15448   0.16701   0.17314
 Alpha virt. eigenvalues --    0.18153   0.18254   0.19521   0.21523   0.22684

 Mulliken charges:
               1
     1  C   -0.404921
     2  C    0.024600
     3  O   -0.348054
     4  C    0.341172
     5  C   -0.287762
     6  C   -0.210699
     7  C   -0.284408
     8  C    0.267975
     9  O   -0.291559
    10  H    0.127126
    11  H    0.134790
    12  H    0.135010
    13  H    0.106001
    14  H    0.109961
    15  H    0.120151
    16  H    0.123957
    17  H    0.106143
    18  H    0.110353
    19  H    0.120165
 Sum of Mulliken charges =   0.00000

 Dipole moment (field-independent basis, Debye):
    X=             -0.1420    Y=             -1.0582    Z=             -0.0255  Tot=              1.0680
 Quadrupole moment (field-independent basis, Debye-Ang):
   XX=            -47.5122   YY=            -60.8781   ZZ=            -51.3389
   XY=             -0.0744   XZ=             -0.3573   YZ=             -1.1251

  Exact polarizability:  92.414   0.329  70.374  -0.914  -0.112  66.835
 Approx polarizability: 113.227   1.014 116.255  -2.296   2.200  97.840

                      1                      2                      3
                      A                      A                      A
 Frequencies --     65.7106               103.0229               154.5289
 Red. masses --      3.6808                 2.5985                 3.2818
 Frc consts  --      0.0094                 0.0162                 0.0462
 IR Inten    --      3.0817                 0.4659                 1.5186

                      4                      5                      6
                      A                      A                      A
 Frequencies --    196.8744               205.0566               269.4879
 Red. masses --      1.4476                 1.6527                 2.4989
 Frc consts  --      0.0331                 0.0409                 0.1069
 IR Inten    --      0.9724                 0.9876                 1.2798

                      7                      8                      9
                      A                      A                      A
 Frequencies --    324.7954               390.7595               498.2267
 Red. masses --      3.3783                 4.2495                 4.2284
 Frc consts  --      0.2100                 0.3823                 0.6184
 IR Inten    --      0.1863                 8.5525                 2.5957

                     10                     11                     12
                      A                      A                      A
 Frequencies --    515.0457               666.7235               718.0940
 Red. masses --      2.9321                 2.2757                 4.7984
 Frc consts  --      0.4583                 0.5960                 1.4578
 IR Inten    --      7.7245                 3.1171                 1.7150

                     13                     14                     15
                      A                      A                      A
 Frequencies --    724.9489               787.8140               822.3313
 Red. masses --      2.0291                 1.2610                 2.2824
 Frc consts  --      0.6283                 0.4611                 0.9094
 IR Inten    --      2.6737                 0.1707                 3.1832

                     16                     17                     18
                      A                      A                      A
 Frequencies --    868.5896               908.8969               925.8114
 Red. masses --      2.8317                 2.3715                 2.6811
 Frc consts  --      1.2587                 1.1543                 1.3540
 IR Inten    --      7.9833                 1.6204                 0.6810

                     19                     20                     21
                      A                      A                      A
 Frequencies --    962.3202               979.5708              1000.5447
 Red. masses --      3.3032                 1.7468                 3.2218
 Frc consts  --      1.8023                 0.9876                 1.9003
 IR Inten    --     18.8085                63.3245               111.5261

                     22                     23                     24
                      A                      A                      A
 Frequencies --   1035.8035              1068.1938              1093.9597
 Red. masses --      1.2657                 2.7528                 2.2165
 Frc consts  --      0.8001                 1.8506                 1.5629
 IR Inten    --      0.9020                50.6916                19.0766

                     25                     26                     27
                      A                      A                      A
 Frequencies --   1129.2078              1166.0602              1193.9443
 Red. masses --      2.3828                 2.8938                 1.9758
 Frc consts  --      1.7901                 2.3182                 1.6595
 IR Inten    --      8.1523                38.5366                 2.7893

                     28                     29                     30
                      A                      A                      A
 Frequencies --   1203.4648              1241.3613              1267.3123
 Red. masses --      1.3855                 1.2329                 1.5718
 Frc consts  --      1.1823                 1.1193                 1.4874
 IR Inten    --      0.2342                 0.0937                10.8576

                     31                     32                     33
                      A                      A                      A
 Frequencies --   1273.0417              1283.1380              1292.0462
 Red. masses --      1.3646                 1.7630                 1.9452
 Frc consts  --      1.3030                 1.7102                 1.9132
 IR Inten    --      1.2272                 8.3728                 5.0581

                     34                     35                     36
                      A                      A                      A
 Frequencies --   1355.3217              1400.4484              1464.5578
 Red. masses --      1.5178                 1.2397                 1.0894
 Frc consts  --      1.6426                 1.4325                 1.3767
 IR Inten    --      5.5440                 4.9091                 2.3001

                     37                     38                     39
                      A                      A                      A
 Frequencies --   1480.1249              1481.3883              1494.3099
 Red. masses --      1.0873                 1.0531                 1.0494
 Frc consts  --      1.4034                 1.3616                 1.3806
 IR Inten    --      1.6532                 4.9073                 2.5713

                     40                     41                     42
                      A                      A                      A
 Frequencies --   1500.2575              1911.0812              3012.0097
 Red. masses --      1.1310                12.7611                 1.0829
 Frc consts  --      1.4999                27.4597                 5.7883
 IR Inten    --      1.9425               210.8445                27.4951

                     43                     44                     45
                      A                      A                      A
 Frequencies --   3041.8589              3060.4265              3064.1495
 Red. masses --      1.0341                 1.0565                 1.0581
 Frc consts  --      5.6374                 5.8303                 5.8530
 IR Inten    --     13.5692                39.0518                 4.3529

                     46                     47                     48
                      A                      A                      A
 Frequencies --   3076.9486              3113.7873              3118.1243
 Red. masses --      1.0597                 1.1087                 1.1018
 Frc consts  --      5.9112                 6.3332                 6.3117
 IR Inten    --     29.4601                 8.6534                11.6144

                     49                     50                     51
                      A                      A                      A
 Frequencies --   3119.5949              3121.8883              3136.9633
 Red. masses --      1.1085                 1.1028                 1.1084
 Frc consts  --      6.3561                 6.3327                 6.4264
 IR Inten    --      9.9827                21.7223                30.1324

 - Thermochemistry -
 -------------------
 Temperature   298.150 Kelvin.  Pressure   1.00000 Atm.
 Atom     1 has atomic number  6 and mass  12.00000

 Molecular mass:   126.06808 amu.
 Principal axes and moments of inertia in atomic units:
                           1         2         3
     Eigenvalues --   593.093071401.300421613.34297
           X            0.99993  -0.00953   0.00694
           Y            0.00971   0.99962  -0.02565
           Z           -0.00669   0.02572   0.99965
 This molecule is an asymmetric top.
 Rotational symmetry number  1.
 Warning -- assumption of classical behavior for rotation
           may cause significant error
 Rotational temperatures (Kelvin)      0.14604     0.06181     0.05369
 Rotational constants (GHZ):           3.04293     1.28790     1.11863
 Zero-point vibrational energy     414445.8 (Joules/Mol)
                                   99.05492 (Kcal/Mol)
 Warning -- explicit consideration of  10 degrees of freedom as
           vibrations may cause significant error
 Vibrational temperatures:     94.54   148.23   222.33   283.26   295.03
          (Kelvin)            387.73   467.31   562.22   716.84   741.03
                              959.27  1033.18  1043.04  1133.49  1183.15
                             1249.71  1307.70  1332.03  1384.56  1409.38
                             1439.56  1490.29  1536.89  1573.96  1624.68
                             1677.70  1717.82  1731.52  1786.04  1823.38
                             1831.62  1846.15  1858.96  1950.00  2014.93
                             2107.17  2129.57  2131.38  2149.98  2158.53
                             2749.62  4333.60  4376.55  4403.27  4408.62
                             4427.04  4480.04  4486.28  4488.40  4491.70
                             4513.38

 Zero-point correction=                           0.157854 (Hartree/Particle)
 Thermal correction to Energy=                    0.166617
 Thermal correction to Enthalpy=                  0.167561
 Thermal correction to Gibbs Free Energy=         0.124086
 Sum of electronic and zero-point Energies=           -423.024554
 Sum of electronic and thermal Energies=              -423.015792
 Sum of electronic and thermal Enthalpies=            -423.014847
 Sum of electronic and thermal Free Energies=         -423.058323

                     E (Thermal)             CV                S
                      KCal/Mol        Cal/Mol-Kelvin    Cal/Mol-Kelvin
 Total                  104.554             32.508             91.502
 Electronic               0.000              0.000              0.000
 Translational            0.889              2.981             40.409
 Rotational               0.889              2.981             28.685
 Vibrational            102.776             26.546             22.408
 Vibration     1          0.597              1.971              4.278
 Vibration     2          0.605              1.947              3.396
 Vibration     3          0.620              1.898              2.616
 Vibration     4          0.636              1.844              2.162
 Vibration     5          0.640              1.833              2.087
 Vibration     6          0.674              1.729              1.599
 Vibration     7          0.709              1.626              1.286
 Vibration     8          0.758              1.490              0.997
 Vibration     9          0.854              1.254              0.663
 Vibration    10          0.870              1.217              0.622

 Normal termination of Gaussian 09 at Tue Jan 28 03:36:21 2020.
