 Gaussian 09, Revision D.01,
 Gaussian 09:  ES64L-G09RevD.01 24-Apr-2013

 -----------------------------
 # b3lyp 6-31G(2df,p) opt Freq
 -----------------------------

 -----
 titel
 -----
 Symbolic Z-matrix:
 Charge =  0 Multiplicity = 1

 SCF Done:  E(RB3LYP) =  -423.143642588     A.U. after   13 cycles
 Optimization completed.
    -- Stationary point found.
 Normal termination of Gaussian 09 at Mon Jan 27 23:09:12 2020.

 ----------------------------------------------------------------------
 #N Geom=AllCheck Guess=TCheck SCRF=Check GenChk RB3LYP/6-31G(2df,p) Fr
 eq
 ----------------------------------------------------------------------

 Structure from the checkpoint file:  "/scratch/puck/g09_13145645-d07b-4a5a-884d-75450e1951d0/Gau-88286.chk"
 -----
 titel
 -----
 Charge =  0 Multiplicity = 1

                         Standard orientation:
 ---------------------------------------------------------------------
 Center     Atomic      Atomic             Coordinates (Angstroms)
 Number     Number       Type             X           Y           Z
 ---------------------------------------------------------------------
      1          6           0       -2.626409   -0.095030   -0.287803
      2          6           0       -1.202936    0.375055   -0.563326
      3          6           0       -0.427677    1.034214    0.601199
      4          8           0        0.795436    1.456275   -0.071790
      5          6           0        1.129606    0.063832   -0.115255
      6          6           0        2.533713   -0.298308   -0.480740
      7          6           0        0.330249   -0.257593    1.155591
      8          8           0       -0.264738   -1.428477    0.597717
      9          6           0       -0.143510   -0.742073   -0.684936
     10          1           0       -2.651531   -0.803206    0.542885
     11          1           0       -3.272917    0.754058   -0.042151
     12          1           0       -3.051610   -0.590346   -1.167159
     13          1           0       -1.164589    1.056053   -1.418541
     14          1           0       -0.888330    1.805572    1.215490
     15          1           0        2.677176   -1.377795   -0.376388
     16          1           0        2.746928   -0.020370   -1.518215
     17          1           0        3.248844    0.217203    0.166678
     18          1           0        0.678898   -0.331130    2.184260
     19          1           0       -0.126674   -1.412994   -1.542663
 ---------------------------------------------------------------------

 SCF Done:  E(RB3LYP) =  -423.143642588     A.U. after    1 cycles

 The electronic state is 1-A.
 Alpha  occ. eigenvalues --  -19.14246 -19.13817 -10.24355 -10.23685 -10.23619
 Alpha  occ. eigenvalues --  -10.23565 -10.18935 -10.18585 -10.17368  -1.08265
 Alpha  occ. eigenvalues --   -1.02157  -0.78886  -0.75882  -0.71119  -0.68319
 Alpha  occ. eigenvalues --   -0.64235  -0.56390  -0.53780  -0.50751  -0.48805
 Alpha  occ. eigenvalues --   -0.46358  -0.43748  -0.41665  -0.41240  -0.40616
 Alpha  occ. eigenvalues --   -0.38909  -0.37776  -0.36399  -0.34785  -0.33339
 Alpha  occ. eigenvalues --   -0.31101  -0.30528  -0.25570  -0.23841
 Alpha virt. eigenvalues --    0.06977   0.10243   0.10653   0.11978   0.12584
 Alpha virt. eigenvalues --    0.13803   0.15051   0.15840   0.15962   0.16582
 Alpha virt. eigenvalues --    0.17260   0.17388   0.18338   0.18991   0.21197

 Mulliken charges:
               1
     1  C   -0.426189
     2  C    0.039796
     3  C    0.009992
     4  O   -0.323638
     5  C    0.423370
     6  C   -0.521622
     7  C    0.009612
     8  O   -0.291533
     9  C   -0.025436
    10  H    0.136926
    11  H    0.112881
    12  H    0.115812
    13  H    0.084546
    14  H    0.081225
    15  H    0.137715
    16  H    0.132806
    17  H    0.132619
    18  H    0.092383
    19  H    0.078734
 Sum of Mulliken charges =   0.00000

 Dipole moment (field-independent basis, Debye):
    X=              0.0770    Y=             -0.0521    Z=             -0.2206  Tot=              0.2394
 Quadrupole moment (field-independent basis, Debye-Ang):
   XX=            -50.9770   YY=            -58.1622   ZZ=            -50.0274
   XY=             -3.5378   XZ=              0.4917   YZ=              2.8620

  Exact polarizability:  85.926  -2.540  67.306   0.653   3.021  69.144
 Approx polarizability: 109.388  -0.202 110.037   0.140   2.219 107.069

                      1                      2                      3
                      A                      A                      A
 Frequencies --    175.4801               195.5629               208.3259
 Red. masses --      2.8315                 1.0330                 1.1090
 Frc consts  --      0.0514                 0.0233                 0.0284
 IR Inten    --      0.7597                 0.2183                 0.2135

                      4                      5                      6
                      A                      A                      A
 Frequencies --    227.7594               290.6324               314.5474
 Red. masses --      2.2109                 3.1390                 2.7179
 Frc consts  --      0.0676                 0.1562                 0.1584
 IR Inten    --      0.6266                 0.8055                 1.0493

                      7                      8                      9
                      A                      A                      A
 Frequencies --    504.9717               515.2500               553.8019
 Red. masses --      4.6900                 3.7459                 5.0204
 Frc consts  --      0.7046                 0.5859                 0.9072
 IR Inten    --      2.7591                 7.0961                13.7257

                     10                     11                     12
                      A                      A                      A
 Frequencies --    659.6838               702.9207               756.1637
 Red. masses --      3.3881                 4.0549                 3.4927
 Frc consts  --      0.8687                 1.1804                 1.1766
 IR Inten    --      0.1666                 0.5709                 2.8189

                     13                     14                     15
                      A                      A                      A
 Frequencies --    790.4035               819.6041               860.0897
 Red. masses --      2.9014                 2.7551                 1.9355
 Frc consts  --      1.0680                 1.0904                 0.8436
 IR Inten    --     12.7785                 0.1007                 4.6319

                     16                     17                     18
                      A                      A                      A
 Frequencies --    874.6151               901.9134               934.3374
 Red. masses --      3.1293                 2.7679                 3.0731
 Frc consts  --      1.4103                 1.3266                 1.5806
 IR Inten    --     28.4352                10.3913                26.4983

                     19                     20                     21
                      A                      A                      A
 Frequencies --    952.5403               971.3379              1012.4817
 Red. masses --      3.3912                 2.8264                 1.8688
 Frc consts  --      1.8129                 1.5711                 1.1287
 IR Inten    --     33.2027                24.2000                10.5154

                     22                     23                     24
                      A                      A                      A
 Frequencies --   1048.8897              1073.4927              1108.0857
 Red. masses --      1.8075                 1.6931                 1.6240
 Frc consts  --      1.1716                 1.1496                 1.1749
 IR Inten    --      6.7691                 1.6153                 1.4145

                     25                     26                     27
                      A                      A                      A
 Frequencies --   1113.9073              1146.6107              1151.1733
 Red. masses --      2.0682                 1.7466                 2.1345
 Frc consts  --      1.5120                 1.3530                 1.6666
 IR Inten    --      4.7351                 2.0399                15.4596

                     28                     29                     30
                      A                      A                      A
 Frequencies --   1158.2454              1222.9094              1234.8921
 Red. masses --      1.7811                 1.5027                 1.7772
 Frc consts  --      1.4078                 1.3241                 1.5968
 IR Inten    --     10.8643                 2.4433                 5.6683

                     31                     32                     33
                      A                      A                      A
 Frequencies --   1269.5584              1272.8944              1317.8495
 Red. masses --      1.7064                 1.5761                 1.5904
 Frc consts  --      1.6205                 1.5046                 1.6274
 IR Inten    --     23.8515                 6.8135                 4.8132

                     34                     35                     36
                      A                      A                      A
 Frequencies --   1363.6469              1375.7954              1405.6030
 Red. masses --      1.7293                 1.7358                 1.2496
 Frc consts  --      1.8946                 1.9358                 1.4546
 IR Inten    --      1.3708                 3.7531                 3.9276

                     37                     38                     39
                      A                      A                      A
 Frequencies --   1420.2023              1479.0800              1492.8502
 Red. masses --      2.0512                 1.0523                 1.0533
 Frc consts  --      2.4376                 1.3563                 1.3831
 IR Inten    --     18.0007                 3.6197                 2.3106

                     40                     41                     42
                      A                      A                      A
 Frequencies --   1494.2408              1507.4130              3037.6576
 Red. masses --      1.0461                 1.0497                 1.0376
 Frc consts  --      1.3761                 1.4053                 5.6412
 IR Inten    --      5.4074                 3.6284                35.9453

                     43                     44                     45
                      A                      A                      A
 Frequencies --   3039.5949              3072.5687              3095.8300
 Red. masses --      1.0351                 1.0842                 1.1011
 Frc consts  --      5.6347                 6.0304                 6.2176
 IR Inten    --     13.4396                12.1975                20.7542

                     46                     47                     48
                      A                      A                      A
 Frequencies --   3108.8645              3121.0951              3133.1207
 Red. masses --      1.1007                 1.1015                 1.0982
 Frc consts  --      6.2679                 6.3220                 6.3515
 IR Inten    --     12.8939                10.6181                10.3974

                     49                     50                     51
                      A                      A                      A
 Frequencies --   3135.1644              3137.2349              3147.3344
 Red. masses --      1.0906                 1.0919                 1.0945
 Frc consts  --      6.3158                 6.3317                 6.3879
 IR Inten    --     45.1356                19.1259                28.8111

 - Thermochemistry -
 -------------------
 Temperature   298.150 Kelvin.  Pressure   1.00000 Atm.
 Atom     1 has atomic number  6 and mass  12.00000

 Molecular mass:   126.06808 amu.
 Principal axes and moments of inertia in atomic units:
                           1         2         3
     Eigenvalues --   550.086411132.535341295.57516
           X            0.99964  -0.02691  -0.00183
           Y            0.02697   0.99755   0.06460
           Z            0.00009  -0.06462   0.99791
 This molecule is an asymmetric top.
 Rotational symmetry number  1.
 Warning -- assumption of classical behavior for rotation
           may cause significant error
 Rotational temperatures (Kelvin)      0.15745     0.07648     0.06685
 Rotational constants (GHZ):           3.28083     1.59354     1.39300
 Zero-point vibrational energy     418144.1 (Joules/Mol)
                                   99.93883 (Kcal/Mol)
 Warning -- explicit consideration of   9 degrees of freedom as
           vibrations may cause significant error
 Vibrational temperatures:    252.48   281.37   299.73   327.69   418.15
          (Kelvin)            452.56   726.54   741.33   796.80   949.14
                             1011.34  1087.95  1137.21  1179.23  1237.48
                             1258.37  1297.65  1344.30  1370.49  1397.54
                             1456.73  1509.12  1544.51  1594.29  1602.66
                             1649.71  1656.28  1666.45  1759.49  1776.73
                             1826.61  1831.41  1896.09  1961.98  1979.46
                             2022.35  2043.35  2128.06  2147.88  2149.88
                             2168.83  4370.51  4373.29  4420.74  4454.20
                             4472.96  4490.55  4507.86  4510.80  4513.78
                             4528.31

 Zero-point correction=                           0.159263 (Hartree/Particle)
 Thermal correction to Energy=                    0.166899
 Thermal correction to Enthalpy=                  0.167843
 Thermal correction to Gibbs Free Energy=         0.127644
 Sum of electronic and zero-point Energies=           -422.984380
 Sum of electronic and thermal Energies=              -422.976743
 Sum of electronic and thermal Enthalpies=            -422.975799
 Sum of electronic and thermal Free Energies=         -423.015998

                     E (Thermal)             CV                S
                      KCal/Mol        Cal/Mol-Kelvin    Cal/Mol-Kelvin
 Total                  104.731             30.695             84.606
 Electronic               0.000              0.000              0.000
 Translational            0.889              2.981             40.409
 Rotational               0.889              2.981             28.181
 Vibrational            102.953             24.733             16.016
 Vibration     1          0.627              1.873              2.376
 Vibration     2          0.636              1.846              2.174
 Vibration     3          0.642              1.828              2.058
 Vibration     4          0.651              1.799              1.897
 Vibration     5          0.687              1.691              1.470
 Vibration     6          0.702              1.646              1.338
 Vibration     7          0.860              1.239              0.646
 Vibration     8          0.870              1.216              0.621
 Vibration     9          0.909              1.131              0.536

 Normal termination of Gaussian 09 at Mon Jan 27 23:53:42 2020.
