 Gaussian 09, Revision D.01,
 Gaussian 09:  ES64L-G09RevD.01 24-Apr-2013

 -----------------------------
 # b3lyp 6-31G(2df,p) opt Freq
 -----------------------------

 -----
 titel
 -----
 Symbolic Z-matrix:
 Charge =  0 Multiplicity = 1

 SCF Done:  E(RB3LYP) =  -423.165485962     A.U. after   13 cycles
 Optimization completed.
    -- Stationary point found.
 Normal termination of Gaussian 09 at Mon Jan 27 17:56:55 2020.

 ----------------------------------------------------------------------
 #N Geom=AllCheck Guess=TCheck SCRF=Check GenChk RB3LYP/6-31G(2df,p) Fr
 eq
 ----------------------------------------------------------------------

 Structure from the checkpoint file:  "/scratch/puck/g09_efdd0448-d93b-496b-82db-cc6e8287527a/Gau-16657.chk"
 -----
 titel
 -----
 Charge =  0 Multiplicity = 1

                         Standard orientation:
 ---------------------------------------------------------------------
 Center     Atomic      Atomic             Coordinates (Angstroms)
 Number     Number       Type             X           Y           Z
 ---------------------------------------------------------------------
      1          8           0        1.953482   -0.970431   -0.780478
      2          6           0        1.080433   -0.275949    0.072082
      3          6           0        1.668437    0.945201    0.706702
      4          6           0        0.626458    1.094748   -0.386848
      5          6           0       -0.792404    1.569750   -0.112033
      6          6           0       -1.779570    0.430991    0.049411
      7          8           0       -1.659436   -0.668556   -0.864594
      8          6           0       -1.345850   -0.889672    0.517365
      9          6           0        0.105858   -1.159850    0.847693
     10          1           0        1.427662   -1.288961   -1.523665
     11          1           0        1.377951    1.177745    1.727489
     12          1           0        2.694771    1.186582    0.455584
     13          1           0        1.031982    1.379750   -1.351675
     14          1           0       -0.843277    2.192326    0.791162
     15          1           0       -1.129766    2.208468   -0.935958
     16          1           0       -2.809887    0.732717    0.242929
     17          1           0       -2.069132   -1.515498    1.041947
     18          1           0        0.239354   -1.050234    1.931413
     19          1           0        0.347799   -2.202316    0.615117
 ---------------------------------------------------------------------

 SCF Done:  E(RB3LYP) =  -423.165485962     A.U. after    1 cycles

 The electronic state is 1-A.
 Alpha  occ. eigenvalues --  -19.14635 -19.13571 -10.23656 -10.23502 -10.23469
 Alpha  occ. eigenvalues --  -10.19133 -10.18793 -10.18752 -10.18095  -1.06667
 Alpha  occ. eigenvalues --   -1.02273  -0.85383  -0.75434  -0.74362  -0.63606
 Alpha  occ. eigenvalues --   -0.61080  -0.58160  -0.54010  -0.52081  -0.49314
 Alpha  occ. eigenvalues --   -0.47017  -0.44950  -0.42872  -0.42175  -0.40255
 Alpha  occ. eigenvalues --   -0.38621  -0.37543  -0.36713  -0.34089  -0.31433
 Alpha  occ. eigenvalues --   -0.28997  -0.27482  -0.26314  -0.24790
 Alpha virt. eigenvalues --    0.08643   0.08806   0.09811   0.11254   0.11691
 Alpha virt. eigenvalues --    0.12845   0.14100   0.15409   0.15858   0.16799
 Alpha virt. eigenvalues --    0.17262   0.17918   0.19427   0.20323   0.24251

 Mulliken charges:
               1
     1  O   -0.473067
     2  C    0.423346
     3  C   -0.332696
     4  C   -0.080498
     5  C   -0.283049
     6  C    0.062405
     7  O   -0.264925
     8  C    0.061880
     9  C   -0.339141
    10  H    0.282921
    11  H    0.105100
    12  H    0.120907
    13  H    0.092726
    14  H    0.106853
    15  H    0.114823
    16  H    0.086827
    17  H    0.086999
    18  H    0.109590
    19  H    0.118997
 Sum of Mulliken charges =   0.00000

 Dipole moment (field-independent basis, Debye):
    X=             -0.9827    Y=              0.8120    Z=              1.1378  Tot=              1.7087
 Quadrupole moment (field-independent basis, Debye-Ang):
   XX=            -57.2539   YY=            -51.3954   ZZ=            -51.0677
   XY=              0.0400   XZ=             -2.6505   YZ=             -0.7992

  Exact polarizability:  77.881  -0.991  76.345   0.476  -1.832  66.380
 Approx polarizability: 104.261  -3.788 111.588   2.852   0.411 107.136

                      1                      2                      3
                      A                      A                      A
 Frequencies --     27.9794               195.4418               311.9056
 Red. masses --      3.0178                 3.0989                 4.4975
 Frc consts  --      0.0014                 0.0697                 0.2578
 IR Inten    --      2.6982                 2.8026                 4.1546

                      4                      5                      6
                      A                      A                      A
 Frequencies --    317.9342               363.2053               390.9635
 Red. masses --      2.2277                 1.2653                 2.1114
 Frc consts  --      0.1327                 0.0983                 0.1902
 IR Inten    --      1.1512                47.1913                12.1557

                      7                      8                      9
                      A                      A                      A
 Frequencies --    414.1545               435.3767               479.1597
 Red. masses --      3.7391                 2.1934                 4.0369
 Frc consts  --      0.3779                 0.2450                 0.5461
 IR Inten    --     32.6948                 8.3326                 4.3426

                     10                     11                     12
                      A                      A                      A
 Frequencies --    588.6988               661.4581               746.9004
 Red. masses --      4.0984                 4.0413                 5.1020
 Frc consts  --      0.8368                 1.0418                 1.6769
 IR Inten    --     10.7461                 5.9314                 9.0870

                     13                     14                     15
                      A                      A                      A
 Frequencies --    764.5492               830.7213               872.0285
 Red. masses --      2.6939                 2.4194                 1.7057
 Frc consts  --      0.9278                 0.9837                 0.7642
 IR Inten    --      2.2130                26.8082                 1.8645

                     16                     17                     18
                      A                      A                      A
 Frequencies --    894.6617               896.4831               936.5703
 Red. masses --      1.7436                 2.7187                 2.8031
 Frc consts  --      0.8223                 1.2873                 1.4487
 IR Inten    --      4.8243                 0.6838                 5.2361

                     19                     20                     21
                      A                      A                      A
 Frequencies --    943.3998               977.2162               994.5170
 Red. masses --      2.4102                 1.9973                 2.4086
 Frc consts  --      1.2638                 1.1238                 1.4036
 IR Inten    --     13.7074                10.8677                12.8705

                     22                     23                     24
                      A                      A                      A
 Frequencies --   1043.3584              1066.7040              1083.4801
 Red. masses --      2.2854                 1.3355                 1.2041
 Frc consts  --      1.4658                 0.8954                 0.8328
 IR Inten    --      6.0999                 5.5246                 2.4734

                     25                     26                     27
                      A                      A                      A
 Frequencies --   1107.6560              1123.8697              1157.1167
 Red. masses --      1.5959                 1.5418                 1.4964
 Frc consts  --      1.1536                 1.1474                 1.1804
 IR Inten    --      7.2516                 6.3231                 4.6203

                     28                     29                     30
                      A                      A                      A
 Frequencies --   1201.8791              1246.2888              1260.8277
 Red. masses --      1.5188                 1.2894                 1.4385
 Frc consts  --      1.2926                 1.1799                 1.3473
 IR Inten    --     29.1422                 2.5439                75.0632

                     31                     32                     33
                      A                      A                      A
 Frequencies --   1282.0525              1295.1689              1325.9153
 Red. masses --      1.6775                 1.3539                 1.5912
 Frc consts  --      1.6245                 1.3381                 1.6482
 IR Inten    --      9.8118                 7.0563                15.1519

                     34                     35                     36
                      A                      A                      A
 Frequencies --   1352.6070              1358.2574              1387.3645
 Red. masses --      1.6593                 2.0202                 1.4188
 Frc consts  --      1.7887                 2.1959                 1.6089
 IR Inten    --      8.8253                16.1920                 7.3776

                     37                     38                     39
                      A                      A                      A
 Frequencies --   1422.6470              1468.5297              1477.6813
 Red. masses --      1.4876                 1.2816                 1.1215
 Frc consts  --      1.7739                 1.6284                 1.4429
 IR Inten    --      4.2148                 4.2781                 3.5747

                     40                     41                     42
                      A                      A                      A
 Frequencies --   1483.2539              1500.4314              3021.0077
 Red. masses --      1.8941                 1.7935                 1.0641
 Frc consts  --      2.4552                 2.3790                 5.7216
 IR Inten    --     21.4489                 1.3670                31.0890

                     43                     44                     45
                      A                      A                      A
 Frequencies --   3028.4983              3061.9287              3074.4825
 Red. masses --      1.0640                 1.0978                 1.0982
 Frc consts  --      5.7499                 6.0640                 6.1160
 IR Inten    --     19.7945                15.7260                12.2309

                     46                     47                     48
                      A                      A                      A
 Frequencies --   3093.7802              3106.7281              3122.1002
 Red. masses --      1.0846                 1.0916                 1.0560
 Frc consts  --      6.1166                 6.2078                 6.0644
 IR Inten    --     26.3544                65.8485                12.1762

                     49                     50                     51
                      A                      A                      A
 Frequencies --   3162.7836              3218.8184              3786.1263
 Red. masses --      1.0888                 1.1151                 1.0660
 Frc consts  --      6.4171                 6.8072                 9.0030
 IR Inten    --      8.9633                 7.2407                17.5350

 - Thermochemistry -
 -------------------
 Temperature   298.150 Kelvin.  Pressure   1.00000 Atm.
 Atom     1 has atomic number  8 and mass  15.99491

 Molecular mass:   126.06808 amu.
 Principal axes and moments of inertia in atomic units:
                           1         2         3
     Eigenvalues --   665.355811096.514891364.67085
           X            0.99996   0.00056  -0.00877
           Y           -0.00083   0.99951  -0.03134
           Z            0.00875   0.03135   0.99947
 This molecule is an asymmetric top.
 Rotational symmetry number  1.
 Warning -- assumption of classical behavior for rotation
           may cause significant error
 Rotational temperatures (Kelvin)      0.13018     0.07899     0.06347
 Rotational constants (GHZ):           2.71245     1.64589     1.32247
 Zero-point vibrational energy     420874.2 (Joules/Mol)
                                  100.59134 (Kcal/Mol)
 Warning -- explicit consideration of  10 degrees of freedom as
           vibrations may cause significant error
 Vibrational temperatures:     40.26   281.20   448.76   457.44   522.57
          (Kelvin)            562.51   595.88   626.41   689.40   847.01
                              951.69  1074.62  1100.01  1195.22  1254.65
                             1287.22  1289.84  1347.51  1357.34  1405.99
                             1430.89  1501.16  1534.75  1558.88  1593.67
                             1617.00  1664.83  1729.23  1793.13  1814.05
                             1844.59  1863.46  1907.69  1946.10  1954.23
                             1996.11  2046.87  2112.88  2126.05  2134.07
                             2158.78  4346.55  4357.33  4405.43  4423.49
                             4451.25  4469.88  4492.00  4550.53  4631.16
                             5447.38

 Zero-point correction=                           0.160303 (Hartree/Particle)
 Thermal correction to Energy=                    0.168040
 Thermal correction to Enthalpy=                  0.168984
 Thermal correction to Gibbs Free Energy=         0.127522
 Sum of electronic and zero-point Energies=           -423.005183
 Sum of electronic and thermal Energies=              -422.997446
 Sum of electronic and thermal Enthalpies=            -422.996502
 Sum of electronic and thermal Free Energies=         -423.037964

                     E (Thermal)             CV                S
                      KCal/Mol        Cal/Mol-Kelvin    Cal/Mol-Kelvin
 Total                  105.447             30.968             87.264
 Electronic               0.000              0.000              0.000
 Translational            0.889              2.981             40.409
 Rotational               0.889              2.981             28.389
 Vibrational            103.669             25.006             18.466
 Vibration     1          0.593              1.984              5.968
 Vibration     2          0.636              1.846              2.176
 Vibration     3          0.700              1.651              1.352
 Vibration     4          0.704              1.639              1.321
 Vibration     5          0.737              1.548              1.108
 Vibration     6          0.759              1.489              0.996
 Vibration     7          0.778              1.440              0.912
 Vibration     8          0.796              1.393              0.841
 Vibration     9          0.836              1.296              0.712
 Vibration    10          0.946              1.056              0.470

 Normal termination of Gaussian 09 at Mon Jan 27 19:59:35 2020.
