 Gaussian 09, Revision D.01,
 Gaussian 09:  ES64L-G09RevD.01 24-Apr-2013

 -----------------------------
 # b3lyp 6-31G(2df,p) opt Freq
 -----------------------------

 -----
 titel
 -----
 Symbolic Z-matrix:
 Charge =  0 Multiplicity = 1

 SCF Done:  E(RB3LYP) =  -423.148783291     A.U. after   14 cycles
 Optimization completed.
    -- Stationary point found.
 Normal termination of Gaussian 09 at Tue Jan 28 08:22:04 2020.

 ----------------------------------------------------------------------
 #N Geom=AllCheck Guess=TCheck SCRF=Check GenChk RB3LYP/6-31G(2df,p) Fr
 eq
 ----------------------------------------------------------------------

 Structure from the checkpoint file:  "/scratch/puck/g09_d5901c02-2a97-47e4-85c1-573c660cd57c/Gau-60315.chk"
 -----
 titel
 -----
 Charge =  0 Multiplicity = 1

                         Standard orientation:
 ---------------------------------------------------------------------
 Center     Atomic      Atomic             Coordinates (Angstroms)
 Number     Number       Type             X           Y           Z
 ---------------------------------------------------------------------
      1          6           0       -1.994272    1.592653   -0.001880
      2          8           0       -0.681284    1.076868   -0.002586
      3          6           0       -0.527433   -0.335344    0.000521
      4          6           0       -1.097659   -0.985114    1.273849
      5          6           0       -1.102120   -0.991307   -1.267503
      6          6           0        0.997951   -0.582194   -0.001098
      7          8           0        1.443513   -1.709921   -0.002229
      8          6           0        1.877139    0.570031   -0.000520
      9          6           0        2.675356    1.471055    0.000039
     10          1           0       -2.561917    1.299362    0.891700
     11          1           0       -1.894607    2.680727   -0.005012
     12          1           0       -2.564741    1.294490   -0.892030
     13          1           0       -0.744648   -0.454753    2.163221
     14          1           0       -2.190809   -0.971111    1.268601
     15          1           0       -0.766956   -2.024283    1.330435
     16          1           0       -0.770547   -2.030359   -1.320712
     17          1           0       -2.195258   -0.978326   -1.258004
     18          1           0       -0.753096   -0.464603   -2.160609
     19          1           0        3.370972    2.274600    0.000490
 ---------------------------------------------------------------------

 SCF Done:  E(RB3LYP) =  -423.148783291     A.U. after    1 cycles

 The electronic state is 1-A.
 Alpha  occ. eigenvalues --  -19.14549 -19.14129 -10.28777 -10.25250 -10.22925
 Alpha  occ. eigenvalues --  -10.20081 -10.19519 -10.18237 -10.18230  -1.05500
 Alpha  occ. eigenvalues --   -1.03657  -0.79919  -0.76717  -0.70117  -0.69913
 Alpha  occ. eigenvalues --   -0.65299  -0.57891  -0.52893  -0.51536  -0.47583
 Alpha  occ. eigenvalues --   -0.46544  -0.44575  -0.43744  -0.41774  -0.40582
 Alpha  occ. eigenvalues --   -0.39466  -0.38653  -0.37651  -0.35633  -0.31835
 Alpha  occ. eigenvalues --   -0.29259  -0.28651  -0.26105  -0.26026
 Alpha virt. eigenvalues --   -0.05910   0.04116   0.08224   0.10573   0.11291
 Alpha virt. eigenvalues --    0.12286   0.13468   0.13615   0.15276   0.15809
 Alpha virt. eigenvalues --    0.17168   0.17762   0.19816   0.19822   0.20977

 Mulliken charges:
               1
     1  C   -0.250486
     2  O   -0.281326
     3  C    0.270666
     4  C   -0.425285
     5  C   -0.425323
     6  C    0.172856
     7  O   -0.314717
     8  C    0.345316
     9  C   -0.437726
    10  H    0.110940
    11  H    0.132748
    12  H    0.110959
    13  H    0.127701
    14  H    0.116454
    15  H    0.145388
    16  H    0.145455
    17  H    0.116370
    18  H    0.127651
    19  H    0.212359
 Sum of Mulliken charges =   0.00000

 Dipole moment (field-independent basis, Debye):
    X=             -1.8791    Y=              1.8666    Z=              0.0066  Tot=              2.6486
 Quadrupole moment (field-independent basis, Debye-Ang):
   XX=            -48.7799   YY=            -53.6063   ZZ=            -52.7118
   XY=              6.4447   XZ=              0.0059   YZ=             -0.0044

  Exact polarizability:  88.122  11.296  87.474   0.007   0.012  60.934
 Approx polarizability: 120.787  22.473 146.585   0.002   0.034  86.113

                      1                      2                      3
                      A                      A                      A
 Frequencies --     10.5998                71.9116               133.0713
 Red. masses --      4.4028                 2.0306                 3.9239
 Frc consts  --      0.0003                 0.0062                 0.0409
 IR Inten    --      3.5497                 2.0088                 2.5835

                      4                      5                      6
                      A                      A                      A
 Frequencies --    182.1531               201.4186               222.6015
 Red. masses --      1.1195                 2.4163                 3.7111
 Frc consts  --      0.0219                 0.0578                 0.1083
 IR Inten    --      1.0294                 0.3712                 4.1574

                      7                      8                      9
                      A                      A                      A
 Frequencies --    249.7267               264.8287               299.0229
 Red. masses --      1.8670                 1.0862                 2.2310
 Frc consts  --      0.0686                 0.0449                 0.1175
 IR Inten    --      0.0825                 0.0240                 2.0113

                     10                     11                     12
                      A                      A                      A
 Frequencies --    330.2708               342.1798               408.9404
 Red. masses --      2.6540                 2.8037                 4.4936
 Frc consts  --      0.1706                 0.1934                 0.4428
 IR Inten    --      3.8323                 1.2084                 1.7910

                     13                     14                     15
                      A                      A                      A
 Frequencies --    426.1077               482.4304               621.7440
 Red. masses --      3.5375                 5.4723                 3.7212
 Frc consts  --      0.3784                 0.7504                 0.8475
 IR Inten    --     11.8829                 2.2419                12.7261

                     16                     17                     18
                      A                      A                      A
 Frequencies --    632.8320               691.8795               716.8624
 Red. masses --      1.2880                 5.7196                 1.3380
 Frc consts  --      0.3039                 1.6132                 0.4051
 IR Inten    --     40.8799                 3.1779                23.3074

                     19                     20                     21
                      A                      A                      A
 Frequencies --    765.2084               819.7897               926.4634
 Red. masses --      5.4879                 2.5814                 1.5313
 Frc consts  --      1.8933                 1.0221                 0.7744
 IR Inten    --     10.2490                 0.8733                 0.2922

                     22                     23                     24
                      A                      A                      A
 Frequencies --    944.8838              1010.8796              1100.2270
 Red. masses --      2.3600                 1.3181                 3.8079
 Frc consts  --      1.2414                 0.7936                 2.7158
 IR Inten    --     31.2158                 2.0764               223.5278

                     25                     26                     27
                      A                      A                      A
 Frequencies --   1115.0717              1172.6239              1181.8198
 Red. masses --      4.5597                 3.0563                 1.3774
 Frc consts  --      3.3404                 2.4761                 1.1335
 IR Inten    --     40.5574                 7.7008                 5.8611

                     28                     29                     30
                      A                      A                      A
 Frequencies --   1199.3642              1230.7659              1284.4649
 Red. masses --      1.6439                 2.7022                 3.1129
 Frc consts  --      1.3933                 2.4117                 3.0259
 IR Inten    --     15.9353               121.9991                 9.1162

                     31                     32                     33
                      A                      A                      A
 Frequencies --   1382.3991              1401.0567              1473.9051
 Red. masses --      1.2303                 1.2206                 1.1172
 Frc consts  --      1.3852                 1.4117                 1.4300
 IR Inten    --      9.4545                18.7190                 1.5198

                     34                     35                     36
                      A                      A                      A
 Frequencies --   1478.6511              1482.0569              1500.0721
 Red. masses --      1.0478                 1.0491                 1.0476
 Frc consts  --      1.3498                 1.3577                 1.3889
 IR Inten    --      2.1677                 1.1725                 1.7508

                     37                     38                     39
                      A                      A                      A
 Frequencies --   1501.2748              1508.6323              1515.9032
 Red. masses --      1.0625                 1.0639                 1.0643
 Frc consts  --      1.4109                 1.4266                 1.4410
 IR Inten    --      5.8380                 6.1151                12.8312

                     40                     41                     42
                      A                      A                      A
 Frequencies --   1759.9887              2210.3086              2997.6243
 Red. masses --     12.6565                 5.9460                 1.0350
 Frc consts  --     23.0984                17.1151                 5.4794
 IR Inten    --    133.1290                72.6234                48.7031

                     43                     44                     45
                      A                      A                      A
 Frequencies --   3043.0318              3049.1957              3052.2672
 Red. masses --      1.0518                 1.0354                 1.0843
 Frc consts  --      5.7384                 5.6718                 5.9517
 IR Inten    --      0.0169                12.9345                65.3444

                     46                     47                     48
                      A                      A                      A
 Frequencies --   3114.9756              3118.4216              3121.5118
 Red. masses --      1.0978                 1.1027                 1.1018
 Frc consts  --      6.2759                 6.3181                 6.3251
 IR Inten    --     20.1597                 6.8628                33.4855

                     49                     50                     51
                      A                      A                      A
 Frequencies --   3136.0179              3140.3278              3496.0008
 Red. masses --      1.1013                 1.1007                 1.1610
 Frc consts  --      6.3816                 6.3955                 8.3605
 IR Inten    --      2.0089                13.4348                49.3420

 - Thermochemistry -
 -------------------
 Temperature   298.150 Kelvin.  Pressure   1.00000 Atm.
 Atom     1 has atomic number  6 and mass  12.00000

 Molecular mass:   126.06808 amu.
 Principal axes and moments of inertia in atomic units:
                           1         2         3
     Eigenvalues --   847.594161274.913741718.73276
           X            0.99946   0.03277   0.00004
           Y           -0.03277   0.99946  -0.00001
           Z           -0.00004   0.00001   1.00000
 This molecule is an asymmetric top.
 Rotational symmetry number  1.
 Warning -- assumption of classical behavior for rotation
           may cause significant error
 Rotational temperatures (Kelvin)      0.10219     0.06794     0.05039
 Rotational constants (GHZ):           2.12925     1.41558     1.05004
 Zero-point vibrational energy     403881.8 (Joules/Mol)
                                   96.53007 (Kcal/Mol)
 Warning -- explicit consideration of  14 degrees of freedom as
           vibrations may cause significant error
 Vibrational temperatures:     15.25   103.46   191.46   262.08   289.80
          (Kelvin)            320.27   359.30   381.03   430.23   475.19
                              492.32   588.37   613.07   694.11   894.55
                              910.50   995.46  1031.40  1100.96  1179.49
                             1332.97  1359.48  1454.43  1582.98  1604.34
                             1687.14  1700.37  1725.62  1770.80  1848.06
                             1988.96  2015.81  2120.62  2127.45  2132.35
                             2158.27  2160.00  2170.58  2181.04  2532.23
                             3180.14  4312.91  4378.24  4387.11  4391.53
                             4481.75  4486.71  4491.15  4512.02  4518.23
                             5029.96

 Zero-point correction=                           0.153830 (Hartree/Particle)
 Thermal correction to Energy=                    0.164657
 Thermal correction to Enthalpy=                  0.165601
 Thermal correction to Gibbs Free Energy=         0.116640
 Sum of electronic and zero-point Energies=           -422.994953
 Sum of electronic and thermal Energies=              -422.984126
 Sum of electronic and thermal Enthalpies=            -422.983182
 Sum of electronic and thermal Free Energies=         -423.032143

                     E (Thermal)             CV                S
                      KCal/Mol        Cal/Mol-Kelvin    Cal/Mol-Kelvin
 Total                  103.324             38.396            103.048
 Electronic               0.000              0.000              0.000
 Translational            0.889              2.981             40.409
 Rotational               0.889              2.981             29.009
 Vibrational            101.546             32.434             33.631
 Vibration     1          0.593              1.987              7.895
 Vibration     2          0.598              1.967              4.100
 Vibration     3          0.613              1.920              2.901
 Vibration     4          0.630              1.864              2.306
 Vibration     5          0.638              1.838              2.120
 Vibration     6          0.648              1.807              1.938
 Vibration     7          0.663              1.763              1.733
 Vibration     8          0.671              1.737              1.630
 Vibration     9          0.692              1.676              1.422
 Vibration    10          0.713              1.615              1.259
 Vibration    11          0.721              1.591              1.202
 Vibration    12          0.773              1.451              0.930
 Vibration    13          0.788              1.413              0.871
 Vibration    14          0.839              1.289              0.704

 Normal termination of Gaussian 09 at Tue Jan 28 10:15:20 2020.
