 Gaussian 09, Revision D.01,
 Gaussian 09:  ES64L-G09RevD.01 24-Apr-2013

 -----------------------------
 # b3lyp 6-31G(2df,p) opt Freq
 -----------------------------

 -----
 titel
 -----
 Symbolic Z-matrix:
 Charge =  0 Multiplicity = 1

 SCF Done:  E(RB3LYP) =  -423.112464655     A.U. after   14 cycles
 Optimization completed.
    -- Stationary point found.
 Normal termination of Gaussian 09 at Tue Jan 28 08:19:39 2020.

 ----------------------------------------------------------------------
 #N Geom=AllCheck Guess=TCheck SCRF=Check GenChk RB3LYP/6-31G(2df,p) Fr
 eq
 ----------------------------------------------------------------------

 Structure from the checkpoint file:  "/scratch/puck/g09_4d74ec9e-e9e3-414c-83cd-21b9002ec8bf/Gau-59993.chk"
 -----
 titel
 -----
 Charge =  0 Multiplicity = 1

                         Standard orientation:
 ---------------------------------------------------------------------
 Center     Atomic      Atomic             Coordinates (Angstroms)
 Number     Number       Type             X           Y           Z
 ---------------------------------------------------------------------
      1          6           0        2.260179   -1.582463   -0.356813
      2          8           0        0.957742   -1.036924   -0.407910
      3          6           0        0.741104    0.013441    0.509763
      4          6           0        1.457834    1.242580    0.136001
      5          6           0        2.035157    2.249499   -0.176100
      6          6           0       -0.756291    0.285993    0.608290
      7          8           0       -1.581711   -0.828433    0.916302
      8          6           0       -1.721739   -0.211242   -0.377208
      9          6           0       -3.025221    0.489828   -0.653630
     10          1           0        2.486179   -1.987454    0.641222
     11          1           0        2.290944   -2.395176   -1.085423
     12          1           0        3.023841   -0.836496   -0.615597
     13          1           0        1.084729   -0.297543    1.512792
     14          1           0        2.548731    3.138103   -0.450100
     15          1           0       -0.987025    1.198316    1.159880
     16          1           0       -1.320982   -0.821461   -1.183769
     17          1           0       -3.813955   -0.238039   -0.870745
     18          1           0       -3.338735    1.088214    0.206100
     19          1           0       -2.928103    1.148578   -1.523311
 ---------------------------------------------------------------------

 SCF Done:  E(RB3LYP) =  -423.112464655     A.U. after    1 cycles

 The electronic state is 1-A.
 Alpha  occ. eigenvalues --  -19.15106 -19.14419 -10.26340 -10.23747 -10.23282
 Alpha  occ. eigenvalues --  -10.22729 -10.18886 -10.18464 -10.18076  -1.07000
 Alpha  occ. eigenvalues --   -1.04151  -0.79036  -0.74216  -0.72929  -0.67154
 Alpha  occ. eigenvalues --   -0.62602  -0.58727  -0.54409  -0.50748  -0.49944
 Alpha  occ. eigenvalues --   -0.49200  -0.45639  -0.44014  -0.42034  -0.41392
 Alpha  occ. eigenvalues --   -0.39504  -0.36662  -0.36397  -0.33719  -0.29454
 Alpha  occ. eigenvalues --   -0.28498  -0.27800  -0.27013  -0.25837
 Alpha virt. eigenvalues --    0.03029   0.04399   0.10028   0.11185   0.11562
 Alpha virt. eigenvalues --    0.12181   0.13063   0.14305   0.14496   0.16269
 Alpha virt. eigenvalues --    0.16411   0.17234   0.17886   0.18362   0.19446

 Mulliken charges:
               1
     1  C   -0.237915
     2  O   -0.224326
     3  C   -0.081999
     4  C    0.332645
     5  C   -0.483398
     6  C    0.031903
     7  O   -0.267086
     8  C    0.092773
     9  C   -0.423109
    10  H    0.110327
    11  H    0.131738
    12  H    0.120250
    13  H    0.103223
    14  H    0.202961
    15  H    0.100043
    16  H    0.112348
    17  H    0.129567
    18  H    0.125064
    19  H    0.124989
 Sum of Mulliken charges =   0.00000

 Dipole moment (field-independent basis, Debye):
    X=              1.1374    Y=              1.2337    Z=             -0.6386  Tot=              1.7954
 Quadrupole moment (field-independent basis, Debye-Ang):
   XX=            -48.6969   YY=            -50.3454   ZZ=            -53.5906
   XY=             -2.0200   XZ=              2.2563   YZ=              1.0019

  Exact polarizability:  88.329   6.382  83.599   1.048  -1.146  62.963
 Approx polarizability: 109.672  18.926 127.055  -1.325  -6.805  98.407

                      1                      2                      3
                      A                      A                      A
 Frequencies --     57.2046                89.0486               120.1593
 Red. masses --      3.7957                 2.7025                 3.4138
 Frc consts  --      0.0073                 0.0126                 0.0290
 IR Inten    --      1.9181                 3.8539                 0.8081

                      4                      5                      6
                      A                      A                      A
 Frequencies --    153.9695               176.6594               203.1467
 Red. masses --      2.9032                 1.5605                 1.1852
 Frc consts  --      0.0406                 0.0287                 0.0288
 IR Inten    --      0.3671                 0.1133                 0.0255

                      7                      8                      9
                      A                      A                      A
 Frequencies --    235.9621               271.1626               327.3127
 Red. masses --      2.0720                 3.4188                 2.8335
 Frc consts  --      0.0680                 0.1481                 0.1789
 IR Inten    --      1.3627                 3.6588                 3.5780

                     10                     11                     12
                      A                      A                      A
 Frequencies --    346.5804               434.2745               495.3240
 Red. masses --      3.8341                 3.9512                 6.1465
 Frc consts  --      0.2713                 0.4390                 0.8885
 IR Inten    --      1.7995                10.3854                 3.6158

                     13                     14                     15
                      A                      A                      A
 Frequencies --    577.8331               634.6886               662.7938
 Red. masses --      6.1359                 1.3346                 3.3451
 Frc consts  --      1.2071                 0.3167                 0.8658
 IR Inten    --      9.2469                35.9843                 9.5878

                     16                     17                     18
                      A                      A                      A
 Frequencies --    685.1609               797.5948               829.5594
 Red. masses --      1.2657                 4.1294                 3.0736
 Frc consts  --      0.3501                 1.5478                 1.2462
 IR Inten    --     34.8482                12.4848                23.3602

                     19                     20                     21
                      A                      A                      A
 Frequencies --    928.8051               977.3728              1000.5983
 Red. masses --      2.6293                 3.1334                 2.3360
 Frc consts  --      1.3364                 1.7635                 1.3780
 IR Inten    --      2.1261                47.3826                 2.0526

                     22                     23                     24
                      A                      A                      A
 Frequencies --   1041.4737              1074.3679              1101.3304
 Red. masses --      1.6116                 2.1853                 2.6172
 Frc consts  --      1.0299                 1.4862                 1.8704
 IR Inten    --     21.0030                38.8788                33.7623

                     25                     26                     27
                      A                      A                      A
 Frequencies --   1150.8557              1171.6489              1181.8157
 Red. masses --      3.7791                 1.8356                 1.5591
 Frc consts  --      2.9490                 1.4846                 1.2830
 IR Inten    --     94.8515                37.0148                 1.3560

                     28                     29                     30
                      A                      A                      A
 Frequencies --   1184.8285              1219.7537              1280.5609
 Red. masses --      1.3276                 1.5301                 1.3731
 Frc consts  --      1.0981                 1.3413                 1.3267
 IR Inten    --      3.0260                19.0516                10.5098

                     31                     32                     33
                      A                      A                      A
 Frequencies --   1315.7788              1349.9482              1365.1557
 Red. masses --      1.3951                 1.2937                 1.2131
 Frc consts  --      1.4231                 1.3890                 1.3321
 IR Inten    --     14.0337                 4.0403                28.2803

                     34                     35                     36
                      A                      A                      A
 Frequencies --   1411.1950              1472.3842              1480.2261
 Red. masses --      1.2657                 1.3231                 1.1277
 Frc consts  --      1.4851                 1.6900                 1.4557
 IR Inten    --      6.7664                 6.1131                 1.5534

                     37                     38                     39
                      A                      A                      A
 Frequencies --   1486.0526              1490.5436              1509.1062
 Red. masses --      1.0531                 1.1111                 1.1328
 Frc consts  --      1.3702                 1.4545                 1.5200
 IR Inten    --      2.5158                 7.0895                 4.5395

                     40                     41                     42
                      A                      A                      A
 Frequencies --   1511.7677              2230.7742              2943.4430
 Red. masses --      1.6446                 5.8821                 1.0796
 Frc consts  --      2.2145                17.2464                 5.5108
 IR Inten    --      7.9713                 2.0462                27.7441

                     43                     44                     45
                      A                      A                      A
 Frequencies --   2987.4047              3036.4936              3045.8912
 Red. masses --      1.0384                 1.0354                 1.1004
 Frc consts  --      5.4599                 5.6249                 6.0148
 IR Inten    --     58.9138                19.2941                38.9869

                     46                     47                     48
                      A                      A                      A
 Frequencies --   3101.6998              3104.7734              3116.3781
 Red. masses --      1.1007                 1.0876                 1.0997
 Frc consts  --      6.2389                 6.1773                 6.2924
 IR Inten    --     17.0983                17.6619                 8.5926

                     49                     50                     51
                      A                      A                      A
 Frequencies --   3125.6136              3148.7891              3501.2320
 Red. masses --      1.0980                 1.0890                 1.1629
 Frc consts  --      6.3200                 6.3614                 8.3991
 IR Inten    --     22.4103                20.7782                62.2542

 - Thermochemistry -
 -------------------
 Temperature   298.150 Kelvin.  Pressure   1.00000 Atm.
 Atom     1 has atomic number  6 and mass  12.00000

 Molecular mass:   126.06808 amu.
 Principal axes and moments of inertia in atomic units:
                           1         2         3
     Eigenvalues --   747.945711640.085182081.65824
           X            0.99886  -0.04573   0.01378
           Y            0.04564   0.99893   0.00689
           Z           -0.01408  -0.00625   0.99988
 This molecule is an asymmetric top.
 Rotational symmetry number  1.
 Warning -- assumption of classical behavior for rotation
           may cause significant error
 Rotational temperatures (Kelvin)      0.11580     0.05281     0.04161
 Rotational constants (GHZ):           2.41293     1.10039     0.86697
 Zero-point vibrational energy     407606.6 (Joules/Mol)
                                   97.42031 (Kcal/Mol)
 Warning -- explicit consideration of  13 degrees of freedom as
           vibrations may cause significant error
 Vibrational temperatures:     82.30   128.12   172.88   221.53   254.17
          (Kelvin)            292.28   339.50   390.14   470.93   498.65
                              624.82   712.66   831.37   913.17   953.61
                              985.79  1147.56  1193.55  1336.34  1406.22
                             1439.64  1498.45  1545.77  1584.57  1655.82
                             1685.74  1700.37  1704.70  1754.95  1842.44
                             1893.11  1942.27  1964.15  2030.39  2118.43
                             2129.71  2138.10  2144.56  2171.26  2175.09
                             3209.58  4234.95  4298.20  4368.83  4382.35
                             4462.65  4467.07  4483.77  4497.06  4530.40
                             5037.49

 Zero-point correction=                           0.155249 (Hartree/Particle)
 Thermal correction to Energy=                    0.165455
 Thermal correction to Enthalpy=                  0.166399
 Thermal correction to Gibbs Free Energy=         0.119625
 Sum of electronic and zero-point Energies=           -422.957216
 Sum of electronic and thermal Energies=              -422.947010
 Sum of electronic and thermal Enthalpies=            -422.946066
 Sum of electronic and thermal Free Energies=         -422.992840

                     E (Thermal)             CV                S
                      KCal/Mol        Cal/Mol-Kelvin    Cal/Mol-Kelvin
 Total                  103.824             36.217             98.444
 Electronic               0.000              0.000              0.000
 Translational            0.889              2.981             40.409
 Rotational               0.889              2.981             29.325
 Vibrational            102.047             30.255             28.710
 Vibration     1          0.596              1.975              4.551
 Vibration     2          0.602              1.957              3.681
 Vibration     3          0.609              1.932              3.098
 Vibration     4          0.619              1.898              2.623
 Vibration     5          0.628              1.871              2.363
 Vibration     6          0.639              1.835              2.104
 Vibration     7          0.655              1.786              1.833
 Vibration     8          0.675              1.726              1.589
 Vibration     9          0.711              1.621              1.273
 Vibration    10          0.725              1.582              1.182
 Vibration    11          0.795              1.396              0.845
 Vibration    12          0.851              1.260              0.670
 Vibration    13          0.934              1.079              0.489

 Optimization completed.
    -- Stationary point found.
 Normal termination of Gaussian 09 at Tue Jan 28 09:59:52 2020.
