 Gaussian 09, Revision D.01,
 Gaussian 09:  ES64L-G09RevD.01 24-Apr-2013

 -----------------------------
 # b3lyp 6-31G(2df,p) opt Freq
 -----------------------------

 -----
 titel
 -----
 Symbolic Z-matrix:
 Charge =  0 Multiplicity = 1

 SCF Done:  E(RB3LYP) =  -423.231994603     A.U. after   14 cycles
 Optimization completed.
    -- Stationary point found.
 Normal termination of Gaussian 09 at Tue Jan 28 11:48:15 2020.

 ----------------------------------------------------------------------
 #N Geom=AllCheck Guess=TCheck SCRF=Check GenChk RB3LYP/6-31G(2df,p) Fr
 eq
 ----------------------------------------------------------------------

 Structure from the checkpoint file:  "/scratch/puck/g09_926e3f87-3e33-45f7-a832-09fd7dc7cb9c/Gau-89615.chk"
 -----
 titel
 -----
 Charge =  0 Multiplicity = 1

                         Standard orientation:
 ---------------------------------------------------------------------
 Center     Atomic      Atomic             Coordinates (Angstroms)
 Number     Number       Type             X           Y           Z
 ---------------------------------------------------------------------
      1          6           0       -3.227892   -0.194876    0.081818
      2          6           0       -1.952778    0.569292   -0.283438
      3          6           0       -0.679176   -0.036375    0.310426
      4          6           0       -0.240909   -1.422019   -0.224851
      5          6           0        1.262179   -1.538189    0.109490
      6          6           0        1.791199   -0.115898    0.011715
      7          8           0        2.925160    0.254208   -0.125504
      8          6           0        0.556366    0.833417    0.111505
      9          8           0        0.609294    2.030788    0.023448
     10          1           0       -4.108721    0.287221   -0.352347
     11          1           0       -3.202434   -1.226512   -0.284541
     12          1           0       -3.370181   -0.231417    1.167784
     13          1           0       -1.845115    0.614694   -1.374791
     14          1           0       -2.022345    1.608150    0.056425
     15          1           0       -0.800900   -0.118377    1.404336
     16          1           0       -0.827221   -2.240285    0.197326
     17          1           0       -0.381729   -1.449632   -1.312259
     18          1           0        1.404646   -1.875142    1.145639
     19          1           0        1.824438   -2.220785   -0.531119
 ---------------------------------------------------------------------

 SCF Done:  E(RB3LYP) =  -423.231994603     A.U. after    1 cycles

 The electronic state is 1-A.
 Alpha  occ. eigenvalues --  -19.15299 -19.15213 -10.27863 -10.27570 -10.20879
 Alpha  occ. eigenvalues --  -10.20806 -10.20684 -10.19445 -10.18533  -1.06870
 Alpha  occ. eigenvalues --   -1.04788  -0.85411  -0.78242  -0.71104  -0.67842
 Alpha  occ. eigenvalues --   -0.63095  -0.57840  -0.51128  -0.50038  -0.47748
 Alpha  occ. eigenvalues --   -0.46244  -0.45337  -0.43175  -0.42335  -0.41995
 Alpha  occ. eigenvalues --   -0.40131  -0.39256  -0.36747  -0.36469  -0.35833
 Alpha  occ. eigenvalues --   -0.34208  -0.33610  -0.30401  -0.22936
 Alpha virt. eigenvalues --   -0.08665   0.04433   0.07779   0.09512   0.10254
 Alpha virt. eigenvalues --    0.12839   0.14362   0.14543   0.15399   0.16910
 Alpha virt. eigenvalues --    0.17632   0.18631   0.19355   0.20390   0.21630

 Mulliken charges:
               1
     1  C   -0.393248
     2  C   -0.183535
     3  C   -0.099939
     4  C   -0.245265
     5  C   -0.338186
     6  C    0.323410
     7  O   -0.276865
     8  C    0.301871
     9  O   -0.289611
    10  H    0.121045
    11  H    0.118279
    12  H    0.116834
    13  H    0.103389
    14  H    0.123264
    15  H    0.108446
    16  H    0.116606
    17  H    0.116611
    18  H    0.138746
    19  H    0.138147
 Sum of Mulliken charges =   0.00000

 Dipole moment (field-independent basis, Debye):
    X=             -2.9287    Y=             -3.3736    Z=              0.4923  Tot=              4.4945
 Quadrupole moment (field-independent basis, Debye-Ang):
   XX=            -61.3198   YY=            -57.1851   ZZ=            -50.5284
   XY=             -4.4127   XZ=              0.8285   YZ=              0.0771

  Exact polarizability:  91.107  -0.161  78.043  -1.037  -0.963  59.012
 Approx polarizability: 119.612   4.255 120.317  -3.168  -2.746  94.032

                      1                      2                      3
                      A                      A                      A
 Frequencies --     55.9599                88.6078               143.2779
 Red. masses --      5.6929                 2.2604                 2.1346
 Frc consts  --      0.0105                 0.0105                 0.0258
 IR Inten    --      0.8316                 0.6812                 0.7885

                      4                      5                      6
                      A                      A                      A
 Frequencies --    167.9129               226.6677               307.4151
 Red. masses --      2.7582                 1.2253                 5.5360
 Frc consts  --      0.0458                 0.0371                 0.3082
 IR Inten    --      3.1537                 1.0749                 4.1902

                      7                      8                      9
                      A                      A                      A
 Frequencies --    318.9833               337.4593               425.5568
 Red. masses --      3.5161                 3.7660                 2.6581
 Frc consts  --      0.2108                 0.2527                 0.2836
 IR Inten    --      4.1635                 2.7048                 2.3487

                     10                     11                     12
                      A                      A                      A
 Frequencies --    506.9571               562.2808               585.4225
 Red. masses --      4.8417                 2.6108                 3.7137
 Frc consts  --      0.7331                 0.4863                 0.7499
 IR Inten    --      0.2997                 5.0835                 5.6233

                     13                     14                     15
                      A                      A                      A
 Frequencies --    679.8783               740.0030               770.1528
 Red. masses --      4.4304                 3.1652                 1.2419
 Frc consts  --      1.2066                 1.0212                 0.4340
 IR Inten    --      3.5276                 2.5122                 2.5323

                     16                     17                     18
                      A                      A                      A
 Frequencies --    855.7149               884.8684               949.6692
 Red. masses --      1.7958                 3.0169                 1.5340
 Frc consts  --      0.7747                 1.3918                 0.8151
 IR Inten    --      2.5825                14.3586                 3.1546

                     19                     20                     21
                      A                      A                      A
 Frequencies --    956.4308               997.8618              1023.9499
 Red. masses --      1.7927                 1.9532                 2.1624
 Frc consts  --      0.9662                 1.1459                 1.3358
 IR Inten    --      5.0962                 1.2313                32.9219

                     22                     23                     24
                      A                      A                      A
 Frequencies --   1047.6724              1076.6541              1130.9881
 Red. masses --      2.1725                 2.4311                 1.8913
 Frc consts  --      1.4050                 1.6604                 1.4254
 IR Inten    --     17.3665                18.0181                 6.6837

                     25                     26                     27
                      A                      A                      A
 Frequencies --   1170.0257              1182.5170              1216.6932
 Red. masses --      1.7811                 2.7603                 1.5061
 Frc consts  --      1.4366                 2.2741                 1.3136
 IR Inten    --      4.2022                27.3785                 4.5729

                     28                     29                     30
                      A                      A                      A
 Frequencies --   1273.1077              1279.0892              1305.2262
 Red. masses --      1.4450                 1.5433                 1.2468
 Frc consts  --      1.3799                 1.4876                 1.2515
 IR Inten    --      3.4121                 6.5805                 1.4752

                     31                     32                     33
                      A                      A                      A
 Frequencies --   1325.4653              1344.1679              1377.6672
 Red. masses --      1.2392                 1.4921                 1.5742
 Frc consts  --      1.2827                 1.5884                 1.7603
 IR Inten    --      0.6959                 2.0227                15.7799

                     34                     35                     36
                      A                      A                      A
 Frequencies --   1415.3664              1446.8643              1487.3058
 Red. masses --      1.2391                 1.0832                 1.0609
 Frc consts  --      1.4625                 1.3360                 1.3827
 IR Inten    --      1.6361                10.2775                 1.6290

                     37                     38                     39
                      A                      A                      A
 Frequencies --   1499.2558              1503.7609              1507.6841
 Red. masses --      1.0502                 1.0735                 1.0731
 Frc consts  --      1.3908                 1.4302                 1.4372
 IR Inten    --      6.5151                 0.3200                 3.6668

                     40                     41                     42
                      A                      A                      A
 Frequencies --   1839.0982              1858.6635              2966.9635
 Red. masses --     13.0510                12.8682                 1.0791
 Frc consts  --     26.0079                26.1921                 5.5968
 IR Inten    --    213.3079                47.9552                 8.5384

                     43                     44                     45
                      A                      A                      A
 Frequencies --   3026.3855              3028.9912              3033.3243
 Red. masses --      1.0695                 1.0600                 1.0405
 Frc consts  --      5.7713                 5.7301                 5.6406
 IR Inten    --      5.4895                 5.8228                30.9658

                     46                     47                     48
                      A                      A                      A
 Frequencies --   3041.0332              3072.2146              3100.6015
 Red. masses --      1.0655                 1.0972                 1.1018
 Frc consts  --      5.8057                 6.1017                 6.2409
 IR Inten    --     30.5282                 2.1762                41.1375

                     49                     50                     51
                      A                      A                      A
 Frequencies --   3105.7518              3108.6956              3113.9458
 Red. masses --      1.0976                 1.0989                 1.0959
 Frc consts  --      6.2378                 6.2573                 6.2608
 IR Inten    --     11.7508                37.4356                 9.7686

 - Thermochemistry -
 -------------------
 Temperature   298.150 Kelvin.  Pressure   1.00000 Atm.
 Atom     1 has atomic number  6 and mass  12.00000

 Molecular mass:   126.06808 amu.
 Principal axes and moments of inertia in atomic units:
                           1         2         3
     Eigenvalues --   587.966141589.952802090.65140
           X            0.99988  -0.01526   0.00165
           Y            0.01526   0.99988  -0.00329
           Z           -0.00160   0.00331   0.99999
 This molecule is an asymmetric top.
 Rotational symmetry number  1.
 Warning -- assumption of classical behavior for rotation
           may cause significant error
 Rotational temperatures (Kelvin)      0.14731     0.05448     0.04143
 Rotational constants (GHZ):           3.06946     1.13509     0.86324
 Zero-point vibrational energy     415524.1 (Joules/Mol)
                                   99.31265 (Kcal/Mol)
 Warning -- explicit consideration of  12 degrees of freedom as
           vibrations may cause significant error
 Vibrational temperatures:     80.51   127.49   206.14   241.59   326.12
          (Kelvin)            442.30   458.95   485.53   612.28   729.40
                              809.00   842.29   978.19  1064.70  1108.08
                             1231.18  1273.13  1366.36  1376.09  1435.70
                             1473.23  1507.37  1549.06  1627.24  1683.40
                             1701.38  1750.55  1831.72  1840.32  1877.93
                             1907.05  1933.96  1982.15  2036.39  2081.71
                             2139.90  2157.09  2163.57  2169.22  2646.05
                             2674.20  4268.79  4354.29  4358.04  4364.27
                             4375.36  4420.23  4461.07  4468.48  4472.71
                             4480.27

 Zero-point correction=                           0.158265 (Hartree/Particle)
 Thermal correction to Energy=                    0.167319
 Thermal correction to Enthalpy=                  0.168263
 Thermal correction to Gibbs Free Energy=         0.123878
 Sum of electronic and zero-point Energies=           -423.073730
 Sum of electronic and thermal Energies=              -423.064676
 Sum of electronic and thermal Enthalpies=            -423.063731
 Sum of electronic and thermal Free Energies=         -423.108116

                     E (Thermal)             CV                S
                      KCal/Mol        Cal/Mol-Kelvin    Cal/Mol-Kelvin
 Total                  104.994             33.109             93.416
 Electronic               0.000              0.000              0.000
 Translational            0.889              2.981             40.409
 Rotational               0.889              2.981             29.059
 Vibrational            103.217             27.148             23.948
 Vibration     1          0.596              1.975              4.595
 Vibration     2          0.601              1.957              3.691
 Vibration     3          0.616              1.910              2.760
 Vibration     4          0.625              1.882              2.459
 Vibration     5          0.650              1.800              1.905
 Vibration     6          0.697              1.660              1.376
 Vibration     7          0.705              1.637              1.315
 Vibration     8          0.718              1.601              1.224
 Vibration     9          0.787              1.415              0.873
 Vibration    10          0.862              1.235              0.641
 Vibration    11          0.918              1.113              0.519
 Vibration    12          0.942              1.063              0.475

 Optimization completed.
    -- Stationary point found.
 Normal termination of Gaussian 09 at Tue Jan 28 13:18:13 2020.
