 Gaussian 09, Revision D.01,
 Gaussian 09:  ES64L-G09RevD.01 24-Apr-2013

 -----------------------------
 # b3lyp 6-31G(2df,p) opt Freq
 -----------------------------

 -----
 titel
 -----
 Symbolic Z-matrix:
 Charge =  0 Multiplicity = 1

 SCF Done:  E(RB3LYP) =  -423.105060272     A.U. after   14 cycles
 Optimization completed.
    -- Stationary point found.
 Normal termination of Gaussian 09 at Mon Jan 27 11:18:46 2020.

 ----------------------------------------------------------------------
 #N Geom=AllCheck Guess=TCheck SCRF=Check GenChk RB3LYP/6-31G(2df,p) Fr
 eq
 ----------------------------------------------------------------------

 Structure from the checkpoint file:  "/scratch/puck/g09_558b67ca-4337-47ab-8419-ae7559931aee/Gau-150500.chk"
 -----
 titel
 -----
 Charge =  0 Multiplicity = 1

                         Standard orientation:
 ---------------------------------------------------------------------
 Center     Atomic      Atomic             Coordinates (Angstroms)
 Number     Number       Type             X           Y           Z
 ---------------------------------------------------------------------
      1          6           0       -2.000879    0.578256   -0.264666
      2          6           0       -0.902344    1.400561    0.423557
      3          6           0        0.543481    1.121011   -0.014153
      4          6           0        1.415811    0.131422    0.799588
      5          8           0        2.343038    0.051237   -0.347460
      6          6           0        0.985092   -0.074361   -0.922710
      7          6           0        0.640174   -1.081281    0.206016
      8          6           0       -0.838057   -1.399663    0.475035
      9          8           0       -1.693381   -0.790212   -0.477100
     10          1           0       -2.928248    0.669765    0.323676
     11          1           0       -2.207802    0.982944   -1.261819
     12          1           0       -1.139147    2.456074    0.252345
     13          1           0       -0.970987    1.262259    1.509076
     14          1           0        1.096694    2.028854   -0.263115
     15          1           0        1.852622    0.255565    1.792539
     16          1           0        0.905156   -0.193622   -2.002759
     17          1           0        1.265509   -1.976510    0.175289
     18          1           0       -0.996272   -2.474651    0.348875
     19          1           0       -1.134450   -1.154538    1.506368
 ---------------------------------------------------------------------

 SCF Done:  E(RB3LYP) =  -423.105060272     A.U. after    1 cycles

 The electronic state is 1-A.
 Alpha  occ. eigenvalues --  -19.13853 -19.12893 -10.24516 -10.24365 -10.23198
 Alpha  occ. eigenvalues --  -10.23143 -10.19777 -10.19355 -10.19154  -1.05506
 Alpha  occ. eigenvalues --   -1.03001  -0.80419  -0.77582  -0.68775  -0.67366
 Alpha  occ. eigenvalues --   -0.64871  -0.57761  -0.52896  -0.51802  -0.49576
 Alpha  occ. eigenvalues --   -0.47749  -0.44685  -0.43326  -0.41465  -0.40863
 Alpha  occ. eigenvalues --   -0.39048  -0.36544  -0.35207  -0.32911  -0.31729
 Alpha  occ. eigenvalues --   -0.30403  -0.29692  -0.25697  -0.23141
 Alpha virt. eigenvalues --    0.06460   0.09094   0.09975   0.11706   0.12354
 Alpha virt. eigenvalues --    0.13136   0.13679   0.14526   0.14618   0.16619
 Alpha virt. eigenvalues --    0.17078   0.17432   0.18606   0.19692   0.21374

 Mulliken charges:
               1
     1  C   -0.059984
     2  C   -0.294149
     3  C    0.020730
     4  C    0.015261
     5  O   -0.309520
     6  C    0.025029
     7  C    0.004642
     8  C   -0.140248
     9  O   -0.243737
    10  H    0.091334
    11  H    0.109577
    12  H    0.108849
    13  H    0.110416
    14  H    0.084933
    15  H    0.087670
    16  H    0.096673
    17  H    0.084034
    18  H    0.114474
    19  H    0.094015
 Sum of Mulliken charges =   0.00000

 Dipole moment (field-independent basis, Debye):
    X=             -1.4357    Y=              0.7072    Z=              1.3103  Tot=              2.0684
 Quadrupole moment (field-independent basis, Debye-Ang):
   XX=            -61.1708   YY=            -50.7168   ZZ=            -50.8474
   XY=             -2.5362   XZ=              0.3514   YZ=             -1.1865

  Exact polarizability:  78.176  -2.715  75.897   0.379  -1.093  67.982
 Approx polarizability: 109.866  -2.407 108.651   0.659  -0.347 109.216

                      1                      2                      3
                      A                      A                      A
 Frequencies --    120.7501               188.3949               243.7606
 Red. masses --      2.1742                 3.2019                 2.5904
 Frc consts  --      0.0187                 0.0670                 0.0907
 IR Inten    --      2.0969                 3.0447                 2.7967

                      4                      5                      6
                      A                      A                      A
 Frequencies --    325.3846               355.3732               439.9314
 Red. masses --      2.3452                 5.1949                 4.3951
 Frc consts  --      0.1463                 0.3865                 0.5012
 IR Inten    --      0.4026                 2.8691                 0.3332

                      7                      8                      9
                      A                      A                      A
 Frequencies --    531.0491               628.7101               677.6179
 Red. masses --      4.9477                 2.5820                 3.9230
 Frc consts  --      0.8221                 0.6013                 1.0613
 IR Inten    --      2.0784                 5.0877                 7.2585

                     10                     11                     12
                      A                      A                      A
 Frequencies --    721.9194               765.6241               820.2598
 Red. masses --      4.0422                 2.3525                 2.4286
 Frc consts  --      1.2412                 0.8125                 0.9627
 IR Inten    --      5.5624                 8.1724                 4.6309

                     13                     14                     15
                      A                      A                      A
 Frequencies --    862.0630               882.1979               896.2952
 Red. masses --      3.4550                 3.2249                 3.1698
 Frc consts  --      1.5128                 1.4788                 1.5003
 IR Inten    --     12.4532                12.4375                32.1483

                     16                     17                     18
                      A                      A                      A
 Frequencies --    924.7916               941.4744               972.7481
 Red. masses --      3.0948                 2.4681                 2.0914
 Frc consts  --      1.5595                 1.2889                 1.1660
 IR Inten    --      2.2023                 9.2461                 9.8807

                     19                     20                     21
                      A                      A                      A
 Frequencies --   1013.0886              1049.0035              1061.4343
 Red. masses --      1.1517                 2.6012                 2.4821
 Frc consts  --      0.6964                 1.6865                 1.6476
 IR Inten    --      1.6635                 0.7139                16.1837

                     22                     23                     24
                      A                      A                      A
 Frequencies --   1093.6970              1117.3659              1143.3373
 Red. masses --      1.8805                 2.1060                 1.3325
 Frc consts  --      1.3253                 1.5492                 1.0263
 IR Inten    --     10.2385                 1.8311                 5.4974

                     25                     26                     27
                      A                      A                      A
 Frequencies --   1161.1107              1174.2831              1202.4353
 Red. masses --      3.7462                 2.1853                 1.4149
 Frc consts  --      2.9757                 1.7754                 1.2053
 IR Inten    --     76.9965                 4.0404                 0.1094

                     28                     29                     30
                      A                      A                      A
 Frequencies --   1209.9104              1250.1818              1258.3223
 Red. masses --      1.6619                 1.3922                 1.3856
 Frc consts  --      1.4334                 1.2821                 1.2926
 IR Inten    --     12.7811                17.6831                 1.6588

                     31                     32                     33
                      A                      A                      A
 Frequencies --   1274.5065              1288.9864              1311.7841
 Red. masses --      1.3606                 1.5410                 1.2238
 Frc consts  --      1.3021                 1.5085                 1.2407
 IR Inten    --     13.8711                13.5106                10.0039

                     34                     35                     36
                      A                      A                      A
 Frequencies --   1335.0170              1376.0846              1385.9536
 Red. masses --      1.4442                 1.3603                 1.3234
 Frc consts  --      1.5165                 1.5177                 1.4978
 IR Inten    --      2.4485                 0.4852                 0.9340

                     37                     38                     39
                      A                      A                      A
 Frequencies --   1408.3731              1424.9689              1485.5411
 Red. masses --      1.4891                 1.3124                 1.0806
 Frc consts  --      1.7403                 1.5701                 1.4050
 IR Inten    --      8.9167                 5.5934                 3.1188

                     40                     41                     42
                      A                      A                      A
 Frequencies --   1501.6893              1517.3862              2972.0427
 Red. masses --      1.0750                 1.0895                 1.0710
 Frc consts  --      1.4284                 1.4780                 5.5737
 IR Inten    --      4.6101                 0.6734                78.3511

                     43                     44                     45
                      A                      A                      A
 Frequencies --   2986.5361              3032.6880              3051.8318
 Red. masses --      1.0705                 1.0661                 1.0898
 Frc consts  --      5.6258                 5.7772                 5.9802
 IR Inten    --     45.4271                26.3597                18.6730

                     46                     47                     48
                      A                      A                      A
 Frequencies --   3071.6082              3073.6508              3090.6544
 Red. masses --      1.0949                 1.0931                 1.0884
 Frc consts  --      6.0863                 6.0845                 6.1257
 IR Inten    --     22.0527                13.8661                33.3038

                     49                     50                     51
                      A                      A                      A
 Frequencies --   3093.4074              3101.0141              3126.0522
 Red. masses --      1.0869                 1.0915                 1.0946
 Frc consts  --      6.1278                 6.1842                 6.3022
 IR Inten    --     74.9137                47.5616                31.4272

 - Thermochemistry -
 -------------------
 Temperature   298.150 Kelvin.  Pressure   1.00000 Atm.
 Atom     1 has atomic number  6 and mass  12.00000

 Molecular mass:   126.06808 amu.
 Principal axes and moments of inertia in atomic units:
                           1         2         3
     Eigenvalues --   566.464551116.871011372.85038
           X            0.99959  -0.02847  -0.00239
           Y            0.02843   0.99948  -0.01505
           Z            0.00281   0.01497   0.99988
 This molecule is an asymmetric top.
 Rotational symmetry number  1.
 Warning -- assumption of classical behavior for rotation
           may cause significant error
 Rotational temperatures (Kelvin)      0.15290     0.07755     0.06309
 Rotational constants (GHZ):           3.18597     1.61589     1.31459
 Zero-point vibrational energy     424329.1 (Joules/Mol)
                                  101.41710 (Kcal/Mol)
 Warning -- explicit consideration of   7 degrees of freedom as
           vibrations may cause significant error
 Vibrational temperatures:    173.73   271.06   350.72   468.16   511.30
          (Kelvin)            632.96   764.06   904.57   974.94  1038.68
                             1101.56  1180.17  1240.31  1269.28  1289.57
                             1330.57  1354.57  1399.57  1457.61  1509.28
                             1527.17  1573.58  1607.64  1645.01  1670.58
                             1689.53  1730.03  1740.79  1798.73  1810.44
                             1833.73  1854.56  1887.36  1920.79  1979.88
                             1994.08  2026.33  2050.21  2137.36  2160.59
                             2183.18  4276.10  4296.95  4363.36  4390.90
                             4419.35  4422.29  4446.76  4450.72  4461.66
                             4497.69

 Zero-point correction=                           0.161618 (Hartree/Particle)
 Thermal correction to Energy=                    0.168635
 Thermal correction to Enthalpy=                  0.169580
 Thermal correction to Gibbs Free Energy=         0.130274
 Sum of electronic and zero-point Energies=           -422.943442
 Sum of electronic and thermal Energies=              -422.936425
 Sum of electronic and thermal Enthalpies=            -422.935481
 Sum of electronic and thermal Free Energies=         -422.974786

                     E (Thermal)             CV                S
                      KCal/Mol        Cal/Mol-Kelvin    Cal/Mol-Kelvin
 Total                  105.820             28.379             82.726
 Electronic               0.000              0.000              0.000
 Translational            0.889              2.981             40.409
 Rotational               0.889              2.981             28.254
 Vibrational            104.043             22.418             14.064
 Vibration     1          0.609              1.932              3.088
 Vibration     2          0.633              1.856              2.244
 Vibration     3          0.659              1.773              1.775
 Vibration     4          0.709              1.625              1.283
 Vibration     5          0.731              1.564              1.142
 Vibration     6          0.800              1.383              0.827
 Vibration     7          0.886              1.181              0.585

 Normal termination of Gaussian 09 at Mon Jan 27 12:07:40 2020.
