 Gaussian 09, Revision D.01,
 Gaussian 09:  ES64L-G09RevD.01 24-Apr-2013

 -----------------------------
 # b3lyp 6-31G(2df,p) opt Freq
 -----------------------------

 -----
 titel
 -----
 Symbolic Z-matrix:
 Charge =  0 Multiplicity = 1

 SCF Done:  E(RB3LYP) =  -423.170364153     A.U. after   14 cycles
 Optimization completed.
    -- Stationary point found.
 Normal termination of Gaussian 09 at Tue Jan 28 12:36:54 2020.

 ----------------------------------------------------------------------
 #N Geom=AllCheck Guess=TCheck SCRF=Check GenChk RB3LYP/6-31G(2df,p) Fr
 eq
 ----------------------------------------------------------------------

 Structure from the checkpoint file:  "/scratch/puck/g09_748f9264-dcd8-4961-b62e-562769544e8e/Gau-142085.chk"
 -----
 titel
 -----
 Charge =  0 Multiplicity = 1

                         Standard orientation:
 ---------------------------------------------------------------------
 Center     Atomic      Atomic             Coordinates (Angstroms)
 Number     Number       Type             X           Y           Z
 ---------------------------------------------------------------------
      1          6           0        2.802567   -0.418553    0.017943
      2          6           0        1.433789   -1.002371    0.383735
      3          6           0        0.283992   -0.436932   -0.444457
      4          6           0       -1.160094   -0.979487   -0.203206
      5          8           0       -1.678853   -2.042294   -0.375011
      6          6           0       -1.659616    0.412798    0.158601
      7          8           0       -0.792417    0.843502    1.236765
      8          6           0       -0.296386    0.959062   -0.096457
      9          6           0        0.114284    2.303057   -0.604327
     10          1           0        3.595047   -0.872108    0.620967
     11          1           0        3.042694   -0.596305   -1.036262
     12          1           0        2.838268    0.662734    0.188746
     13          1           0        1.446220   -2.089895    0.244194
     14          1           0        1.217903   -0.826593    1.442848
     15          1           0        0.491432   -0.526462   -1.520000
     16          1           0       -2.642291    0.866314    0.097162
     17          1           0        1.097255    2.583639   -0.211522
     18          1           0        0.178115    2.298725   -1.696842
     19          1           0       -0.605708    3.064848   -0.294313
 ---------------------------------------------------------------------

 SCF Done:  E(RB3LYP) =  -423.170364153     A.U. after    1 cycles

 The electronic state is 1-A.
 Alpha  occ. eigenvalues --  -19.17047 -19.14341 -10.27615 -10.26021 -10.24642
 Alpha  occ. eigenvalues --  -10.20313 -10.20099 -10.18857 -10.18125  -1.09539
 Alpha  occ. eigenvalues --   -1.05001  -0.81956  -0.76108  -0.74926  -0.67226
 Alpha  occ. eigenvalues --   -0.61180  -0.57313  -0.54575  -0.49053  -0.48245
 Alpha  occ. eigenvalues --   -0.45300  -0.44546  -0.43639  -0.42512  -0.41778
 Alpha  occ. eigenvalues --   -0.39966  -0.38987  -0.37346  -0.36187  -0.34466
 Alpha  occ. eigenvalues --   -0.33651  -0.31854  -0.27937  -0.23784
 Alpha virt. eigenvalues --   -0.02588   0.06674   0.09384   0.11219   0.11985
 Alpha virt. eigenvalues --    0.12783   0.13462   0.13962   0.14387   0.15589
 Alpha virt. eigenvalues --    0.16712   0.17448   0.19219   0.20690   0.21752

 Mulliken charges:
               1
     1  C   -0.387530
     2  C   -0.198991
     3  C   -0.192136
     4  C    0.427458
     5  O   -0.307830
     6  C   -0.193978
     7  O   -0.275612
     8  C    0.416803
     9  C   -0.506065
    10  H    0.120156
    11  H    0.115145
    12  H    0.117994
    13  H    0.115418
    14  H    0.118295
    15  H    0.097777
    16  H    0.119886
    17  H    0.140873
    18  H    0.132527
    19  H    0.139808
 Sum of Mulliken charges =   0.00000

 Dipole moment (field-independent basis, Debye):
    X=              1.4085    Y=              2.4719    Z=             -1.3601  Tot=              3.1534
 Quadrupole moment (field-independent basis, Debye-Ang):
   XX=            -52.8512   YY=            -56.5844   ZZ=            -54.4976
   XY=             -5.2684   XZ=              0.4109   YZ=             -2.8515

  Exact polarizability:  85.652   2.211  81.963  -1.291   0.581  60.975
 Approx polarizability: 116.855  10.141 120.343  -1.697   5.929 100.744

                      1                      2                      3
                      A                      A                      A
 Frequencies --     71.5453               103.4106               138.1174
 Red. masses --      2.6374                 3.4642                 2.9172
 Frc consts  --      0.0080                 0.0218                 0.0328
 IR Inten    --      0.1056                 2.3063                 2.2073

                      4                      5                      6
                      A                      A                      A
 Frequencies --    189.1923               199.4688               260.7305
 Red. masses --      1.3749                 1.2029                 2.5734
 Frc consts  --      0.0290                 0.0282                 0.1031
 IR Inten    --      0.9106                 0.5964                 2.6078

                      7                      8                      9
                      A                      A                      A
 Frequencies --    269.4174               310.5265               367.1108
 Red. masses --      2.0573                 2.9012                 3.7537
 Frc consts  --      0.0880                 0.1648                 0.2981
 IR Inten    --      0.2340                 0.0532                 6.1602

                     10                     11                     12
                      A                      A                      A
 Frequencies --    528.2656               551.3495               593.3756
 Red. masses --      3.6903                 3.3219                 6.2389
 Frc consts  --      0.6068                 0.5950                 1.2942
 IR Inten    --      7.7233                 8.0677                 0.7208

                     13                     14                     15
                      A                      A                      A
 Frequencies --    659.0851               692.8323               777.2974
 Red. masses --      3.6087                 3.3885                 1.9891
 Frc consts  --      0.9236                 0.9583                 0.7081
 IR Inten    --      1.7486                 0.4992                11.4201

                     16                     17                     18
                      A                      A                      A
 Frequencies --    823.5235               837.6085               883.9393
 Red. masses --      2.5077                 2.4198                 2.1517
 Frc consts  --      1.0020                 1.0003                 0.9905
 IR Inten    --     11.2508                11.3156                 6.7880

                     19                     20                     21
                      A                      A                      A
 Frequencies --    958.6483               990.5010              1016.1574
 Red. masses --      2.0611                 1.7002                 1.8324
 Frc consts  --      1.1160                 0.9828                 1.1148
 IR Inten    --      7.5295                 3.4487                 5.5904

                     22                     23                     24
                      A                      A                      A
 Frequencies --   1042.7494              1063.7551              1071.0792
 Red. masses --      2.9236                 2.1401                 1.6519
 Frc consts  --      1.8730                 1.4268                 1.1165
 IR Inten    --     10.3668                10.9330                10.1364

                     25                     26                     27
                      A                      A                      A
 Frequencies --   1111.6906              1151.0610              1180.1592
 Red. masses --      1.7582                 2.3671                 1.5677
 Frc consts  --      1.2803                 1.8479                 1.2864
 IR Inten    --      0.8560                 4.8652                 0.8192

                     28                     29                     30
                      A                      A                      A
 Frequencies --   1221.6789              1232.6577              1276.7726
 Red. masses --      1.6307                 2.2692                 1.4475
 Frc consts  --      1.4339                 2.0315                 1.3902
 IR Inten    --      6.0463                23.5939                 2.9876

                     31                     32                     33
                      A                      A                      A
 Frequencies --   1331.3045              1373.3709              1401.3805
 Red. masses --      1.4251                 1.5899                 1.3210
 Frc consts  --      1.4881                 1.7669                 1.5285
 IR Inten    --      2.8610                13.6140                 2.6307

                     34                     35                     36
                      A                      A                      A
 Frequencies --   1411.7738              1445.2534              1478.1969
 Red. masses --      1.2412                 3.3759                 1.0722
 Frc consts  --      1.4576                 4.1546                 1.3803
 IR Inten    --      0.3393                27.5121                 5.4203

                     37                     38                     39
                      A                      A                      A
 Frequencies --   1488.8378              1491.7143              1499.7287
 Red. masses --      1.0592                 1.0741                 1.0440
 Frc consts  --      1.3834                 1.4082                 1.3835
 IR Inten    --      1.2788                 2.9637                 6.2764

                     40                     41                     42
                      A                      A                      A
 Frequencies --   1504.8808              1896.6262              3023.0074
 Red. masses --      1.0651                12.5740                 1.0808
 Frc consts  --      1.4212                26.6494                 5.8194
 IR Inten    --      4.1380               288.9654                10.9969

                     43                     44                     45
                      A                      A                      A
 Frequencies --   3031.0516              3039.1664              3039.8121
 Red. masses --      1.0373                 1.0581                 1.0391
 Frc consts  --      5.6149                 5.7580                 5.6573
 IR Inten    --     17.6494                 7.8665                31.0655

                     46                     47                     48
                      A                      A                      A
 Frequencies --   3075.4009              3101.1125              3104.1289
 Red. masses --      1.0991                 1.1018                 1.1006
 Frc consts  --      6.1250                 6.2432                 6.2482
 IR Inten    --      1.0955                28.9351                43.4181

                     49                     50                     51
                      A                      A                      A
 Frequencies --   3105.5021              3124.4770              3189.4169
 Red. masses --      1.1007                 1.1017                 1.0955
 Frc consts  --      6.2544                 6.3369                 6.5660
 IR Inten    --     18.8025                10.4105                11.2353

 - Thermochemistry -
 -------------------
 Temperature   298.150 Kelvin.  Pressure   1.00000 Atm.
 Atom     1 has atomic number  6 and mass  12.00000

 Molecular mass:   126.06808 amu.
 Principal axes and moments of inertia in atomic units:
                           1         2         3
     Eigenvalues --   913.887541119.608221712.57871
           X            0.99064  -0.13647   0.00207
           Y            0.13646   0.98999  -0.03595
           Z            0.00285   0.03589   0.99935
 This molecule is an asymmetric top.
 Rotational symmetry number  1.
 Warning -- assumption of classical behavior for rotation
           may cause significant error
 Rotational temperatures (Kelvin)      0.09478     0.07736     0.05058
 Rotational constants (GHZ):           1.97480     1.61194     1.05382
 Zero-point vibrational energy     411095.8 (Joules/Mol)
                                   98.25425 (Kcal/Mol)
 Warning -- explicit consideration of  12 degrees of freedom as
           vibrations may cause significant error
 Vibrational temperatures:    102.94   148.78   198.72   272.21   286.99
          (Kelvin)            375.13   387.63   446.78   528.19   760.06
                              793.27   853.73   948.28   996.83  1118.36
                             1184.87  1205.13  1271.79  1379.28  1425.11
                             1462.02  1500.28  1530.50  1541.04  1599.47
                             1656.12  1697.98  1757.72  1773.52  1836.99
                             1915.45  1975.97  2016.27  2031.23  2079.39
                             2126.79  2142.10  2146.24  2157.77  2165.19
                             2728.82  4349.43  4361.00  4372.68  4373.61
                             4424.81  4461.80  4466.14  4468.12  4495.42
                             4588.85

 Zero-point correction=                           0.156578 (Hartree/Particle)
 Thermal correction to Energy=                    0.165873
 Thermal correction to Enthalpy=                  0.166817
 Thermal correction to Gibbs Free Energy=         0.122291
 Sum of electronic and zero-point Energies=           -423.013786
 Sum of electronic and thermal Energies=              -423.004491
 Sum of electronic and thermal Enthalpies=            -423.003547
 Sum of electronic and thermal Free Energies=         -423.048073

                     E (Thermal)             CV                S
                      KCal/Mol        Cal/Mol-Kelvin    Cal/Mol-Kelvin
 Total                  104.087             34.028             93.713
 Electronic               0.000              0.000              0.000
 Translational            0.889              2.981             40.409
 Rotational               0.889              2.981             28.951
 Vibrational            102.309             28.066             24.353
 Vibration     1          0.598              1.968              4.110
 Vibration     2          0.605              1.946              3.389
 Vibration     3          0.614              1.915              2.830
 Vibration     4          0.633              1.855              2.236
 Vibration     5          0.638              1.841              2.138
 Vibration     6          0.669              1.745              1.657
 Vibration     7          0.674              1.729              1.600
 Vibration     8          0.699              1.654              1.360
 Vibration     9          0.740              1.540              1.092
 Vibration    10          0.883              1.187              0.591
 Vibration    11          0.907              1.137              0.541
 Vibration    12          0.951              1.046              0.461

 Optimization completed.
    -- Stationary point found.
 Normal termination of Gaussian 09 at Tue Jan 28 13:18:28 2020.
