 Gaussian 09, Revision D.01,
 Gaussian 09:  ES64L-G09RevD.01 24-Apr-2013

 -----------------------------
 # b3lyp 6-31G(2df,p) opt Freq
 -----------------------------

 -----
 titel
 -----
 Symbolic Z-matrix:
 Charge =  0 Multiplicity = 1

 SCF Done:  E(RB3LYP) =  -423.099068716     A.U. after   13 cycles
 Optimization completed.
    -- Stationary point found.
 Normal termination of Gaussian 09 at Tue Jan 28 10:00:07 2020.

 ----------------------------------------------------------------------
 #N Geom=AllCheck Guess=TCheck SCRF=Check GenChk RB3LYP/6-31G(2df,p) Fr
 eq
 ----------------------------------------------------------------------

 Structure from the checkpoint file:  "/scratch/puck/g09_d308a601-3b41-492a-adde-5a7c0309065b/Gau-21686.chk"
 -----
 titel
 -----
 Charge =  0 Multiplicity = 1

                         Standard orientation:
 ---------------------------------------------------------------------
 Center     Atomic      Atomic             Coordinates (Angstroms)
 Number     Number       Type             X           Y           Z
 ---------------------------------------------------------------------
      1          6           0       -2.457359   -0.785963    0.287519
      2          8           0       -1.322286   -0.698465   -0.560890
      3          6           0       -0.430180    0.296893   -0.204000
      4          6           0       -0.630507    1.822540   -0.099116
      5          6           0        0.867813    1.572842    0.194161
      6          6           0        0.974443    0.426175   -0.870234
      7          6           0        1.610128   -0.543153    0.150158
      8          8           0        1.429298   -1.923688   -0.014880
      9          6           0        0.596544    0.258743    0.999757
     10          1           0       -3.040031    0.144249    0.271378
     11          1           0       -3.076696   -1.601057   -0.091684
     12          1           0       -2.168309   -1.003785    1.324675
     13          1           0       -0.868434    2.352670   -1.026565
     14          1           0       -1.233893    2.197417    0.733465
     15          1           0        1.643642    2.300253    0.418116
     16          1           0        1.162348    0.553051   -1.937373
     17          1           0        2.668477   -0.386405    0.379335
     18          1           0        0.510200   -2.061943   -0.277798
     19          1           0        0.361317    0.194314    2.063139
 ---------------------------------------------------------------------

 SCF Done:  E(RB3LYP) =  -423.099068716     A.U. after    1 cycles

 The electronic state is 1-A.
 Alpha  occ. eigenvalues --  -19.16099 -19.12463 -10.25043 -10.23472 -10.22858
 Alpha  occ. eigenvalues --  -10.20566 -10.19297 -10.19180 -10.18841  -1.05436
 Alpha  occ. eigenvalues --   -1.01176  -0.93201  -0.73489  -0.71198  -0.63909
 Alpha  occ. eigenvalues --   -0.61423  -0.60880  -0.52815  -0.51868  -0.49714
 Alpha  occ. eigenvalues --   -0.46670  -0.46248  -0.43875  -0.43265  -0.38553
 Alpha  occ. eigenvalues --   -0.37730  -0.36903  -0.35199  -0.32538  -0.30944
 Alpha  occ. eigenvalues --   -0.30706  -0.28571  -0.25429  -0.24748
 Alpha virt. eigenvalues --    0.08198   0.09908   0.11814   0.11962   0.13150
 Alpha virt. eigenvalues --    0.13622   0.14298   0.14967   0.15815   0.16232
 Alpha virt. eigenvalues --    0.16982   0.18123   0.18425   0.19548   0.20121

 Mulliken charges:
               1
     1  C   -0.268993
     2  O   -0.305124
     3  C    0.430143
     4  C   -0.330180
     5  C   -0.064081
     6  C   -0.155164
     7  C    0.149962
     8  O   -0.455291
     9  C   -0.164700
    10  H    0.121544
    11  H    0.133352
    12  H    0.118183
    13  H    0.099071
    14  H    0.094914
    15  H    0.086168
    16  H    0.075493
    17  H    0.078072
    18  H    0.285751
    19  H    0.070880
 Sum of Mulliken charges =   0.00000

 Dipole moment (field-independent basis, Debye):
    X=             -1.7410    Y=              1.6153    Z=              0.6820  Tot=              2.4710
 Quadrupole moment (field-independent basis, Debye-Ang):
   XX=            -51.3490   YY=            -55.6102   ZZ=            -52.9709
   XY=              5.0538   XZ=             -1.5677   YZ=             -0.3158

  Exact polarizability:  82.724   0.683  77.406  -0.780  -0.957  66.079
 Approx polarizability: 113.414   1.074 112.502  -0.026   0.558 105.747

                      1                      2                      3
                      A                      A                      A
 Frequencies --     86.6710               162.2127               185.3446
 Red. masses --      2.9488                 2.2085                 1.5590
 Frc consts  --      0.0131                 0.0342                 0.0316
 IR Inten    --      1.4358                 2.3237                 1.2021

                      4                      5                      6
                      A                      A                      A
 Frequencies --    223.8244               287.4075               395.7721
 Red. masses --      2.6238                 3.2628                 4.3389
 Frc consts  --      0.0774                 0.1588                 0.4004
 IR Inten    --      3.8455                 0.7043                 2.7615

                      7                      8                      9
                      A                      A                      A
 Frequencies --    436.6993               455.4293               499.5148
 Red. masses --      1.9467                 2.4374                 1.3634
 Frc consts  --      0.2187                 0.2979                 0.2004
 IR Inten    --      8.8915                 0.9576                61.2553

                     10                     11                     12
                      A                      A                      A
 Frequencies --    541.0225               653.5176               736.9736
 Red. masses --      4.1734                 4.4916                 3.5964
 Frc consts  --      0.7197                 1.1302                 1.1509
 IR Inten    --      3.2013                 6.6468                 5.9410

                     13                     14                     15
                      A                      A                      A
 Frequencies --    788.9855               861.2459               877.4368
 Red. masses --      3.4470                 2.1561                 1.8990
 Frc consts  --      1.2642                 0.9423                 0.8614
 IR Inten    --      5.9014                 3.0064                 3.6009

                     16                     17                     18
                      A                      A                      A
 Frequencies --    893.5106               904.9072               920.3882
 Red. masses --      1.7185                 1.8744                 2.2208
 Frc consts  --      0.8083                 0.9043                 1.1084
 IR Inten    --      0.5308                 7.2609                 4.2327

                     19                     20                     21
                      A                      A                      A
 Frequencies --    995.3933              1025.1312              1059.1838
 Red. masses --      1.3553                 4.9291                 1.3439
 Frc consts  --      0.7912                 3.0519                 0.8883
 IR Inten    --      1.0612                13.3501                 1.7530

                     22                     23                     24
                      A                      A                      A
 Frequencies --   1066.9778              1082.4245              1092.6517
 Red. masses --      2.5709                 4.3506                 3.0859
 Frc consts  --      1.7244                 3.0033                 2.1707
 IR Inten    --     15.6001                59.2867               111.4272

                     25                     26                     27
                      A                      A                      A
 Frequencies --   1109.8933              1133.8716              1138.3924
 Red. masses --      1.9440                 1.5464                 1.5098
 Frc consts  --      1.4110                 1.1714                 1.1528
 IR Inten    --     20.7527                 8.7102                 3.7446

                     28                     29                     30
                      A                      A                      A
 Frequencies --   1178.6274              1182.3455              1202.3369
 Red. masses --      1.7432                 1.2880                 1.7519
 Frc consts  --      1.4268                 1.0608                 1.4921
 IR Inten    --      3.4244                 2.0819                 2.3066

                     31                     32                     33
                      A                      A                      A
 Frequencies --   1221.9560              1239.1071              1247.2091
 Red. masses --      1.5618                 1.9209                 1.9090
 Frc consts  --      1.3740                 1.7377                 1.7495
 IR Inten    --      8.3494                70.3038                43.4146

                     34                     35                     36
                      A                      A                      A
 Frequencies --   1276.9545              1321.6606              1329.8497
 Red. masses --      2.2455                 1.6064                 2.4443
 Frc consts  --      2.1574                 1.6532                 2.5469
 IR Inten    --     73.4527                 1.8389               131.1236

                     37                     38                     39
                      A                      A                      A
 Frequencies --   1460.8385              1482.0978              1489.7043
 Red. masses --      1.2760                 1.1669                 1.0484
 Frc consts  --      1.6044                 1.5103                 1.3709
 IR Inten    --    102.1482                 2.7685                 8.1591

                     40                     41                     42
                      A                      A                      A
 Frequencies --   1506.1387              1513.4773              3001.6791
 Red. masses --      1.0560                 1.1879                 1.0346
 Frc consts  --      1.4114                 1.6032                 5.4925
 IR Inten    --     15.8325                 3.7237                42.4168

                     43                     44                     45
                      A                      A                      A
 Frequencies --   3040.9837              3060.1684              3069.6214
 Red. masses --      1.0551                 1.1033                 1.0855
 Frc consts  --      5.7487                 6.0876                 6.0261
 IR Inten    --     42.0141                45.6943                50.9709

                     46                     47                     48
                      A                      A                      A
 Frequencies --   3101.6430              3104.4481              3109.9189
 Red. masses --      1.1100                 1.0904                 1.0915
 Frc consts  --      6.2917                 6.1916                 6.2196
 IR Inten    --     34.6451                67.9904                 8.8794

                     49                     50                     51
                      A                      A                      A
 Frequencies --   3129.2523              3153.2502              3769.9481
 Red. masses --      1.0993                 1.0934                 1.0655
 Frc consts  --      6.3423                 6.4056                 8.9221
 IR Inten    --     23.4202                30.2586                38.1213

 - Thermochemistry -
 -------------------
 Temperature   298.150 Kelvin.  Pressure   1.00000 Atm.
 Atom     1 has atomic number  6 and mass  12.00000

 Molecular mass:   126.06808 amu.
 Principal axes and moments of inertia in atomic units:
                           1         2         3
     Eigenvalues --   770.08548 978.333071460.74687
           X            0.99728   0.07154  -0.01784
           Y           -0.07171   0.99738  -0.00926
           Z            0.01713   0.01052   0.99980
 This molecule is an asymmetric top.
 Rotational symmetry number  1.
 Warning -- assumption of classical behavior for rotation
           may cause significant error
 Rotational temperatures (Kelvin)      0.11247     0.08853     0.05929
 Rotational constants (GHZ):           2.34356     1.84471     1.23549
 Zero-point vibrational energy     417544.6 (Joules/Mol)
                                   99.79554 (Kcal/Mol)
 Warning -- explicit consideration of  10 degrees of freedom as
           vibrations may cause significant error
 Vibrational temperatures:    124.70   233.39   266.67   322.03   413.51
          (Kelvin)            569.43   628.31   655.26   718.69   778.41
                              940.26  1060.34  1135.17  1239.14  1262.43
                             1285.56  1301.96  1324.23  1432.15  1474.93
                             1523.93  1535.14  1557.37  1572.08  1596.89
                             1631.39  1637.89  1695.78  1701.13  1729.89
                             1758.12  1782.80  1794.45  1837.25  1901.57
                             1913.35  2101.82  2132.41  2143.35  2166.99
                             2177.55  4318.74  4375.29  4402.89  4416.49
                             4462.57  4466.60  4474.47  4502.29  4536.82
                             5424.11

 Zero-point correction=                           0.159034 (Hartree/Particle)
 Thermal correction to Energy=                    0.167058
 Thermal correction to Enthalpy=                  0.168002
 Thermal correction to Gibbs Free Energy=         0.126552
 Sum of electronic and zero-point Energies=           -422.940034
 Sum of electronic and thermal Energies=              -422.932011
 Sum of electronic and thermal Enthalpies=            -422.931067
 Sum of electronic and thermal Free Energies=         -422.972516

                     E (Thermal)             CV                S
                      KCal/Mol        Cal/Mol-Kelvin    Cal/Mol-Kelvin
 Total                  104.830             31.432             87.237
 Electronic               0.000              0.000              0.000
 Translational            0.889              2.981             40.409
 Rotational               0.889              2.981             28.489
 Vibrational            103.053             25.471             18.340
 Vibration     1          0.601              1.958              3.734
 Vibration     2          0.622              1.889              2.524
 Vibration     3          0.631              1.860              2.274
 Vibration     4          0.649              1.805              1.928
 Vibration     5          0.685              1.697              1.489
 Vibration     6          0.763              1.479              0.978
 Vibration     7          0.797              1.390              0.837
 Vibration     8          0.814              1.349              0.780
 Vibration     9          0.855              1.251              0.659
 Vibration    10          0.896              1.159              0.563

 Normal termination of Gaussian 09 at Tue Jan 28 10:45:42 2020.
