 Gaussian 09, Revision D.01,
 Gaussian 09:  ES64L-G09RevD.01 24-Apr-2013

 -----------------------------
 # b3lyp 6-31G(2df,p) opt Freq
 -----------------------------

 -----
 titel
 -----
 Symbolic Z-matrix:
 Charge =  0 Multiplicity = 1

 SCF Done:  E(RB3LYP) =  -423.190668653     A.U. after   14 cycles
 Optimization completed.
    -- Stationary point found.
 Normal termination of Gaussian 09 at Mon Jan 27 17:55:07 2020.

 ----------------------------------------------------------------------
 #N Geom=AllCheck Guess=TCheck SCRF=Check GenChk RB3LYP/6-31G(2df,p) Fr
 eq
 ----------------------------------------------------------------------

 Structure from the checkpoint file:  "/scratch/puck/g09_212750cc-e800-4227-b359-df0bfacb33ed/Gau-61505.chk"
 -----
 titel
 -----
 Charge =  0 Multiplicity = 1

                         Standard orientation:
 ---------------------------------------------------------------------
 Center     Atomic      Atomic             Coordinates (Angstroms)
 Number     Number       Type             X           Y           Z
 ---------------------------------------------------------------------
      1          6           0        0.601175    2.046449   -0.336519
      2          6           0        0.781631    0.594027    0.001394
      3          6           0        1.516293    0.106201    1.223489
      4          6           0        2.009506   -0.328268   -0.126232
      5          6           0        1.134702   -1.480777   -0.632968
      6          6           0       -0.089743   -0.534737   -0.548627
      7          8           0       -1.142823   -1.048527    0.299491
      8          6           0       -2.264015   -0.322607    0.355485
      9          8           0       -2.468257    0.716571   -0.212737
     10          1           0       -0.280374    2.460076    0.162743
     11          1           0        1.474997    2.630171   -0.028707
     12          1           0        0.463700    2.190021   -1.414030
     13          1           0        2.110105    0.868061    1.718530
     14          1           0        1.062305   -0.614447    1.899434
     15          1           0        2.997009   -0.078844   -0.493961
     16          1           0        1.345335   -1.796407   -1.656622
     17          1           0        1.088423   -2.364131    0.010947
     18          1           0       -0.523111   -0.286767   -1.519326
     19          1           0       -2.987043   -0.833811    1.010824
 ---------------------------------------------------------------------

 SCF Done:  E(RB3LYP) =  -423.190668653     A.U. after    1 cycles

 The electronic state is 1-A.
 Alpha  occ. eigenvalues --  -19.18579 -19.13178 -10.30636 -10.24560 -10.20065
 Alpha  occ. eigenvalues --  -10.19671 -10.19149 -10.18825 -10.17586  -1.10262
 Alpha  occ. eigenvalues --   -1.01881  -0.90253  -0.74894  -0.72115  -0.66784
 Alpha  occ. eigenvalues --   -0.60853  -0.57570  -0.53491  -0.51870  -0.48723
 Alpha  occ. eigenvalues --   -0.47004  -0.46466  -0.42883  -0.41743  -0.40482
 Alpha  occ. eigenvalues --   -0.39085  -0.38813  -0.37250  -0.34757  -0.33184
 Alpha  occ. eigenvalues --   -0.30119  -0.28442  -0.27634  -0.25852
 Alpha virt. eigenvalues --    0.00932   0.08832   0.10685   0.11864   0.12407
 Alpha virt. eigenvalues --    0.13022   0.13471   0.14576   0.15059   0.16734
 Alpha virt. eigenvalues --    0.17197   0.19024   0.19316   0.20836   0.22920

 Mulliken charges:
               1
     1  C   -0.497815
     2  C    0.351805
     3  C   -0.326148
     4  C   -0.098735
     5  C   -0.271520
     6  C    0.070102
     7  O   -0.214375
     8  C    0.177616
     9  O   -0.306894
    10  H    0.141133
    11  H    0.111242
    12  H    0.117820
    13  H    0.112841
    14  H    0.113262
    15  H    0.090522
    16  H    0.109891
    17  H    0.108167
    18  H    0.103322
    19  H    0.107763
 Sum of Mulliken charges =   0.00000

 Dipole moment (field-independent basis, Debye):
    X=              1.5526    Y=             -0.9234    Z=              0.1612  Tot=              1.8136
 Quadrupole moment (field-independent basis, Debye-Ang):
   XX=            -54.3713   YY=            -54.1810   ZZ=            -51.2786
   XY=              4.5828   XZ=             -2.5884   YZ=              1.1917

  Exact polarizability:  83.922  -2.323  76.680  -1.491  -1.205  67.239
 Approx polarizability: 113.736  -7.972 114.007  -0.617  -5.769 102.984

                      1                      2                      3
                      A                      A                      A
 Frequencies --     54.9063               116.8081               169.8502
 Red. masses --      6.7333                 3.0844                 3.4523
 Frc consts  --      0.0120                 0.0248                 0.0587
 IR Inten    --      1.6809                 1.0354                 3.2964

                      4                      5                      6
                      A                      A                      A
 Frequencies --    194.9560               249.3147               288.0441
 Red. masses --      1.0947                 3.6427                 2.3200
 Frc consts  --      0.0245                 0.1334                 0.1134
 IR Inten    --      0.2533                 8.1871                 1.0606

                      7                      8                      9
                      A                      A                      A
 Frequencies --    322.7965               369.8710               427.1913
 Red. masses --      2.6816                 2.9742                 1.9313
 Frc consts  --      0.1646                 0.2397                 0.2077
 IR Inten    --      9.0581                 3.6876                 0.0919

                     10                     11                     12
                      A                      A                      A
 Frequencies --    534.1616               625.9442               713.8924
 Red. masses --      3.3367                 3.7103                 3.1874
 Frc consts  --      0.5609                 0.8565                 0.9571
 IR Inten    --      5.8954                 2.8756                 6.3202

                     13                     14                     15
                      A                      A                      A
 Frequencies --    789.4080               805.7250               825.2584
 Red. masses --      3.9307                 3.5303                 2.3949
 Frc consts  --      1.4432                 1.3503                 0.9610
 IR Inten    --      1.5447                 5.7855                13.7352

                     16                     17                     18
                      A                      A                      A
 Frequencies --    872.4755               951.8419               965.4663
 Red. masses --      1.5934                 1.6026                 1.4786
 Frc consts  --      0.7146                 0.8555                 0.8121
 IR Inten    --      2.5072                21.4178                 6.1349

                     19                     20                     21
                      A                      A                      A
 Frequencies --    997.5315              1020.9325              1024.3472
 Red. masses --      1.6190                 2.3747                 1.4750
 Frc consts  --      0.9492                 1.4583                 0.9118
 IR Inten    --     11.1823                30.8029                 5.8426

                     22                     23                     24
                      A                      A                      A
 Frequencies --   1046.1471              1051.5500              1083.9868
 Red. masses --      1.6315                 1.6924                 1.4576
 Frc consts  --      1.0520                 1.1026                 1.0091
 IR Inten    --      0.6279                 2.8896                 0.1427

                     25                     26                     27
                      A                      A                      A
 Frequencies --   1111.7140              1132.2558              1170.0461
 Red. masses --      1.6845                 2.2568                 1.5070
 Frc consts  --      1.2266                 1.7046                 1.2155
 IR Inten    --      3.8386                 2.1384                 9.9241

                     28                     29                     30
                      A                      A                      A
 Frequencies --   1206.3703              1236.5546              1250.4726
 Red. masses --      6.7174                 1.5567                 1.6799
 Frc consts  --      5.7599                 1.4025                 1.5477
 IR Inten    --    377.3599                15.2775                 0.9180

                     31                     32                     33
                      A                      A                      A
 Frequencies --   1267.9650              1309.3342              1367.3613
 Red. masses --      2.0223                 2.1142                 1.5152
 Frc consts  --      1.9156                 2.1354                 1.6691
 IR Inten    --      3.2598                 2.4925                 5.7261

                     34                     35                     36
                      A                      A                      A
 Frequencies --   1405.4128              1408.6535              1425.8874
 Red. masses --      1.4024                 1.1563                 1.6350
 Frc consts  --      1.6320                 1.3519                 1.9585
 IR Inten    --     11.3050                 1.4295                 3.1105

                     37                     38                     39
                      A                      A                      A
 Frequencies --   1479.7202              1483.6697              1497.8248
 Red. masses --      1.1288                 1.0501                 1.0542
 Frc consts  --      1.4562                 1.3620                 1.3934
 IR Inten    --      1.5074                 2.7628                 8.4438

                     40                     41                     42
                      A                      A                      A
 Frequencies --   1504.6663              1812.9406              3022.5413
 Red. masses --      1.3199                 9.5267                 1.0899
 Frc consts  --      1.7606                18.4485                 5.8666
 IR Inten    --      5.3329               243.0807                76.0243

                     43                     44                     45
                      A                      A                      A
 Frequencies --   3030.0800              3056.7829              3092.5738
 Red. masses --      1.0358                 1.0607                 1.0986
 Frc consts  --      5.6034                 5.8392                 6.1908
 IR Inten    --     28.3578                36.8825                 9.4428

                     46                     47                     48
                      A                      A                      A
 Frequencies --   3094.3904              3106.1794              3111.2465
 Red. masses --      1.0911                 1.1001                 1.0568
 Frc consts  --      6.1554                 6.2539                 6.0273
 IR Inten    --     18.2091                15.2429                15.8482

                     49                     50                     51
                      A                      A                      A
 Frequencies --   3117.6795              3189.4362              3202.3242
 Red. masses --      1.1030                 1.0967                 1.1100
 Frc consts  --      6.3166                 6.5729                 6.7069
 IR Inten    --     24.9057                10.2324                15.0351

 - Thermochemistry -
 -------------------
 Temperature   298.150 Kelvin.  Pressure   1.00000 Atm.
 Atom     1 has atomic number  6 and mass  12.00000

 Molecular mass:   126.06808 amu.
 Principal axes and moments of inertia in atomic units:
                           1         2         3
     Eigenvalues --   671.251481281.599331619.83970
           X            0.99985   0.01691  -0.00386
           Y           -0.01690   0.99986   0.00121
           Z            0.00388  -0.00115   0.99999
 This molecule is an asymmetric top.
 Rotational symmetry number  1.
 Warning -- assumption of classical behavior for rotation
           may cause significant error
 Rotational temperatures (Kelvin)      0.12903     0.06758     0.05347
 Rotational constants (GHZ):           2.68862     1.40819     1.11415
 Zero-point vibrational energy     416279.4 (Joules/Mol)
                                   99.49318 (Kcal/Mol)
 Warning -- explicit consideration of  10 degrees of freedom as
           vibrations may cause significant error
 Vibrational temperatures:     79.00   168.06   244.38   280.50   358.71
          (Kelvin)            414.43   464.43   532.16   614.63   768.54
                              900.59  1027.13  1135.78  1159.26  1187.36
                             1255.30  1369.49  1389.09  1435.22  1468.89
                             1473.81  1505.17  1512.94  1559.61  1599.51
                             1629.06  1683.43  1735.70  1779.12  1799.15
                             1824.32  1883.84  1967.33  2022.07  2026.74
                             2051.53  2128.98  2134.67  2155.03  2164.88
                             2608.41  4348.76  4359.60  4398.02  4449.52
                             4452.13  4469.09  4476.38  4485.64  4588.88
                             4607.42

 Zero-point correction=                           0.158552 (Hartree/Particle)
 Thermal correction to Energy=                    0.167235
 Thermal correction to Enthalpy=                  0.168180
 Thermal correction to Gibbs Free Energy=         0.124850
 Sum of electronic and zero-point Energies=           -423.032116
 Sum of electronic and thermal Energies=              -423.023433
 Sum of electronic and thermal Enthalpies=            -423.022489
 Sum of electronic and thermal Free Energies=         -423.065818

                     E (Thermal)             CV                S
                      KCal/Mol        Cal/Mol-Kelvin    Cal/Mol-Kelvin
 Total                  104.942             32.300             91.194
 Electronic               0.000              0.000              0.000
 Translational            0.889              2.981             40.409
 Rotational               0.889              2.981             28.723
 Vibrational            103.164             26.339             22.062
 Vibration     1          0.596              1.976              4.632
 Vibration     2          0.608              1.935              3.153
 Vibration     3          0.625              1.880              2.437
 Vibration     4          0.636              1.847              2.180
 Vibration     5          0.662              1.764              1.735
 Vibration     6          0.685              1.696              1.485
 Vibration     7          0.708              1.630              1.296
 Vibration     8          0.742              1.534              1.080
 Vibration     9          0.789              1.411              0.868
 Vibration    10          0.889              1.174              0.578

 Normal termination of Gaussian 09 at Mon Jan 27 18:37:01 2020.
