 Gaussian 09, Revision D.01,
 Gaussian 09:  ES64L-G09RevD.01 24-Apr-2013

 -----------------------------
 # b3lyp 6-31G(2df,p) opt Freq
 -----------------------------

 -----
 titel
 -----
 Symbolic Z-matrix:
 Charge =  0 Multiplicity = 1

 SCF Done:  E(RB3LYP) =  -423.158248278     A.U. after   15 cycles
 Optimization completed.
    -- Stationary point found.
 Normal termination of Gaussian 09 at Tue Jan 28 08:19:20 2020.

 ----------------------------------------------------------------------
 #N Geom=AllCheck Guess=TCheck SCRF=Check GenChk RB3LYP/6-31G(2df,p) Fr
 eq
 ----------------------------------------------------------------------

 Structure from the checkpoint file:  "/scratch/puck/g09_d1e9216e-cd3e-4872-9b2c-7d9ff776c07d/Gau-14782.chk"
 -----
 titel
 -----
 Charge =  0 Multiplicity = 1

                         Standard orientation:
 ---------------------------------------------------------------------
 Center     Atomic      Atomic             Coordinates (Angstroms)
 Number     Number       Type             X           Y           Z
 ---------------------------------------------------------------------
      1          6           0       -0.856437   -1.592494    1.151670
      2          6           0       -0.909387   -0.247235    0.418451
      3          6           0       -2.348255    0.105843    0.040274
      4          8           0       -2.358161    1.405656   -0.530607
      5          6           0       -0.011325   -0.236631   -0.838726
      6          6           0        1.466231   -0.335451   -0.520690
      7          8           0        2.163846   -1.267383   -0.860726
      8          6           0        2.026313    0.777679    0.237008
      9          6           0        2.489707    1.700044    0.856714
     10          1           0       -1.227644   -2.403350    0.514164
     11          1           0        0.166476   -1.848358    1.442181
     12          1           0       -1.466624   -1.572034    2.060439
     13          1           0       -0.555900    0.543444    1.092105
     14          1           0       -2.738693   -0.644442   -0.667144
     15          1           0       -2.977693    0.065449    0.943338
     16          1           0       -3.244681    1.590328   -0.852960
     17          1           0       -0.258413   -1.076790   -1.495943
     18          1           0       -0.193779    0.700035   -1.376911
     19          1           0        2.910391    2.509004    1.403192
 ---------------------------------------------------------------------

 SCF Done:  E(RB3LYP) =  -423.158248278     A.U. after    1 cycles

 The electronic state is 1-A.
 Alpha  occ. eigenvalues --  -19.14261 -19.13516 -10.28672 -10.23323 -10.20302
 Alpha  occ. eigenvalues --  -10.19847 -10.19625 -10.18780 -10.18001  -1.04501
 Alpha  occ. eigenvalues --   -1.02354  -0.81754  -0.77144  -0.71988  -0.68025
 Alpha  occ. eigenvalues --   -0.62793  -0.57683  -0.53177  -0.51846  -0.48967
 Alpha  occ. eigenvalues --   -0.46683  -0.45204  -0.42522  -0.41844  -0.39511
 Alpha  occ. eigenvalues --   -0.39332  -0.37198  -0.34674  -0.33702  -0.32748
 Alpha  occ. eigenvalues --   -0.29304  -0.29229  -0.27506  -0.25603
 Alpha virt. eigenvalues --   -0.05275   0.03935   0.06947   0.09113   0.10196
 Alpha virt. eigenvalues --    0.11245   0.12290   0.14398   0.15476   0.16492
 Alpha virt. eigenvalues --    0.17152   0.17984   0.19255   0.20504   0.22551

 Mulliken charges:
               1
     1  C   -0.406926
     2  C    0.018313
     3  C   -0.080221
     4  O   -0.422258
     5  C   -0.299270
     6  C    0.247860
     7  O   -0.286969
     8  C    0.289000
     9  C   -0.463352
    10  H    0.120189
    11  H    0.133574
    12  H    0.115569
    13  H    0.100638
    14  H    0.087182
    15  H    0.088679
    16  H    0.290178
    17  H    0.112155
    18  H    0.140021
    19  H    0.215640
 Sum of Mulliken charges =   0.00000

 Dipole moment (field-independent basis, Debye):
    X=             -3.0322    Y=              1.5291    Z=              1.0096  Tot=              3.5428
 Quadrupole moment (field-independent basis, Debye-Ang):
   XX=            -49.3347   YY=            -53.5298   ZZ=            -51.8947
   XY=              6.7069   XZ=              5.5944   YZ=              0.2153

  Exact polarizability:  85.662   6.133  83.255   4.632   9.538  67.558
 Approx polarizability: 111.008   6.715 138.423   7.125  27.651 105.209

                      1                      2                      3
                      A                      A                      A
 Frequencies --     25.6001                61.2477               121.4594
 Red. masses --      4.7518                 4.4182                 4.3210
 Frc consts  --      0.0018                 0.0098                 0.0376
 IR Inten    --      2.8050                 1.4254                 1.1423

                      4                      5                      6
                      A                      A                      A
 Frequencies --    135.6833               184.4839               214.2285
 Red. masses --      2.9504                 1.8347                 1.8745
 Frc consts  --      0.0320                 0.0368                 0.0507
 IR Inten    --      7.9377                 0.9086                 0.5415

                      7                      8                      9
                      A                      A                      A
 Frequencies --    227.1124               247.4299               260.4452
 Red. masses --      1.8635                 1.3853                 3.2393
 Frc consts  --      0.0566                 0.0500                 0.1295
 IR Inten    --     12.9623                67.9490                19.3483

                     10                     11                     12
                      A                      A                      A
 Frequencies --    364.1517               407.1130               440.3722
 Red. masses --      2.4894                 2.5349                 3.0460
 Frc consts  --      0.1945                 0.2475                 0.3480
 IR Inten    --      1.5853                 2.1226                 5.9440

                     13                     14                     15
                      A                      A                      A
 Frequencies --    490.5097               608.1025               646.2052
 Red. masses --      4.1380                 5.2704                 1.2647
 Frc consts  --      0.5866                 1.1483                 0.3112
 IR Inten    --     10.6760                 7.4440                41.8707

                     16                     17                     18
                      A                      A                      A
 Frequencies --    689.4154               710.7223               766.2916
 Red. masses --      5.5293                 1.2954                 3.3353
 Frc consts  --      1.5484                 0.3855                 1.1539
 IR Inten    --      0.3904                32.1919                20.8451

                     19                     20                     21
                      A                      A                      A
 Frequencies --    856.0542               913.5792               931.1700
 Red. masses --      2.5112                 1.5380                 1.6654
 Frc consts  --      1.0843                 0.7563                 0.8508
 IR Inten    --      0.1997                 6.8665                 3.5418

                     22                     23                     24
                      A                      A                      A
 Frequencies --    959.9207              1049.8554              1085.2667
 Red. masses --      1.5541                 2.7008                 3.2783
 Frc consts  --      0.8437                 1.7539                 2.2749
 IR Inten    --      5.0315                47.0164                74.6799

                     25                     26                     27
                      A                      A                      A
 Frequencies --   1119.6709              1124.2362              1197.1866
 Red. masses --      2.7276                 1.5103                 2.2706
 Frc consts  --      2.0147                 1.1246                 1.9174
 IR Inten    --     19.5026                21.2826                36.3812

                     28                     29                     30
                      A                      A                      A
 Frequencies --   1241.6231              1255.2191              1263.0691
 Red. masses --      1.4396                 1.3275                 1.2242
 Frc consts  --      1.3076                 1.2323                 1.1507
 IR Inten    --     47.2414                56.1898                45.9213

                     31                     32                     33
                      A                      A                      A
 Frequencies --   1308.7308              1350.1111              1381.8563
 Red. masses --      1.3277                 1.4159                 1.3406
 Frc consts  --      1.3398                 1.5206                 1.5082
 IR Inten    --      6.8950                 9.7004                 2.0494

                     34                     35                     36
                      A                      A                      A
 Frequencies --   1414.6733              1453.3963              1469.2486
 Red. masses --      1.2554                 1.4058                 1.1074
 Frc consts  --      1.4802                 1.7496                 1.4085
 IR Inten    --      4.2287                 5.8534                 4.5256

                     37                     38                     39
                      A                      A                      A
 Frequencies --   1496.3770              1499.0577              1519.2596
 Red. masses --      1.0464                 1.0632                 1.0823
 Frc consts  --      1.3805                 1.4077                 1.4718
 IR Inten    --      4.0296                 4.5720                 3.6316

                     40                     41                     42
                      A                      A                      A
 Frequencies --   1764.3417              2208.4996              2961.7448
 Red. masses --     11.8511                 5.9124                 1.0553
 Frc consts  --     21.7357                16.9905                 5.4543
 IR Inten    --    171.8102                55.7893                54.9210

                     43                     44                     45
                      A                      A                      A
 Frequencies --   2992.7175              3031.4541              3037.8530
 Red. masses --      1.1041                 1.0394                 1.0766
 Frc consts  --      5.8260                 5.6277                 5.8537
 IR Inten    --     46.1581                18.7231                10.2444

                     46                     47                     48
                      A                      A                      A
 Frequencies --   3045.8008              3096.8116              3102.7000
 Red. masses --      1.0615                 1.1010                 1.1039
 Frc consts  --      5.8018                 6.2214                 6.2613
 IR Inten    --     14.2177                20.2723                23.6256

                     49                     50                     51
                      A                      A                      A
 Frequencies --   3111.4142              3494.7208              3837.8312
 Red. masses --      1.1007                 1.1616                 1.0665
 Frc consts  --      6.2780                 8.3588                 9.2551
 IR Inten    --     22.1519                51.1092                28.4225

 - Thermochemistry -
 -------------------
 Temperature   298.150 Kelvin.  Pressure   1.00000 Atm.
 Atom     1 has atomic number  6 and mass  12.00000

 Molecular mass:   126.06808 amu.
 Principal axes and moments of inertia in atomic units:
                           1         2         3
     Eigenvalues --   810.074991817.492572117.41370
           X            0.99952   0.03065   0.00525
           Y           -0.03043   0.99880  -0.03828
           Z           -0.00642   0.03811   0.99925
 This molecule is an asymmetric top.
 Rotational symmetry number  1.
 Warning -- assumption of classical behavior for rotation
           may cause significant error
 Rotational temperatures (Kelvin)      0.10692     0.04766     0.04091
 Rotational constants (GHZ):           2.22787     0.99298     0.85233
 Zero-point vibrational energy     407783.2 (Joules/Mol)
                                   97.46252 (Kcal/Mol)
 Warning -- explicit consideration of  14 degrees of freedom as
           vibrations may cause significant error
 Vibrational temperatures:     36.83    88.12   174.75   195.22   265.43
          (Kelvin)            308.23   326.76   356.00   374.72   523.93
                              585.74   633.60   705.73   874.92   929.74
                              991.91  1022.57  1102.52  1231.67  1314.44
                             1339.74  1381.11  1510.51  1561.45  1610.95
                             1617.52  1722.48  1786.42  1805.98  1817.27
                             1882.97  1942.51  1988.18  2035.40  2091.11
                             2113.92  2152.95  2156.81  2185.87  2538.49
                             3177.53  4261.28  4305.85  4361.58  4370.79
                             4382.22  4455.62  4464.09  4476.63  5028.12
                             5521.78

 Zero-point correction=                           0.155316 (Hartree/Particle)
 Thermal correction to Energy=                    0.166003
 Thermal correction to Enthalpy=                  0.166947
 Thermal correction to Gibbs Free Energy=         0.118329
 Sum of electronic and zero-point Energies=           -423.002932
 Sum of electronic and thermal Energies=              -422.992246
 Sum of electronic and thermal Enthalpies=            -422.991301
 Sum of electronic and thermal Free Energies=         -423.039919

                     E (Thermal)             CV                S
                      KCal/Mol        Cal/Mol-Kelvin    Cal/Mol-Kelvin
 Total                  104.168             37.434            102.325
 Electronic               0.000              0.000              0.000
 Translational            0.889              2.981             40.409
 Rotational               0.889              2.981             29.523
 Vibrational            102.391             31.473             32.393
 Vibration     1          0.593              1.985              6.144
 Vibration     2          0.597              1.973              4.417
 Vibration     3          0.609              1.931              3.077
 Vibration     4          0.614              1.918              2.864
 Vibration     5          0.631              1.861              2.283
 Vibration     6          0.644              1.819              2.007
 Vibration     7          0.651              1.800              1.902
 Vibration     8          0.661              1.767              1.749
 Vibration     9          0.668              1.745              1.659
 Vibration    10          0.738              1.546              1.104
 Vibration    11          0.772              1.455              0.937
 Vibration    12          0.800              1.382              0.825
 Vibration    13          0.846              1.271              0.682
 Vibration    14          0.967              1.015              0.436

 Optimization completed.
    -- Stationary point found.
 Normal termination of Gaussian 09 at Tue Jan 28 09:01:28 2020.
