 Gaussian 09, Revision D.01,
 Gaussian 09:  ES64L-G09RevD.01 24-Apr-2013

 -----------------------------
 # b3lyp 6-31G(2df,p) opt Freq
 -----------------------------

 -----
 titel
 -----
 Symbolic Z-matrix:
 Charge =  0 Multiplicity = 1

 SCF Done:  E(RB3LYP) =  -423.179710545     A.U. after   12 cycles
 Optimization completed.
    -- Stationary point found.
 Normal termination of Gaussian 09 at Mon Jan 27 18:18:35 2020.

 ----------------------------------------------------------------------
 #N Geom=AllCheck Guess=TCheck SCRF=Check GenChk RB3LYP/6-31G(2df,p) Fr
 eq
 ----------------------------------------------------------------------

 Structure from the checkpoint file:  "/scratch/puck/g09_4026844f-7ded-4c73-879e-cb930646e3d9/Gau-63054.chk"
 -----
 titel
 -----
 Charge =  0 Multiplicity = 1

                         Standard orientation:
 ---------------------------------------------------------------------
 Center     Atomic      Atomic             Coordinates (Angstroms)
 Number     Number       Type             X           Y           Z
 ---------------------------------------------------------------------
      1          8           0        0.877759    1.958372   -0.163398
      2          6           0        0.673413    0.588822   -0.048286
      3          6           0        1.780642   -0.492890    0.023290
      4          6           0        0.554315   -1.357420    0.392999
      5          8           0       -0.192299   -1.386543   -0.836436
      6          6           0       -0.347755    0.034955   -1.075961
      7          6           0       -1.715960    0.431857   -0.522106
      8          6           0       -1.567634    0.070682    0.987620
      9          6           0       -0.054892   -0.127199    1.144658
     10          1           0        1.418694    2.251020    0.576747
     11          1           0        2.324960   -0.762381   -0.884213
     12          1           0        2.463287   -0.330715    0.862276
     13          1           0        0.622959   -2.354787    0.822788
     14          1           0       -0.157431    0.270942   -2.124593
     15          1           0       -1.886606    1.503877   -0.665100
     16          1           0       -2.520196   -0.115945   -1.018363
     17          1           0       -1.935372    0.869645    1.637213
     18          1           0       -2.120688   -0.837367    1.244246
     19          1           0        0.373949    0.038236    2.134393
 ---------------------------------------------------------------------

 SCF Done:  E(RB3LYP) =  -423.179710545     A.U. after    1 cycles

 The electronic state is 1-A.
 Alpha  occ. eigenvalues --  -19.14964 -19.13045 -10.23860 -10.23414 -10.22285
 Alpha  occ. eigenvalues --  -10.18494 -10.18001 -10.17819 -10.17347  -1.04839
 Alpha  occ. eigenvalues --   -1.02597  -0.83397  -0.78180  -0.71062  -0.64897
 Alpha  occ. eigenvalues --   -0.60472  -0.57671  -0.54078  -0.53163  -0.47899
 Alpha  occ. eigenvalues --   -0.47009  -0.43755  -0.42350  -0.39871  -0.38209
 Alpha  occ. eigenvalues --   -0.36394  -0.35903  -0.35351  -0.34523  -0.34402
 Alpha  occ. eigenvalues --   -0.32545  -0.28194  -0.25932  -0.23392
 Alpha virt. eigenvalues --    0.07014   0.09208   0.11691   0.12359   0.13427
 Alpha virt. eigenvalues --    0.14736   0.15062   0.16295   0.16415   0.17494
 Alpha virt. eigenvalues --    0.18544   0.19726   0.20966   0.21418   0.22169

 Mulliken charges:
               1
     1  O   -0.489249
     2  C    0.373839
     3  C   -0.311056
     4  C    0.086126
     5  O   -0.291255
     6  C    0.077509
     7  C   -0.217480
     8  C   -0.236292
     9  C   -0.102106
    10  H    0.283024
    11  H    0.103194
    12  H    0.089899
    13  H    0.080878
    14  H    0.075247
    15  H    0.106981
    16  H    0.101720
    17  H    0.098709
    18  H    0.107073
    19  H    0.063238
 Sum of Mulliken charges =   0.00000

 Dipole moment (field-independent basis, Debye):
    X=              0.8826    Y=              0.7292    Z=              1.9393  Tot=              2.2520
 Quadrupole moment (field-independent basis, Debye-Ang):
   XX=            -50.6803   YY=            -55.2220   ZZ=            -51.7330
   XY=              0.3480   XZ=              2.0911   YZ=              0.3976

  Exact polarizability:  78.745  -2.251  70.701   1.348  -1.133  70.416
 Approx polarizability: 106.973  -0.324 109.372   3.087  -0.746 107.314

                      1                      2                      3
                      A                      A                      A
 Frequencies --    202.1750               239.2196               293.2654
 Red. masses --      1.8836                 2.2288                 1.4584
 Frc consts  --      0.0454                 0.0751                 0.0739
 IR Inten    --      1.1060                 6.0558                69.5257

                      4                      5                      6
                      A                      A                      A
 Frequencies --    308.0852               414.3575               447.4001
 Red. masses --      3.0485                 2.6712                 2.7973
 Frc consts  --      0.1705                 0.2702                 0.3299
 IR Inten    --     27.3257                 3.8485                 3.7785

                      7                      8                      9
                      A                      A                      A
 Frequencies --    483.7685               577.0233               642.9912
 Red. masses --      2.6204                 5.3319                 4.2142
 Frc consts  --      0.3613                 1.0460                 1.0265
 IR Inten    --      2.5054                 0.5222                 1.4188

                     10                     11                     12
                      A                      A                      A
 Frequencies --    683.4186               747.5908               804.6664
 Red. masses --      3.3033                 4.1712                 1.7526
 Frc consts  --      0.9090                 1.3735                 0.6686
 IR Inten    --      0.3159                 6.2150                 0.8112

                     13                     14                     15
                      A                      A                      A
 Frequencies --    815.8518               865.0432               898.8288
 Red. masses --      2.4173                 2.4834                 3.5916
 Frc consts  --      0.9480                 1.0949                 1.7096
 IR Inten    --      6.0756                 6.3260                 2.4395

                     16                     17                     18
                      A                      A                      A
 Frequencies --    915.2594               921.6617               941.1949
 Red. masses --      2.6892                 2.5379                 1.9455
 Frc consts  --      1.3273                 1.2702                 1.0154
 IR Inten    --      7.1593                15.6217                 9.3682

                     19                     20                     21
                      A                      A                      A
 Frequencies --    977.1379              1009.0710              1019.2069
 Red. masses --      2.4822                 2.0846                 2.3540
 Frc consts  --      1.3964                 1.2506                 1.4407
 IR Inten    --      7.9704                 6.4845                46.0621

                     22                     23                     24
                      A                      A                      A
 Frequencies --   1031.0024              1050.5962              1079.9594
 Red. masses --      1.6001                 1.9237                 1.9880
 Frc consts  --      1.0021                 1.2510                 1.3661
 IR Inten    --      8.1686                 7.5419                21.9028

                     25                     26                     27
                      A                      A                      A
 Frequencies --   1100.5317              1124.3367              1174.0770
 Red. masses --      1.5515                 1.2536                 1.4300
 Frc consts  --      1.1072                 0.9337                 1.1614
 IR Inten    --      1.1113                49.2988                 4.9888

                     28                     29                     30
                      A                      A                      A
 Frequencies --   1203.3075              1210.4743              1233.6973
 Red. masses --      1.6378                 1.7775                 1.6394
 Frc consts  --      1.3972                 1.5345                 1.4701
 IR Inten    --     21.5175                 0.7005                 0.8434

                     31                     32                     33
                      A                      A                      A
 Frequencies --   1254.3365              1279.2854              1285.7964
 Red. masses --      1.6321                 1.3022                 2.1625
 Frc consts  --      1.5129                 1.2556                 2.1065
 IR Inten    --      9.8394                10.8100               136.1742

                     34                     35                     36
                      A                      A                      A
 Frequencies --   1298.0632              1322.5392              1346.3158
 Red. masses --      1.5838                 1.5728                 1.5250
 Frc consts  --      1.5724                 1.6209                 1.6286
 IR Inten    --      7.3806                 5.0189                19.7197

                     37                     38                     39
                      A                      A                      A
 Frequencies --   1352.7520              1402.2270              1471.7132
 Red. masses --      1.5178                 2.0019                 1.0863
 Frc consts  --      1.6364                 2.3191                 1.3862
 IR Inten    --      7.8209                 1.2443                 1.8306

                     40                     41                     42
                      A                      A                      A
 Frequencies --   1487.3187              1495.9076              3051.9912
 Red. masses --      1.1821                 1.1055                 1.0604
 Frc consts  --      1.5406                 1.4575                 5.8196
 IR Inten    --      3.7826                 2.4723                21.6445

                     43                     44                     45
                      A                      A                      A
 Frequencies --   3058.2077              3059.7478              3091.6633
 Red. masses --      1.0570                 1.0615                 1.1027
 Frc consts  --      5.8246                 5.8553                 6.2101
 IR Inten    --     14.1403                50.8590                 9.1029

                     46                     47                     48
                      A                      A                      A
 Frequencies --   3100.0619              3105.0448              3114.4736
 Red. masses --      1.0881                 1.0897                 1.1040
 Frc consts  --      6.1610                 6.1902                 6.3096
 IR Inten    --     55.0816                10.5312                30.9075

                     49                     50                     51
                      A                      A                      A
 Frequencies --   3125.7971              3142.4668              3819.7397
 Red. masses --      1.1092                 1.0924                 1.0661
 Frc consts  --      6.3852                 6.3558                 9.1643
 IR Inten    --     29.4490                38.3097                26.4123

 - Thermochemistry -
 -------------------
 Temperature   298.150 Kelvin.  Pressure   1.00000 Atm.
 Atom     1 has atomic number  8 and mass  15.99491

 Molecular mass:   126.06808 amu.
 Principal axes and moments of inertia in atomic units:
                           1         2         3
     Eigenvalues --   764.08944 838.617221063.72555
           X            0.98706  -0.16020   0.00693
           Y            0.16031   0.98687  -0.01955
           Z           -0.00371   0.02041   0.99978
 This molecule is an asymmetric top.
 Rotational symmetry number  1.
 Warning -- assumption of classical behavior for rotation
           may cause significant error
 Rotational temperatures (Kelvin)      0.11336     0.10328     0.08142
 Rotational constants (GHZ):           2.36195     2.15204     1.69662
 Zero-point vibrational energy     425156.7 (Joules/Mol)
                                  101.61489 (Kcal/Mol)
 Warning -- explicit consideration of   8 degrees of freedom as
           vibrations may cause significant error
 Vibrational temperatures:    290.88   344.18   421.94   443.27   596.17
          (Kelvin)            643.71   696.03   830.21   925.12   983.29
                             1075.62  1157.73  1173.83  1244.60  1293.21
                             1316.85  1326.06  1354.17  1405.88  1451.83
                             1466.41  1483.38  1511.57  1553.82  1583.42
                             1617.67  1689.23  1731.29  1741.60  1775.01
                             1804.71  1840.60  1849.97  1867.62  1902.84
                             1937.05  1946.31  2017.49  2117.46  2139.92
                             2152.27  4391.13  4400.07  4402.29  4448.21
                             4460.29  4467.46  4481.03  4497.32  4521.30
                             5495.75

 Zero-point correction=                           0.161934 (Hartree/Particle)
 Thermal correction to Energy=                    0.168815
 Thermal correction to Enthalpy=                  0.169759
 Thermal correction to Gibbs Free Energy=         0.131204
 Sum of electronic and zero-point Energies=           -423.017777
 Sum of electronic and thermal Energies=              -423.010896
 Sum of electronic and thermal Enthalpies=            -423.009951
 Sum of electronic and thermal Free Energies=         -423.048507

                     E (Thermal)             CV                S
                      KCal/Mol        Cal/Mol-Kelvin    Cal/Mol-Kelvin
 Total                  105.933             29.164             81.147
 Electronic               0.000              0.000              0.000
 Translational            0.889              2.981             40.409
 Rotational               0.889              2.981             28.013
 Vibrational            104.155             23.202             12.725
 Vibration     1          0.639              1.837              2.113
 Vibration     2          0.657              1.780              1.809
 Vibration     3          0.688              1.686              1.455
 Vibration     4          0.698              1.658              1.373
 Vibration     5          0.778              1.439              0.911
 Vibration     6          0.807              1.367              0.804
 Vibration     7          0.840              1.286              0.700
 Vibration     8          0.933              1.081              0.491

 Optimization completed.
    -- Stationary point found.
 Normal termination of Gaussian 09 at Mon Jan 27 19:06:33 2020.
