 Gaussian 09, Revision D.01,
 Gaussian 09:  ES64L-G09RevD.01 24-Apr-2013

 -----------------------------
 # b3lyp 6-31G(2df,p) opt Freq
 -----------------------------

 -----
 titel
 -----
 Symbolic Z-matrix:
 Charge =  0 Multiplicity = 1

 SCF Done:  E(RB3LYP) =  -423.179590656     A.U. after   14 cycles
 Optimization completed.
    -- Stationary point found.
 Normal termination of Gaussian 09 at Tue Jan 28 03:12:00 2020.

 ----------------------------------------------------------------------
 #N Geom=AllCheck Guess=TCheck SCRF=Check GenChk RB3LYP/6-31G(2df,p) Fr
 eq
 ----------------------------------------------------------------------

 Structure from the checkpoint file:  "/scratch/puck/g09_fc0bf23a-1a6e-488a-833a-806fbf640631/Gau-44957.chk"
 -----
 titel
 -----
 Charge =  0 Multiplicity = 1

                         Standard orientation:
 ---------------------------------------------------------------------
 Center     Atomic      Atomic             Coordinates (Angstroms)
 Number     Number       Type             X           Y           Z
 ---------------------------------------------------------------------
      1          6           0        1.790748   -0.563246    1.298003
      2          6           0        1.327717   -0.269915   -0.113957
      3          8           0        1.304543    1.144153   -0.438774
      4          6           0       -0.038473    1.067530   -0.948072
      5          6           0       -1.082156    1.502415    0.106708
      6          6           0       -1.132922    0.034508    0.579396
      7          8           0       -1.744190   -0.547058    1.428543
      8          6           0       -0.165528   -0.437119   -0.526050
      9          6           0       -0.571442   -1.624228   -1.369090
     10          1           0        1.768617   -1.641629    1.487619
     11          1           0        2.819811   -0.215221    1.431768
     12          1           0        1.159903   -0.069506    2.041746
     13          1           0        1.968292   -0.799412   -0.834993
     14          1           0       -0.134644    1.439013   -1.970257
     15          1           0       -0.755268    2.251659    0.831299
     16          1           0       -2.043783    1.808340   -0.322037
     17          1           0       -0.578348   -2.535262   -0.760864
     18          1           0       -1.577773   -1.500182   -1.781787
     19          1           0        0.122711   -1.774240   -2.202272
 ---------------------------------------------------------------------

 SCF Done:  E(RB3LYP) =  -423.179590656     A.U. after    1 cycles

 The electronic state is 1-A.
 Alpha  occ. eigenvalues --  -19.14176 -19.13953 -10.27214 -10.24670 -10.24313
 Alpha  occ. eigenvalues --  -10.20445 -10.19346 -10.19195 -10.18206  -1.05480
 Alpha  occ. eigenvalues --   -1.04361  -0.83225  -0.77314  -0.73483  -0.65756
 Alpha  occ. eigenvalues --   -0.62244  -0.59142  -0.50895  -0.48686  -0.47808
 Alpha  occ. eigenvalues --   -0.46934  -0.44945  -0.42528  -0.41741  -0.41050
 Alpha  occ. eigenvalues --   -0.40351  -0.39633  -0.37547  -0.37088  -0.36196
 Alpha  occ. eigenvalues --   -0.31235  -0.29669  -0.25575  -0.24245
 Alpha virt. eigenvalues --   -0.02700   0.07466   0.09486   0.10974   0.11871
 Alpha virt. eigenvalues --    0.12972   0.13577   0.14861   0.15417   0.16176
 Alpha virt. eigenvalues --    0.16684   0.17972   0.18907   0.19629   0.21723

 Mulliken charges:
               1
     1  C   -0.408994
     2  C    0.115644
     3  O   -0.313436
     4  C    0.067755
     5  C   -0.364478
     6  C    0.369987
     7  O   -0.307058
     8  C    0.129811
     9  C   -0.502431
    10  H    0.125992
    11  H    0.130302
    12  H    0.131634
    13  H    0.079674
    14  H    0.084453
    15  H    0.138214
    16  H    0.132035
    17  H    0.140630
    18  H    0.126210
    19  H    0.124056
 Sum of Mulliken charges =   0.00000

 Dipole moment (field-independent basis, Debye):
    X=              0.4330    Y=             -0.2264    Z=             -1.8299  Tot=              1.8941
 Quadrupole moment (field-independent basis, Debye-Ang):
   XX=            -55.9689   YY=            -52.8594   ZZ=            -54.2775
   XY=             -5.5774   XZ=              5.3994   YZ=              1.9732

  Exact polarizability:  76.858  -4.057  76.792  -0.158  -0.894  72.600
 Approx polarizability: 110.902  -0.274 112.762  -6.545  -6.563 107.931

                      1                      2                      3
                      A                      A                      A
 Frequencies --     81.2907               121.8266               163.7297
 Red. masses --      3.8490                 3.8428                 1.0837
 Frc consts  --      0.0150                 0.0336                 0.0171
 IR Inten    --      5.6844                 1.8801                 0.4709

                      4                      5                      6
                      A                      A                      A
 Frequencies --    196.9121               220.3940               236.9937
 Red. masses --      1.6562                 1.4072                 2.4973
 Frc consts  --      0.0378                 0.0403                 0.0826
 IR Inten    --      0.2339                 0.2697                 0.4561

                      7                      8                      9
                      A                      A                      A
 Frequencies --    343.7475               373.2789               421.7570
 Red. masses --      2.9125                 2.8618                 2.9400
 Frc consts  --      0.2028                 0.2349                 0.3081
 IR Inten    --      2.4143                 5.0269                 1.4649

                     10                     11                     12
                      A                      A                      A
 Frequencies --    493.2664               539.1542               602.9135
 Red. masses --      3.2131                 2.2808                 4.3877
 Frc consts  --      0.4606                 0.3906                 0.9397
 IR Inten    --      1.7729                 2.3436                 2.6501

                     13                     14                     15
                      A                      A                      A
 Frequencies --    668.3619               726.8094               821.5783
 Red. masses --      3.6759                 3.4371                 2.6741
 Frc consts  --      0.9675                 1.0698                 1.0635
 IR Inten    --      2.9841                 0.0869                 6.2103

                     16                     17                     18
                      A                      A                      A
 Frequencies --    858.4461               874.4676               889.3500
 Red. masses --      2.3169                 1.9816                 2.2448
 Frc consts  --      1.0060                 0.8928                 1.0461
 IR Inten    --      6.0199                 2.9868                19.6057

                     19                     20                     21
                      A                      A                      A
 Frequencies --    967.4541              1004.1535              1039.1601
 Red. masses --      2.2040                 2.7367                 2.7933
 Frc consts  --      1.2154                 1.6258                 1.7772
 IR Inten    --      2.4041                24.9528                78.7524

                     22                     23                     24
                      A                      A                      A
 Frequencies --   1045.8105              1095.5762              1111.9951
 Red. masses --      1.7177                 2.3204                 1.5230
 Frc consts  --      1.1069                 1.6410                 1.1095
 IR Inten    --      5.7720                52.4474                10.4040

                     25                     26                     27
                      A                      A                      A
 Frequencies --   1129.8707              1155.0213              1176.7218
 Red. masses --      2.3811                 2.1620                 2.0816
 Frc consts  --      1.7909                 1.6994                 1.6982
 IR Inten    --      2.0762                 2.4417                 4.2898

                     28                     29                     30
                      A                      A                      A
 Frequencies --   1207.8029              1224.3379              1254.3172
 Red. masses --      2.5626                 2.0279                 1.6971
 Frc consts  --      2.2026                 1.7910                 1.5731
 IR Inten    --     15.4761                22.1299                 4.1324

                     31                     32                     33
                      A                      A                      A
 Frequencies --   1308.7931              1348.7852              1389.8921
 Red. masses --      1.3579                 1.7942                 1.4632
 Frc consts  --      1.3705                 1.9232                 1.6654
 IR Inten    --     25.5154                 5.3157                 2.6839

                     34                     35                     36
                      A                      A                      A
 Frequencies --   1410.1116              1412.2330              1416.9703
 Red. masses --      1.2160                 1.3321                 1.1183
 Frc consts  --      1.4246                 1.5653                 1.3229
 IR Inten    --      3.6178                14.0396                10.7839

                     37                     38                     39
                      A                      A                      A
 Frequencies --   1480.3824              1488.2098              1492.6323
 Red. masses --      1.0542                 1.0511                 1.0496
 Frc consts  --      1.3612                 1.3716                 1.3778
 IR Inten    --      1.8430                 6.4682                 6.0256

                     40                     41                     42
                      A                      A                      A
 Frequencies --   1494.8486              1883.5214              2985.7389
 Red. masses --      1.0501                12.7137                 1.0845
 Frc consts  --      1.3826                26.5744                 5.6961
 IR Inten    --      3.8439               225.0031                48.5889

                     43                     44                     45
                      A                      A                      A
 Frequencies --   3031.3653              3040.2053              3047.9438
 Red. masses --      1.0349                 1.0355                 1.0622
 Frc consts  --      5.6029                 5.6389                 5.8138
 IR Inten    --     23.5861                10.8293                 5.5645

                     46                     47                     48
                      A                      A                      A
 Frequencies --   3093.2609              3100.1105              3103.3802
 Red. masses --      1.0900                 1.1005                 1.1021
 Frc consts  --      6.1446                 6.2317                 6.2536
 IR Inten    --     37.9013                17.5794                16.9338

                     49                     50                     51
                      A                      A                      A
 Frequencies --   3109.6147              3119.5233              3123.9048
 Red. masses --      1.1008                 1.1018                 1.1019
 Frc consts  --      6.2716                 6.3170                 6.3356
 IR Inten    --     14.4028                 5.1876                19.9222

 - Thermochemistry -
 -------------------
 Temperature   298.150 Kelvin.  Pressure   1.00000 Atm.
 Atom     1 has atomic number  6 and mass  12.00000

 Molecular mass:   126.06808 amu.
 Principal axes and moments of inertia in atomic units:
                           1         2         3
     Eigenvalues --   885.267481116.168481166.53949
           X            0.98257  -0.15224   0.10664
           Y            0.11872   0.95547   0.27017
           Z           -0.14303  -0.25280   0.95689
 This molecule is an asymmetric top.
 Rotational symmetry number  1.
 Warning -- assumption of classical behavior for rotation
           may cause significant error
 Rotational temperatures (Kelvin)      0.09784     0.07760     0.07425
 Rotational constants (GHZ):           2.03864     1.61691     1.54709
 Zero-point vibrational energy     412280.6 (Joules/Mol)
                                   98.53742 (Kcal/Mol)
 Warning -- explicit consideration of  12 degrees of freedom as
           vibrations may cause significant error
 Vibrational temperatures:    116.96   175.28   235.57   283.31   317.10
          (Kelvin)            340.98   494.58   537.06   606.81   709.70
                              775.72   867.46   961.62  1045.72  1182.07
                             1235.11  1258.16  1279.57  1391.95  1444.75
                             1495.12  1504.69  1576.29  1599.91  1625.63
                             1661.82  1693.04  1737.76  1761.55  1804.68
                             1883.06  1940.60  1999.74  2028.83  2031.89
                             2038.70  2129.94  2141.20  2147.56  2150.75
                             2709.96  4295.81  4361.45  4374.17  4385.31
                             4450.51  4460.36  4465.07  4474.04  4488.29
                             4494.60

 Zero-point correction=                           0.157029 (Hartree/Particle)
 Thermal correction to Energy=                    0.165969
 Thermal correction to Enthalpy=                  0.166913
 Thermal correction to Gibbs Free Energy=         0.123513
 Sum of electronic and zero-point Energies=           -423.022561
 Sum of electronic and thermal Energies=              -423.013621
 Sum of electronic and thermal Enthalpies=            -423.012677
 Sum of electronic and thermal Free Energies=         -423.056078

                     E (Thermal)             CV                S
                      KCal/Mol        Cal/Mol-Kelvin    Cal/Mol-Kelvin
 Total                  104.147             33.361             91.344
 Electronic               0.000              0.000              0.000
 Translational            0.889              2.981             40.409
 Rotational               0.889              2.981             28.535
 Vibrational            102.370             27.400             22.401
 Vibration     1          0.600              1.962              3.859
 Vibration     2          0.609              1.931              3.071
 Vibration     3          0.623              1.887              2.506
 Vibration     4          0.636              1.844              2.162
 Vibration     5          0.647              1.810              1.956
 Vibration     6          0.656              1.784              1.825
 Vibration     7          0.722              1.588              1.195
 Vibration     8          0.745              1.527              1.066
 Vibration     9          0.784              1.423              0.886
 Vibration    10          0.849              1.265              0.675
 Vibration    11          0.894              1.163              0.567
 Vibration    12          0.961              1.026              0.445

 Optimization completed.
    -- Stationary point found.
 Normal termination of Gaussian 09 at Tue Jan 28 05:10:16 2020.
