 Gaussian 09, Revision D.01,
 Gaussian 09:  ES64L-G09RevD.01 24-Apr-2013

 -----------------------------
 # b3lyp 6-31G(2df,p) opt Freq
 -----------------------------

 -----
 titel
 -----
 Symbolic Z-matrix:
 Charge =  0 Multiplicity = 1

 SCF Done:  E(RB3LYP) =  -423.240787742     A.U. after   13 cycles
 Optimization completed.
    -- Stationary point found.
 Normal termination of Gaussian 09 at Mon Jan 27 13:11:04 2020.

 ----------------------------------------------------------------------
 #N Geom=AllCheck Guess=TCheck SCRF=Check GenChk RB3LYP/6-31G(2df,p) Fr
 eq
 ----------------------------------------------------------------------

 Structure from the checkpoint file:  "/scratch/puck/g09_928e9e5d-e045-49cc-b9d0-de5049707d8c/Gau-156124.chk"
 -----
 titel
 -----
 Charge =  0 Multiplicity = 1

                         Standard orientation:
 ---------------------------------------------------------------------
 Center     Atomic      Atomic             Coordinates (Angstroms)
 Number     Number       Type             X           Y           Z
 ---------------------------------------------------------------------
      1          8           0       -2.246023   -1.025720    0.638414
      2          6           0       -1.285553   -0.715608   -0.026366
      3          6           0       -1.293531    0.528143   -0.905316
      4          6           0       -0.758711    1.756119   -0.129546
      5          6           0        0.754800    1.757477    0.129306
      6          6           0        1.291913    0.530540    0.905172
      7          6           0        1.287105   -0.713268    0.026309
      8          8           0        2.249023   -1.022057   -0.636970
      9          6           0        0.001481   -1.539947   -0.000883
     10          1           0       -0.692457    0.368090   -1.808955
     11          1           0       -2.329565    0.710815   -1.201192
     12          1           0       -1.015306    2.657514   -0.696248
     13          1           0       -1.300005    1.823948    0.822213
     14          1           0        1.295979    1.826325   -0.822450
     15          1           0        1.009759    2.659348    0.695990
     16          1           0        2.327415    0.715412    1.201527
     17          1           0        0.690780    0.369105    1.808536
     18          1           0        0.038648   -2.183618   -0.886763
     19          1           0       -0.034270   -2.185459    0.883723
 ---------------------------------------------------------------------

 SCF Done:  E(RB3LYP) =  -423.240787742     A.U. after    1 cycles

 The electronic state is 1-A.
 Alpha  occ. eigenvalues --  -19.13770 -19.13769 -10.27932 -10.27930 -10.20427
 Alpha  occ. eigenvalues --  -10.20406 -10.20112 -10.20000 -10.19999  -1.05035
 Alpha  occ. eigenvalues --   -1.04713  -0.83184  -0.77028  -0.76338  -0.67673
 Alpha  occ. eigenvalues --   -0.61450  -0.55381  -0.53124  -0.50020  -0.48035
 Alpha  occ. eigenvalues --   -0.46473  -0.45028  -0.43105  -0.42990  -0.42303
 Alpha  occ. eigenvalues --   -0.42113  -0.38443  -0.36885  -0.36355  -0.34925
 Alpha  occ. eigenvalues --   -0.34153  -0.33932  -0.26498  -0.24080
 Alpha virt. eigenvalues --   -0.03697  -0.01425   0.08311   0.10819   0.11054
 Alpha virt. eigenvalues --    0.12736   0.13517   0.14544   0.15533   0.16319
 Alpha virt. eigenvalues --    0.16543   0.17761   0.18636   0.20111   0.22253

 Mulliken charges:
               1
     1  O   -0.304575
     2  C    0.373627
     3  C   -0.288749
     4  C   -0.198118
     5  C   -0.198150
     6  C   -0.288795
     7  C    0.373672
     8  O   -0.304527
     9  C   -0.392035
    10  H    0.112889
    11  H    0.126527
    12  H    0.110082
    13  H    0.119064
    14  H    0.119035
    15  H    0.110105
    16  H    0.126518
    17  H    0.112966
    18  H    0.145223
    19  H    0.145241
 Sum of Mulliken charges =   0.00000

 Dipole moment (field-independent basis, Debye):
    X=             -0.0033    Y=              1.9798    Z=             -0.0027  Tot=              1.9798
 Quadrupole moment (field-independent basis, Debye-Ang):
   XX=            -65.1593   YY=            -51.4319   ZZ=            -52.3230
   XY=             -0.0093   XZ=              6.5615   YZ=              0.0093

  Exact polarizability:  82.300  -0.002  78.311  -2.718  -0.001  65.144
 Approx polarizability: 123.739   0.009 106.564 -15.750  -0.016 105.730

                      1                      2                      3
                      A                      A                      A
 Frequencies --     51.8055                82.1845               158.2049
 Red. masses --      4.3119                 4.7302                 2.7655
 Frc consts  --      0.0068                 0.0188                 0.0408
 IR Inten    --      7.6790                 4.7640                 0.0490

                      4                      5                      6
                      A                      A                      A
 Frequencies --    270.3212               290.6549               331.0829
 Red. masses --      2.4695                 2.9193                 2.4447
 Frc consts  --      0.1063                 0.1453                 0.1579
 IR Inten    --      1.0362                 1.2040                 4.0783

                      7                      8                      9
                      A                      A                      A
 Frequencies --    407.3999               429.6755               469.5030
 Red. masses --      5.8932                 1.9842                 2.7978
 Frc consts  --      0.5763                 0.2158                 0.3634
 IR Inten    --      1.2269                 1.2531                13.2106

                     10                     11                     12
                      A                      A                      A
 Frequencies --    522.4177               626.2193               629.8374
 Red. masses --      2.3760                 2.3349                 4.3375
 Frc consts  --      0.3821                 0.5395                 1.0138
 IR Inten    --     12.1078                 1.8144                 1.7427

                     13                     14                     15
                      A                      A                      A
 Frequencies --    779.3267               786.1527               830.2417
 Red. masses --      2.5628                 2.0578                 2.8136
 Frc consts  --      0.9171                 0.7493                 1.1427
 IR Inten    --      2.9558                 7.6021                 0.0561

                     16                     17                     18
                      A                      A                      A
 Frequencies --    856.7732               902.6353               923.4860
 Red. masses --      1.6872                 2.3233                 2.9450
 Frc consts  --      0.7297                 1.1153                 1.4798
 IR Inten    --      5.0662                 0.5304                 6.7901

                     19                     20                     21
                      A                      A                      A
 Frequencies --    955.0253               992.7453              1020.9249
 Red. masses --      1.9190                 1.8795                 1.5146
 Frc consts  --      1.0312                 1.0913                 0.9301
 IR Inten    --      8.8904                 2.7311                 5.2335

                     22                     23                     24
                      A                      A                      A
 Frequencies --   1078.9549              1131.1068              1147.6871
 Red. masses --      2.3767                 1.6258                 2.2965
 Frc consts  --      1.6302                 1.2255                 1.7822
 IR Inten    --      0.7108                16.2607                54.8262

                     25                     26                     27
                      A                      A                      A
 Frequencies --   1178.3416              1194.0630              1249.2676
 Red. masses --      1.1258                 2.0047                 1.3603
 Frc consts  --      0.9210                 1.6841                 1.2508
 IR Inten    --      2.6376                29.8850                 1.1363

                     28                     29                     30
                      A                      A                      A
 Frequencies --   1250.7092              1286.9968              1292.2593
 Red. masses --      1.4046                 1.6692                 1.4668
 Frc consts  --      1.2946                 1.6289                 1.4432
 IR Inten    --      3.9372                39.7048                 5.4675

                     31                     32                     33
                      A                      A                      A
 Frequencies --   1338.9361              1348.3392              1378.4860
 Red. masses --      1.3502                 1.3815                 1.3689
 Frc consts  --      1.4261                 1.4798                 1.5326
 IR Inten    --      1.6886                26.5323                12.0038

                     34                     35                     36
                      A                      A                      A
 Frequencies --   1382.0679              1432.5869              1476.5276
 Red. masses --      1.4424                 1.0862                 1.1093
 Frc consts  --      1.6232                 1.3135                 1.4249
 IR Inten    --      0.5164                11.0145                 0.0045

                     37                     38                     39
                      A                      A                      A
 Frequencies --   1478.2642              1489.9303              1496.3086
 Red. masses --      1.1127                 1.0775                 1.0930
 Frc consts  --      1.4327                 1.4092                 1.4419
 IR Inten    --     13.1109                 7.6874                 1.9275

                     40                     41                     42
                      A                      A                      A
 Frequencies --   1797.6748              1823.2261              3030.3405
 Red. masses --     11.5797                10.9962                 1.0662
 Frc consts  --     22.0480                21.5364                 5.7684
 IR Inten    --    304.2037                33.2333                 6.1127

                     43                     44                     45
                      A                      A                      A
 Frequencies --   3031.3428              3034.9809              3035.8289
 Red. masses --      1.0617                 1.0612                 1.0606
 Frc consts  --      5.7480                 5.7591                 5.7593
 IR Inten    --      8.4498                22.2080                17.0847

                     46                     47                     48
                      A                      A                      A
 Frequencies --   3045.3743              3072.3032              3081.2960
 Red. masses --      1.0581                 1.0985                 1.1030
 Frc consts  --      5.7819                 6.1091                 6.1703
 IR Inten    --      2.0366                22.3376                34.9715

                     49                     50                     51
                      A                      A                      A
 Frequencies --   3097.7733              3107.0861              3107.1848
 Red. masses --      1.1027                 1.1004                 1.1009
 Frc consts  --      6.2345                 6.2589                 6.2624
 IR Inten    --      4.5209                 1.6164                27.6091

 - Thermochemistry -
 -------------------
 Temperature   298.150 Kelvin.  Pressure   1.00000 Atm.
 Atom     1 has atomic number  8 and mass  15.99491

 Molecular mass:   126.06808 amu.
 Principal axes and moments of inertia in atomic units:
                           1         2         3
     Eigenvalues --   831.517501139.278451640.21539
           X            0.99949  -0.00021   0.03197
           Y            0.00021   1.00000   0.00007
           Z           -0.03197  -0.00006   0.99949
 This molecule is an asymmetric top.
 Rotational symmetry number  1.
 Warning -- assumption of classical behavior for rotation
           may cause significant error
 Rotational temperatures (Kelvin)      0.10416     0.07603     0.05281
 Rotational constants (GHZ):           2.17042     1.58411     1.10031
 Zero-point vibrational energy     419960.2 (Joules/Mol)
                                  100.37290 (Kcal/Mol)
 Warning -- explicit consideration of  10 degrees of freedom as
           vibrations may cause significant error
 Vibrational temperatures:     74.54   118.24   227.62   388.93   418.19
          (Kelvin)            476.35   586.16   618.21   675.51   751.64
                              900.99   906.19  1121.28  1131.10  1194.53
                             1232.70  1298.69  1328.69  1374.07  1428.34
                             1468.88  1552.37  1627.41  1651.26  1695.37
                             1717.99  1797.42  1799.49  1851.70  1859.27
                             1926.43  1939.96  1983.33  1988.49  2061.17
                             2124.39  2126.89  2143.67  2152.85  2586.45
                             2623.21  4359.98  4361.42  4366.66  4367.88
                             4381.61  4420.35  4433.29  4457.00  4470.40
                             4470.54

 Zero-point correction=                           0.159954 (Hartree/Particle)
 Thermal correction to Energy=                    0.168360
 Thermal correction to Enthalpy=                  0.169304
 Thermal correction to Gibbs Free Energy=         0.126277
 Sum of electronic and zero-point Energies=           -423.080833
 Sum of electronic and thermal Energies=              -423.072428
 Sum of electronic and thermal Enthalpies=            -423.071484
 Sum of electronic and thermal Free Energies=         -423.114511

                     E (Thermal)             CV                S
                      KCal/Mol        Cal/Mol-Kelvin    Cal/Mol-Kelvin
 Total                  105.647             31.628             90.558
 Electronic               0.000              0.000              0.000
 Translational            0.889              2.981             40.409
 Rotational               0.889              2.981             28.832
 Vibrational            103.870             25.667             21.318
 Vibration     1          0.596              1.977              4.747
 Vibration     2          0.600              1.961              3.838
 Vibration     3          0.621              1.893              2.571
 Vibration     4          0.674              1.728              1.594
 Vibration     5          0.687              1.691              1.470
 Vibration     6          0.713              1.613              1.255
 Vibration     7          0.772              1.454              0.936
 Vibration     8          0.791              1.406              0.860
 Vibration     9          0.827              1.318              0.739
 Vibration    10          0.877              1.200              0.604

 Normal termination of Gaussian 09 at Mon Jan 27 13:54:42 2020.
