 Gaussian 09, Revision D.01,
 Gaussian 09:  ES64L-G09RevD.01 24-Apr-2013

 -----------------------------
 # b3lyp 6-31G(2df,p) opt Freq
 -----------------------------

 -----
 titel
 -----
 Symbolic Z-matrix:
 Charge =  0 Multiplicity = 1

 SCF Done:  E(RB3LYP) =  -423.173978234     A.U. after   13 cycles
 Optimization completed.
    -- Stationary point found.
 Normal termination of Gaussian 09 at Mon Jan 27 18:56:41 2020.

 ----------------------------------------------------------------------
 #N Geom=AllCheck Guess=TCheck SCRF=Check GenChk RB3LYP/6-31G(2df,p) Fr
 eq
 ----------------------------------------------------------------------

 Structure from the checkpoint file:  "/scratch/puck/g09_cf6b1c1f-0a74-4b5c-8ab2-d7b3fd71edfb/Gau-64567.chk"
 -----
 titel
 -----
 Charge =  0 Multiplicity = 1

                         Standard orientation:
 ---------------------------------------------------------------------
 Center     Atomic      Atomic             Coordinates (Angstroms)
 Number     Number       Type             X           Y           Z
 ---------------------------------------------------------------------
      1          8           0        1.926737   -1.076263   -0.313696
      2          6           0        0.849473   -0.232856   -0.000711
      3          6           0        1.150775    1.276301   -0.004865
      4          6           0       -0.269086    1.914155    0.048270
      5          6           0       -1.184230    0.751500   -0.357151
      6          6           0       -1.359299   -0.442231    0.640460
      7          6           0        0.032332   -0.576868    1.288311
      8          8           0       -1.230365   -1.371201   -0.477295
      9          6           0       -0.338581   -0.364786   -1.009043
     10          1           0        2.596400   -0.981450    0.371500
     11          1           0        1.792498    1.576168    0.830529
     12          1           0        1.669895    1.542760   -0.932394
     13          1           0       -0.515282    2.299371    1.043235
     14          1           0       -0.359859    2.753340   -0.646573
     15          1           0       -2.108000    0.999342   -0.877953
     16          1           0       -2.252249   -0.596394    1.247335
     17          1           0        0.219538    0.106480    2.121980
     18          1           0        0.201888   -1.607329    1.607070
     19          1           0       -0.104101   -0.463867   -2.068415
 ---------------------------------------------------------------------

 SCF Done:  E(RB3LYP) =  -423.173978234     A.U. after    1 cycles

 The electronic state is 1-A.
 Alpha  occ. eigenvalues --  -19.13777 -19.12786 -10.23589 -10.23391 -10.22665
 Alpha  occ. eigenvalues --  -10.19024 -10.18745 -10.18301 -10.17879  -1.04999
 Alpha  occ. eigenvalues --   -1.01862  -0.83771  -0.73708  -0.71043  -0.68998
 Alpha  occ. eigenvalues --   -0.61405  -0.56335  -0.53545  -0.53043  -0.47782
 Alpha  occ. eigenvalues --   -0.47623  -0.43664  -0.42074  -0.40936  -0.39135
 Alpha  occ. eigenvalues --   -0.38062  -0.36702  -0.35405  -0.33860  -0.32270
 Alpha  occ. eigenvalues --   -0.31145  -0.29651  -0.26090  -0.23542
 Alpha virt. eigenvalues --    0.07134   0.08488   0.09618   0.11736   0.13654
 Alpha virt. eigenvalues --    0.14045   0.14754   0.16062   0.16966   0.17033
 Alpha virt. eigenvalues --    0.17657   0.18519   0.19441   0.21049   0.22805

 Mulliken charges:
               1
     1  O   -0.504956
     2  C    0.417009
     3  C   -0.273078
     4  C   -0.258846
     5  C   -0.027705
     6  C    0.066948
     7  C   -0.290902
     8  O   -0.297509
     9  C    0.045330
    10  H    0.276418
    11  H    0.089981
    12  H    0.104673
    13  H    0.103700
    14  H    0.106374
    15  H    0.080692
    16  H    0.076881
    17  H    0.088832
    18  H    0.112582
    19  H    0.083576
 Sum of Mulliken charges =   0.00000

 Dipole moment (field-independent basis, Debye):
    X=              0.6832    Y=              2.3703    Z=              1.5705  Tot=              2.9244
 Quadrupole moment (field-independent basis, Debye-Ang):
   XX=            -51.1374   YY=            -57.0070   ZZ=            -50.8743
   XY=             -1.5260   XZ=              1.5990   YZ=             -2.9173

  Exact polarizability:  75.819  -0.079  72.163  -0.142  -1.798  69.879
 Approx polarizability: 108.387   0.590 105.606  -0.873   1.236 108.378

                      1                      2                      3
                      A                      A                      A
 Frequencies --    220.8493               230.6300               275.7593
 Red. masses --      1.9133                 1.1399                 3.4308
 Frc consts  --      0.0550                 0.0357                 0.1537
 IR Inten    --      0.5105                72.0066                18.8454

                      4                      5                      6
                      A                      A                      A
 Frequencies --    329.4213               408.0575               427.5259
 Red. masses --      2.9543                 2.9596                 2.4458
 Frc consts  --      0.1889                 0.2904                 0.2634
 IR Inten    --      2.3593                 9.0995                 3.8281

                      7                      8                      9
                      A                      A                      A
 Frequencies --    514.9439               584.9304               621.8444
 Red. masses --      3.5186                 4.9367                 4.6680
 Frc consts  --      0.5497                 0.9952                 1.0635
 IR Inten    --      5.1306                 9.8360                 5.8329

                     10                     11                     12
                      A                      A                      A
 Frequencies --    683.9422               746.5606               782.6838
 Red. masses --      4.0255                 2.8617                 2.9797
 Frc consts  --      1.1094                 0.9397                 1.0754
 IR Inten    --      0.6736                 1.6242                 0.4195

                     13                     14                     15
                      A                      A                      A
 Frequencies --    798.5194               862.6025               885.6766
 Red. masses --      1.8538                 2.8799                 1.9198
 Frc consts  --      0.6964                 1.2625                 0.8873
 IR Inten    --      1.3805                17.3021                15.5715

                     16                     17                     18
                      A                      A                      A
 Frequencies --    900.4246               928.6642               954.5370
 Red. masses --      2.2100                 2.5333                 3.5203
 Frc consts  --      1.0557                 1.2872                 1.8898
 IR Inten    --      6.9875                 3.1863                23.1328

                     19                     20                     21
                      A                      A                      A
 Frequencies --    964.2332               998.1274              1028.9462
 Red. masses --      1.8965                 2.2004                 2.3485
 Frc consts  --      1.0389                 1.2916                 1.4650
 IR Inten    --      5.2463                13.7437                 1.0458

                     22                     23                     24
                      A                      A                      A
 Frequencies --   1037.6720              1053.6393              1094.0562
 Red. masses --      1.3712                 1.5904                 2.2191
 Frc consts  --      0.8699                 1.0403                 1.5650
 IR Inten    --     26.0217                 1.6616                10.7236

                     25                     26                     27
                      A                      A                      A
 Frequencies --   1127.6500              1146.5014              1191.7311
 Red. masses --      2.4315                 1.5102                 1.5084
 Frc consts  --      1.8217                 1.1696                 1.2622
 IR Inten    --     49.0639                17.9111                 6.2660

                     28                     29                     30
                      A                      A                      A
 Frequencies --   1200.7841              1216.1412              1234.7352
 Red. masses --      1.5536                 1.7597                 1.4577
 Frc consts  --      1.3198                 1.5334                 1.3094
 IR Inten    --      0.0380                10.3209                 9.7891

                     31                     32                     33
                      A                      A                      A
 Frequencies --   1239.8121              1258.1637              1288.3252
 Red. masses --      1.4084                 1.6286                 1.4642
 Frc consts  --      1.2755                 1.5189                 1.4319
 IR Inten    --     16.6165                30.8897                14.6500

                     34                     35                     36
                      A                      A                      A
 Frequencies --   1303.3160              1316.0004              1340.8219
 Red. masses --      1.5347                 1.7230                 1.5878
 Frc consts  --      1.5360                 1.7582                 1.6819
 IR Inten    --     21.4935                 3.4396                17.4879

                     37                     38                     39
                      A                      A                      A
 Frequencies --   1352.0687              1389.7431              1479.9981
 Red. masses --      1.7555                 1.8395                 1.1083
 Frc consts  --      1.8908                 2.0933                 1.4303
 IR Inten    --     16.1216                 1.3124                 3.0309

                     40                     41                     42
                      A                      A                      A
 Frequencies --   1487.2024              1508.5106              3035.6198
 Red. masses --      1.0818                 1.1053                 1.0585
 Frc consts  --      1.4098                 1.4819                 5.7469
 IR Inten    --      0.3710                 4.8979                34.7191

                     43                     44                     45
                      A                      A                      A
 Frequencies --   3050.0624              3057.9492              3074.8174
 Red. masses --      1.0642                 1.0608                 1.1023
 Frc consts  --      5.8329                 5.8447                 6.1404
 IR Inten    --     26.5487                23.3053                14.5968

                     46                     47                     48
                      A                      A                      A
 Frequencies --   3095.3703              3111.9558              3121.2093
 Red. masses --      1.1038                 1.0904                 1.1051
 Frc consts  --      6.2309                 6.2215                 6.3431
 IR Inten    --     33.1828                47.6752                17.1843

                     49                     50                     51
                      A                      A                      A
 Frequencies --   3126.8684              3136.1703              3809.4411
 Red. masses --      1.0883                 1.0928                 1.0661
 Frc consts  --      6.2692                 6.3325                 9.1151
 IR Inten    --     32.9887                29.1277                18.6654

 - Thermochemistry -
 -------------------
 Temperature   298.150 Kelvin.  Pressure   1.00000 Atm.
 Atom     1 has atomic number  8 and mass  15.99491

 Molecular mass:   126.06808 amu.
 Principal axes and moments of inertia in atomic units:
                           1         2         3
     Eigenvalues --   753.74451 832.216601152.32505
           X            0.99991  -0.01217   0.00597
           Y            0.01235   0.99945  -0.03070
           Z           -0.00559   0.03077   0.99951
 This molecule is an asymmetric top.
 Rotational symmetry number  1.
 Warning -- assumption of classical behavior for rotation
           may cause significant error
 Rotational temperatures (Kelvin)      0.11491     0.10408     0.07516
 Rotational constants (GHZ):           2.39437     2.16860     1.56617
 Zero-point vibrational energy     424884.9 (Joules/Mol)
                                  101.54994 (Kcal/Mol)
 Warning -- explicit consideration of   8 degrees of freedom as
           vibrations may cause significant error
 Vibrational temperatures:    317.75   331.82   396.76   473.96   587.10
          (Kelvin)            615.11   740.89   841.58   894.69   984.04
                             1074.13  1126.11  1148.89  1241.09  1274.29
                             1295.51  1336.14  1373.36  1387.31  1436.08
                             1480.42  1492.98  1515.95  1574.10  1622.43
                             1649.56  1714.63  1727.66  1749.75  1776.51
                             1783.81  1810.21  1853.61  1875.18  1893.43
                             1929.14  1945.32  1999.53  2129.38  2139.75
                             2170.41  4367.57  4388.35  4399.70  4423.97
                             4453.54  4477.40  4490.72  4498.86  4512.24
                             5480.93

 Zero-point correction=                           0.161830 (Hartree/Particle)
 Thermal correction to Energy=                    0.168709
 Thermal correction to Enthalpy=                  0.169653
 Thermal correction to Gibbs Free Energy=         0.131092
 Sum of electronic and zero-point Energies=           -423.012148
 Sum of electronic and thermal Energies=              -423.005270
 Sum of electronic and thermal Enthalpies=            -423.004325
 Sum of electronic and thermal Free Energies=         -423.042886

                     E (Thermal)             CV                S
                      KCal/Mol        Cal/Mol-Kelvin    Cal/Mol-Kelvin
 Total                  105.866             29.198             81.158
 Electronic               0.000              0.000              0.000
 Translational            0.889              2.981             40.409
 Rotational               0.889              2.981             28.071
 Vibrational            104.089             23.236             12.678
 Vibration     1          0.648              1.809              1.952
 Vibration     2          0.652              1.794              1.874
 Vibration     3          0.677              1.718              1.560
 Vibration     4          0.712              1.617              1.263
 Vibration     5          0.773              1.453              0.934
 Vibration     6          0.789              1.410              0.867
 Vibration     7          0.870              1.217              0.622
 Vibration     8          0.942              1.064              0.476

 Optimization completed.
    -- Stationary point found.
 Normal termination of Gaussian 09 at Mon Jan 27 19:43:34 2020.
