 Gaussian 09, Revision D.01,
 Gaussian 09:  ES64L-G09RevD.01 24-Apr-2013

 -----------------------------
 # b3lyp 6-31G(2df,p) opt Freq
 -----------------------------

 -----
 titel
 -----
 Symbolic Z-matrix:
 Charge =  0 Multiplicity = 1

 SCF Done:  E(RB3LYP) =  -423.225036915     A.U. after   14 cycles
 Optimization completed.
    -- Stationary point found.
 Normal termination of Gaussian 09 at Tue Jan 28 01:58:37 2020.

 ----------------------------------------------------------------------
 #N Geom=AllCheck Guess=TCheck SCRF=Check GenChk RB3LYP/6-31G(2df,p) Fr
 eq
 ----------------------------------------------------------------------

 Structure from the checkpoint file:  "/scratch/puck/g09_65114ec1-3c69-4206-bcda-066e2fabfd43/Gau-26570.chk"
 -----
 titel
 -----
 Charge =  0 Multiplicity = 1

                         Standard orientation:
 ---------------------------------------------------------------------
 Center     Atomic      Atomic             Coordinates (Angstroms)
 Number     Number       Type             X           Y           Z
 ---------------------------------------------------------------------
      1          6           0        2.755708   -0.931813   -0.484953
      2          6           0        1.965069    0.315753   -0.156535
      3          6           0        1.391523    0.540801    1.224819
      4          6           0        0.476556    0.275710    0.053270
      5          6           0       -0.429363    1.374565   -0.487842
      6          8           0       -1.772948    0.927357   -0.245101
      7          6           0       -1.808297   -0.411145    0.007238
      8          8           0       -2.831614   -0.997112    0.203545
      9          6           0       -0.386195   -0.968946   -0.020004
     10          1           0        2.723636   -1.155915   -1.556958
     11          1           0        3.806830   -0.812558   -0.202000
     12          1           0        2.366886   -1.804576    0.048590
     13          1           0        2.329378    1.213414   -0.653671
     14          1           0        1.512296   -0.252662    1.956448
     15          1           0        1.419106    1.541732    1.643931
     16          1           0       -0.296241    2.337042    0.013091
     17          1           0       -0.304333    1.520928   -1.568809
     18          1           0       -0.252461   -1.679336    0.796852
     19          1           0       -0.258605   -1.519579   -0.960982
 ---------------------------------------------------------------------

 SCF Done:  E(RB3LYP) =  -423.225036915     A.U. after    1 cycles

 The electronic state is 1-A.
 Alpha  occ. eigenvalues --  -19.17879 -19.11873 -10.30181 -10.24955 -10.21469
 Alpha  occ. eigenvalues --  -10.20767 -10.20526 -10.19722 -10.19110  -1.09678
 Alpha  occ. eigenvalues --   -1.01810  -0.88526  -0.76582  -0.73404  -0.70921
 Alpha  occ. eigenvalues --   -0.60222  -0.57438  -0.55641  -0.50497  -0.49799
 Alpha  occ. eigenvalues --   -0.47993  -0.46562  -0.43293  -0.42905  -0.41666
 Alpha  occ. eigenvalues --   -0.40434  -0.38394  -0.37568  -0.36688  -0.35341
 Alpha  occ. eigenvalues --   -0.29986  -0.29612  -0.28432  -0.26055
 Alpha virt. eigenvalues --    0.01628   0.07739   0.08662   0.09361   0.10270
 Alpha virt. eigenvalues --    0.11897   0.14021   0.14712   0.15293   0.16096
 Alpha virt. eigenvalues --    0.16849   0.17385   0.19332   0.20153   0.22803

 Mulliken charges:
               1
     1  C   -0.409876
     2  C   -0.057009
     3  C   -0.336984
     4  C    0.317334
     5  C   -0.142635
     6  O   -0.218406
     7  C    0.438629
     8  O   -0.335766
     9  C   -0.457869
    10  H    0.121750
    11  H    0.124517
    12  H    0.120652
    13  H    0.086826
    14  H    0.116646
    15  H    0.115621
    16  H    0.123324
    17  H    0.113965
    18  H    0.141189
    19  H    0.138091
 Sum of Mulliken charges =   0.00000

 Dipole moment (field-independent basis, Debye):
    X=              4.4673    Y=              0.8388    Z=             -0.5250  Tot=              4.5756
 Quadrupole moment (field-independent basis, Debye-Ang):
   XX=            -66.1379   YY=            -51.7492   ZZ=            -51.3086
   XY=             -2.3738   XZ=              0.7061   YZ=              0.0235

  Exact polarizability:  87.355   3.439  74.562  -1.162  -0.661  64.925
 Approx polarizability: 116.766   9.436 111.329  -2.988  -2.905  99.420

                      1                      2                      3
                      A                      A                      A
 Frequencies --     68.6221               147.9200               159.1792
 Red. masses --      3.3766                 4.1064                 3.8412
 Frc consts  --      0.0094                 0.0529                 0.0573
 IR Inten    --      4.3094                 0.7543                 0.9691

                      4                      5                      6
                      A                      A                      A
 Frequencies --    201.7254               232.8029               341.2263
 Red. masses --      1.0466                 2.2979                 2.5858
 Frc consts  --      0.0251                 0.0734                 0.1774
 IR Inten    --      0.1447                 0.4989                 1.9691

                      7                      8                      9
                      A                      A                      A
 Frequencies --    389.5193               428.0330               476.3472
 Red. masses --      2.5367                 2.0536                 4.6788
 Frc consts  --      0.2268                 0.2217                 0.6255
 IR Inten    --      1.9403                 0.4930                 3.2577

                     10                     11                     12
                      A                      A                      A
 Frequencies --    555.6762               566.9478               691.9319
 Red. masses --      3.6364                 2.8778                 7.2591
 Frc consts  --      0.6615                 0.5450                 2.0477
 IR Inten    --      1.1357                 4.8836                 3.7104

                     13                     14                     15
                      A                      A                      A
 Frequencies --    756.4228               824.8426               852.3582
 Red. masses --      2.8360                 2.9836                 2.9445
 Frc consts  --      0.9560                 1.1960                 1.2604
 IR Inten    --      1.8639                 2.7439                10.6367

                     16                     17                     18
                      A                      A                      A
 Frequencies --    883.1950               918.8495               935.0844
 Red. masses --      1.5327                 1.9419                 1.5843
 Frc consts  --      0.7044                 0.9660                 0.8162
 IR Inten    --      7.1810                 0.6907                 2.4296

                     19                     20                     21
                      A                      A                      A
 Frequencies --    979.2749              1012.5198              1042.7475
 Red. masses --      1.9291                 1.4843                 1.8480
 Frc consts  --      1.0900                 0.8966                 1.1839
 IR Inten    --      4.7995                 0.8974                16.6620

                     22                     23                     24
                      A                      A                      A
 Frequencies --   1064.1636              1081.1004              1097.2759
 Red. masses --      2.8999                 1.8163                 2.1206
 Frc consts  --      1.9349                 1.2508                 1.5043
 IR Inten    --     89.7702                 7.2724                19.0848

                     25                     26                     27
                      A                      A                      A
 Frequencies --   1135.9638              1161.5224              1179.4819
 Red. masses --      1.7779                 2.9828                 1.4565
 Frc consts  --      1.3517                 2.3710                 1.1939
 IR Inten    --      2.0062               143.2622                21.8121

                     28                     29                     30
                      A                      A                      A
 Frequencies --   1192.2729              1228.8444              1259.5854
 Red. masses --      1.5544                 1.2461                 1.5570
 Frc consts  --      1.3019                 1.1087                 1.4554
 IR Inten    --      1.0510                16.0180                 2.2154

                     31                     32                     33
                      A                      A                      A
 Frequencies --   1276.2389              1335.7429              1396.3733
 Red. masses --      2.2204                 1.8077                 1.4164
 Frc consts  --      2.1308                 1.9003                 1.6272
 IR Inten    --      7.8957                13.2290                14.9354

                     34                     35                     36
                      A                      A                      A
 Frequencies --   1415.0706              1434.8989              1464.7172
 Red. masses --      1.2952                 1.6515                 1.1186
 Frc consts  --      1.5281                 2.0034                 1.4139
 IR Inten    --      2.9379                 2.4348                10.9343

                     37                     38                     39
                      A                      A                      A
 Frequencies --   1491.2742              1493.4006              1507.2930
 Red. masses --      1.2237                 1.0974                 1.2510
 Frc consts  --      1.6034                 1.4419                 1.6745
 IR Inten    --      5.5849                 2.7226                 1.9785

                     40                     41                     42
                      A                      A                      A
 Frequencies --   1521.4831              1886.3867              3018.7514
 Red. masses --      1.1064                12.8158                 1.0661
 Frc consts  --      1.5091                26.8694                 5.7241
 IR Inten    --      0.9034               415.6735                44.7204

                     43                     44                     45
                      A                      A                      A
 Frequencies --   3031.5300              3036.8853              3092.0874
 Red. masses --      1.0375                 1.0672                 1.0996
 Frc consts  --      5.6177                 5.7992                 6.1942
 IR Inten    --     23.2102                15.4965                15.3163

                     46                     47                     48
                      A                      A                      A
 Frequencies --   3093.2380              3100.8857              3119.6101
 Red. masses --      1.1008                 1.0965                 1.0582
 Frc consts  --      6.2057                 6.2122                 6.0676
 IR Inten    --     25.8219                 7.1866                13.3958

                     49                     50                     51
                      A                      A                      A
 Frequencies --   3121.4926              3123.4986              3205.9426
 Red. masses --      1.0880                 1.0927                 1.1166
 Frc consts  --      6.2461                 6.2810                 6.7616
 IR Inten    --     10.0222                25.5435                10.0377

 - Thermochemistry -
 -------------------
 Temperature   298.150 Kelvin.  Pressure   1.00000 Atm.
 Atom     1 has atomic number  6 and mass  12.00000

 Molecular mass:   126.06808 amu.
 Principal axes and moments of inertia in atomic units:
                           1         2         3
     Eigenvalues --   510.540431646.287631877.05806
           X            0.99981  -0.01955  -0.00192
           Y            0.01958   0.99971   0.01382
           Z            0.00165  -0.01386   0.99990
 This molecule is an asymmetric top.
 Rotational symmetry number  1.
 Warning -- assumption of classical behavior for rotation
           may cause significant error
 Rotational temperatures (Kelvin)      0.16965     0.05261     0.04614
 Rotational constants (GHZ):           3.53496     1.09625     0.96147
 Zero-point vibrational energy     418885.8 (Joules/Mol)
                                  100.11611 (Kcal/Mol)
 Warning -- explicit consideration of  11 degrees of freedom as
           vibrations may cause significant error
 Vibrational temperatures:     98.73   212.82   229.02   290.24   334.95
          (Kelvin)            490.95   560.43   615.84   685.36   799.49
                              815.71   995.53  1088.32  1186.76  1226.35
                             1270.72  1322.02  1345.38  1408.96  1456.79
                             1500.28  1531.09  1555.46  1578.73  1634.40
                             1671.17  1697.01  1715.41  1768.03  1812.26
                             1836.22  1921.83  2009.07  2035.97  2064.50
                             2107.40  2145.61  2148.67  2168.66  2189.07
                             2714.09  4343.30  4361.69  4369.40  4448.82
                             4450.47  4461.48  4488.42  4491.13  4494.01
                             4612.63

 Zero-point correction=                           0.159545 (Hartree/Particle)
 Thermal correction to Energy=                    0.167959
 Thermal correction to Enthalpy=                  0.168903
 Thermal correction to Gibbs Free Energy=         0.126268
 Sum of electronic and zero-point Energies=           -423.065492
 Sum of electronic and thermal Energies=              -423.057078
 Sum of electronic and thermal Enthalpies=            -423.056134
 Sum of electronic and thermal Free Energies=         -423.098769

                     E (Thermal)             CV                S
                      KCal/Mol        Cal/Mol-Kelvin    Cal/Mol-Kelvin
 Total                  105.396             31.833             89.733
 Electronic               0.000              0.000              0.000
 Translational            0.889              2.981             40.409
 Rotational               0.889              2.981             28.847
 Vibrational            103.618             25.871             20.478
 Vibration     1          0.598              1.969              4.193
 Vibration     2          0.617              1.905              2.699
 Vibration     3          0.621              1.892              2.560
 Vibration     4          0.639              1.837              2.117
 Vibration     5          0.654              1.791              1.857
 Vibration     6          0.721              1.593              1.206
 Vibration     7          0.757              1.493              1.002
 Vibration     8          0.790              1.409              0.865
 Vibration     9          0.833              1.303              0.720
 Vibration    10          0.911              1.127              0.533
 Vibration    11          0.923              1.103              0.510

 Optimization completed.
    -- Stationary point found.
 Normal termination of Gaussian 09 at Tue Jan 28 02:44:29 2020.
