 Gaussian 09, Revision D.01,
 Gaussian 09:  ES64L-G09RevD.01 24-Apr-2013

 -----------------------------
 # b3lyp 6-31G(2df,p) opt Freq
 -----------------------------

 -----
 titel
 -----
 Symbolic Z-matrix:
 Charge =  0 Multiplicity = 1

 SCF Done:  E(RB3LYP) =  -423.135046603     A.U. after   14 cycles
 Optimization completed.
    -- Stationary point found.
 Normal termination of Gaussian 09 at Mon Jan 27 22:01:06 2020.

 ----------------------------------------------------------------------
 #N Geom=AllCheck Guess=TCheck SCRF=Check GenChk RB3LYP/6-31G(2df,p) Fr
 eq
 ----------------------------------------------------------------------

 Structure from the checkpoint file:  "/scratch/puck/g09_458c4302-63e9-4278-973c-19a47bccf4f4/Gau-98604.chk"
 -----
 titel
 -----
 Charge =  0 Multiplicity = 1

                         Standard orientation:
 ---------------------------------------------------------------------
 Center     Atomic      Atomic             Coordinates (Angstroms)
 Number     Number       Type             X           Y           Z
 ---------------------------------------------------------------------
      1          6           0       -0.301384    2.158081    0.023017
      2          6           0       -0.239630    0.785602   -0.616702
      3          6           0       -1.188916   -0.344615   -0.099624
      4          6           0       -2.679763   -0.365216    0.016832
      5          6           0       -0.224217   -1.401809   -0.697571
      6          6           0        0.599513   -0.330743    0.072168
      7          8           0       -0.390326   -0.402487    1.165961
      8          6           0        2.047537   -0.364030    0.434426
      9          8           0        2.927768   -0.036191   -0.320331
     10          1           0       -0.418944    2.070947    1.105329
     11          1           0        0.611259    2.725099   -0.186657
     12          1           0       -1.144153    2.733212   -0.375327
     13          1           0       -0.128959    0.828704   -1.704181
     14          1           0       -3.011489   -1.267483    0.539073
     15          1           0       -3.034887    0.507822    0.572644
     16          1           0       -3.136287   -0.351548   -0.977883
     17          1           0       -0.256600   -2.379895   -0.216491
     18          1           0       -0.108296   -1.451334   -1.782321
     19          1           0        2.249983   -0.729722    1.465490
 ---------------------------------------------------------------------

 SCF Done:  E(RB3LYP) =  -423.135046603     A.U. after    1 cycles

 The electronic state is 1-A.
 Alpha  occ. eigenvalues --  -19.14767 -19.13773 -10.27709 -10.26063 -10.25686
 Alpha  occ. eigenvalues --  -10.20574 -10.20359 -10.19196 -10.17811  -1.06513
 Alpha  occ. eigenvalues --   -1.05080  -0.80832  -0.75590  -0.74137  -0.68660
 Alpha  occ. eigenvalues --   -0.63924  -0.55559  -0.53314  -0.49746  -0.47465
 Alpha  occ. eigenvalues --   -0.45661  -0.44999  -0.44050  -0.43226  -0.40507
 Alpha  occ. eigenvalues --   -0.39933  -0.37890  -0.37421  -0.34836  -0.34179
 Alpha  occ. eigenvalues --   -0.32661  -0.31251  -0.25507  -0.24703
 Alpha virt. eigenvalues --   -0.03895   0.08866   0.09242   0.11197   0.12119
 Alpha virt. eigenvalues --    0.12450   0.13393   0.14541   0.15604   0.16012
 Alpha virt. eigenvalues --    0.16522   0.17450   0.17907   0.18638   0.19440

 Mulliken charges:
               1
     1  C   -0.440613
     2  C   -0.036035
     3  C    0.387165
     4  C   -0.513829
     5  C   -0.294187
     6  C    0.306677
     7  O   -0.375116
     8  C    0.034820
     9  O   -0.252365
    10  H    0.135949
    11  H    0.129284
    12  H    0.116832
    13  H    0.080300
    14  H    0.137427
    15  H    0.138048
    16  H    0.130142
    17  H    0.111643
    18  H    0.107955
    19  H    0.095904
 Sum of Mulliken charges =   0.00000

 Dipole moment (field-independent basis, Debye):
    X=             -2.5692    Y=             -0.3101    Z=             -0.7459  Tot=              2.6932
 Quadrupole moment (field-independent basis, Debye-Ang):
   XX=            -58.3934   YY=            -51.0272   ZZ=            -54.3310
   XY=             -0.8511   XZ=              4.1648   YZ=              0.5205

  Exact polarizability:  89.152   1.032  75.037   0.460  -1.122  67.648
 Approx polarizability: 123.154   3.855 104.308  -4.288  -4.261 112.619

                      1                      2                      3
                      A                      A                      A
 Frequencies --     49.4925               142.1341               176.0393
 Red. masses --      3.8824                 4.1065                 1.8402
 Frc consts  --      0.0056                 0.0489                 0.0336
 IR Inten    --      8.6928                 4.2674                 1.8564

                      4                      5                      6
                      A                      A                      A
 Frequencies --    183.2397               199.3214               220.0767
 Red. masses --      1.1917                 2.3695                 1.0785
 Frc consts  --      0.0236                 0.0555                 0.0308
 IR Inten    --      0.1995                 0.7230                 0.0876

                      7                      8                      9
                      A                      A                      A
 Frequencies --    289.0022               330.3452               409.1534
 Red. masses --      3.1498                 2.9360                 2.5055
 Frc consts  --      0.1550                 0.1888                 0.2471
 IR Inten    --      4.2850                 7.7333                 0.3439

                     10                     11                     12
                      A                      A                      A
 Frequencies --    458.1590               522.8555               636.4200
 Red. masses --      6.5723                 2.3732                 4.0802
 Frc consts  --      0.8128                 0.3823                 0.9737
 IR Inten    --      2.7141                 3.2942                 6.4935

                     13                     14                     15
                      A                      A                      A
 Frequencies --    659.8495               692.4253               734.1239
 Red. masses --      3.6016                 3.3737                 3.9169
 Frc consts  --      0.9239                 0.9530                 1.2437
 IR Inten    --      7.4518                 5.3443                48.6987

                     16                     17                     18
                      A                      A                      A
 Frequencies --    756.7116               811.6336               901.7731
 Red. masses --      2.9158                 2.5403                 2.4351
 Frc consts  --      0.9837                 0.9860                 1.1667
 IR Inten    --      3.4985                10.2102                 4.2637

                     19                     20                     21
                      A                      A                      A
 Frequencies --    952.6839              1009.2862              1015.0669
 Red. masses --      2.2677                 1.1907                 1.7315
 Frc consts  --      1.2126                 0.7146                 1.0511
 IR Inten    --     12.9176                 1.7041                 4.7327

                     22                     23                     24
                      A                      A                      A
 Frequencies --   1059.6897              1066.5220              1103.4928
 Red. masses --      1.6601                 1.7830                 1.7811
 Frc consts  --      1.0984                 1.1949                 1.2778
 IR Inten    --     19.5939                 5.4750                 1.9221

                     25                     26                     27
                      A                      A                      A
 Frequencies --   1126.8652              1147.5377              1158.9546
 Red. masses --      2.6654                 1.7748                 1.9754
 Frc consts  --      1.9941                 1.3770                 1.5633
 IR Inten    --     11.7846                 6.7930                 0.6781

                     28                     29                     30
                      A                      A                      A
 Frequencies --   1178.7713              1198.5279              1242.9243
 Red. masses --      1.6071                 2.4034                 2.9249
 Frc consts  --      1.3157                 2.0341                 2.6623
 IR Inten    --      2.0818                 6.8924                 5.9168

                     31                     32                     33
                      A                      A                      A
 Frequencies --   1347.9423              1392.9956              1402.2669
 Red. masses --      1.9078                 1.2835                 1.3139
 Frc consts  --      2.0424                 1.4674                 1.5222
 IR Inten    --     17.9853                 1.7245                11.9702

                     34                     35                     36
                      A                      A                      A
 Frequencies --   1407.4782              1422.7598              1476.0498
 Red. masses --      1.3755                 1.7327                 1.0486
 Frc consts  --      1.6054                 2.0665                 1.3461
 IR Inten    --      6.6486                23.8179                 3.4341

                     37                     38                     39
                      A                      A                      A
 Frequencies --   1485.8628              1489.8179              1505.0439
 Red. masses --      1.0639                 1.1073                 1.1114
 Frc consts  --      1.3840                 1.4481                 1.4832
 IR Inten    --      8.5321                 2.4031                11.8501

                     40                     41                     42
                      A                      A                      A
 Frequencies --   1505.1724              1821.0051              2891.8572
 Red. masses --      1.1995                10.7592                 1.0836
 Frc consts  --      1.6011                21.0209                 5.3393
 IR Inten    --      6.0541               155.5102                94.3081

                     43                     44                     45
                      A                      A                      A
 Frequencies --   3038.8017              3040.5410              3065.6366
 Red. masses --      1.0370                 1.0349                 1.0721
 Frc consts  --      5.6422                 5.6370                 5.9363
 IR Inten    --     20.3059                14.7060                11.6459

                     46                     47                     48
                      A                      A                      A
 Frequencies --   3075.7102              3098.5779              3114.7172
 Red. masses --      1.0672                 1.1004                 1.1010
 Frc consts  --      5.9480                 6.2247                 6.2930
 IR Inten    --     38.4578                17.2220                10.2089

                     49                     50                     51
                      A                      A                      A
 Frequencies --   3116.9032              3132.7436              3155.5479
 Red. masses --      1.1018                 1.1000                 1.1119
 Frc consts  --      6.3067                 6.3607                 6.5232
 IR Inten    --     10.7871                10.6395                21.4550

 - Thermochemistry -
 -------------------
 Temperature   298.150 Kelvin.  Pressure   1.00000 Atm.
 Atom     1 has atomic number  6 and mass  12.00000

 Molecular mass:   126.06808 amu.
 Principal axes and moments of inertia in atomic units:
                           1         2         3
     Eigenvalues --   618.792671364.441821643.97807
           X            0.99993  -0.00078   0.01181
           Y            0.00059   0.99987   0.01635
           Z           -0.01182  -0.01634   0.99980
 This molecule is an asymmetric top.
 Rotational symmetry number  1.
 Warning -- assumption of classical behavior for rotation
           may cause significant error
 Rotational temperatures (Kelvin)      0.13997     0.06348     0.05269
 Rotational constants (GHZ):           2.91655     1.32270     1.09779
 Zero-point vibrational energy     409245.5 (Joules/Mol)
                                   97.81203 (Kcal/Mol)
 Warning -- explicit consideration of  11 degrees of freedom as
           vibrations may cause significant error
 Vibrational temperatures:     71.21   204.50   253.28   263.64   286.78
          (Kelvin)            316.64   415.81   475.29   588.68   659.19
                              752.27   915.67   949.38   996.24  1056.24
                             1088.74  1167.76  1297.45  1370.70  1452.14
                             1460.45  1524.66  1534.49  1587.68  1621.31
                             1651.05  1667.48  1695.99  1724.41  1788.29
                             1939.39  2004.21  2017.55  2025.04  2047.03
                             2123.70  2137.82  2143.51  2165.42  2165.60
                             2620.02  4160.73  4372.15  4374.65  4410.76
                             4425.26  4458.16  4481.38  4484.52  4507.31
                             4540.12

 Zero-point correction=                           0.155873 (Hartree/Particle)
 Thermal correction to Energy=                    0.165141
 Thermal correction to Enthalpy=                  0.166085
 Thermal correction to Gibbs Free Energy=         0.121712
 Sum of electronic and zero-point Energies=           -422.979173
 Sum of electronic and thermal Energies=              -422.969906
 Sum of electronic and thermal Enthalpies=            -422.968962
 Sum of electronic and thermal Free Energies=         -423.013335

                     E (Thermal)             CV                S
                      KCal/Mol        Cal/Mol-Kelvin    Cal/Mol-Kelvin
 Total                  103.627             34.215             93.392
 Electronic               0.000              0.000              0.000
 Translational            0.889              2.981             40.409
 Rotational               0.889              2.981             28.719
 Vibrational            101.850             28.253             24.264
 Vibration     1          0.595              1.978              4.838
 Vibration     2          0.616              1.911              2.775
 Vibration     3          0.628              1.872              2.370
 Vibration     4          0.631              1.863              2.295
 Vibration     5          0.637              1.841              2.139
 Vibration     6          0.647              1.811              1.958
 Vibration     7          0.686              1.694              1.480
 Vibration     8          0.713              1.615              1.258
 Vibration     9          0.774              1.450              0.930
 Vibration    10          0.816              1.343              0.771
 Vibration    11          0.878              1.199              0.603

 Optimization completed.
    -- Stationary point found.
 Normal termination of Gaussian 09 at Mon Jan 27 22:44:34 2020.
