 Gaussian 09, Revision D.01,
 Gaussian 09:  ES64L-G09RevD.01 24-Apr-2013

 -----------------------------
 # b3lyp 6-31G(2df,p) opt Freq
 -----------------------------

 -----
 titel
 -----
 Symbolic Z-matrix:
 Charge =  0 Multiplicity = 1

 SCF Done:  E(RB3LYP) =  -423.173394051     A.U. after   14 cycles
 Optimization completed.
    -- Stationary point found.
 Normal termination of Gaussian 09 at Mon Jan 27 22:03:39 2020.

 ----------------------------------------------------------------------
 #N Geom=AllCheck Guess=TCheck SCRF=Check GenChk RB3LYP/6-31G(2df,p) Fr
 eq
 ----------------------------------------------------------------------

 Structure from the checkpoint file:  "/scratch/puck/g09_36dab433-8068-40b3-ad35-0368962be24e/Gau-72866.chk"
 -----
 titel
 -----
 Charge =  0 Multiplicity = 1

                         Standard orientation:
 ---------------------------------------------------------------------
 Center     Atomic      Atomic             Coordinates (Angstroms)
 Number     Number       Type             X           Y           Z
 ---------------------------------------------------------------------
      1          6           0       -2.037522   -1.526829    0.574373
      2          6           0       -1.242992   -0.240982    0.616451
      3          6           0       -1.112462    0.639036   -0.604559
      4          6           0       -1.100964    2.148794   -0.502307
      5          6           0        0.069671   -0.167534   -0.130490
      6          8           0        0.632241   -1.270219   -0.855310
      7          6           0        1.977511   -0.946083   -0.427147
      8          6           0        1.417751    0.257389    0.353461
      9          8           0        1.858428    1.133501    1.038842
     10          1           0       -1.717806   -2.212135    1.365848
     11          1           0       -3.105849   -1.328555    0.710245
     12          1           0       -1.900974   -2.040120   -0.381040
     13          1           0       -1.236829    0.279535    1.572415
     14          1           0       -1.562921    0.226812   -1.505649
     15          1           0       -0.536277    2.477746    0.374632
     16          1           0       -0.636971    2.601421   -1.384605
     17          1           0       -2.120882    2.539781   -0.419197
     18          1           0        2.428535   -1.734831    0.185698
     19          1           0        2.638664   -0.698662   -1.265294
 ---------------------------------------------------------------------

 SCF Done:  E(RB3LYP) =  -423.173394051     A.U. after    1 cycles

 The electronic state is 1-A.
 Alpha  occ. eigenvalues --  -19.15173 -19.14623 -10.27799 -10.24481 -10.24230
 Alpha  occ. eigenvalues --  -10.20473 -10.20447 -10.18512 -10.18357  -1.06778
 Alpha  occ. eigenvalues --   -1.04263  -0.87273  -0.73763  -0.71639  -0.70094
 Alpha  occ. eigenvalues --   -0.64165  -0.57790  -0.51138  -0.49883  -0.48145
 Alpha  occ. eigenvalues --   -0.46788  -0.44326  -0.43427  -0.41764  -0.41194
 Alpha  occ. eigenvalues --   -0.39584  -0.38577  -0.37833  -0.36058  -0.34465
 Alpha  occ. eigenvalues --   -0.33718  -0.30316  -0.24914  -0.24166
 Alpha virt. eigenvalues --   -0.02780   0.06500   0.10630   0.11366   0.11892
 Alpha virt. eigenvalues --    0.12786   0.14241   0.14904   0.17082   0.17135
 Alpha virt. eigenvalues --    0.17387   0.17827   0.18249   0.20810   0.22096

 Mulliken charges:
               1
     1  C   -0.408850
     2  C   -0.098828
     3  C   -0.093778
     4  C   -0.423511
     5  C    0.309109
     6  O   -0.318336
     7  C   -0.190400
     8  C    0.279337
     9  O   -0.303206
    10  H    0.124778
    11  H    0.122290
    12  H    0.136112
    13  H    0.103573
    14  H    0.103552
    15  H    0.143809
    16  H    0.124105
    17  H    0.120760
    18  H    0.134666
    19  H    0.134816
 Sum of Mulliken charges =   0.00000

 Dipole moment (field-independent basis, Debye):
    X=             -1.1316    Y=             -0.6749    Z=             -0.5661  Tot=              1.4341
 Quadrupole moment (field-independent basis, Debye-Ang):
   XX=            -51.2800   YY=            -55.3170   ZZ=            -54.0983
   XY=             -4.1603   XZ=             -3.0495   YZ=             -3.9384

  Exact polarizability:  90.911  -1.920  78.874  -0.959  -0.286  65.551
 Approx polarizability: 124.020   1.325 111.122   3.173   6.747 103.728

                      1                      2                      3
                      A                      A                      A
 Frequencies --    103.9643               110.6539               154.9294
 Red. masses --      4.7168                 2.9016                 2.2900
 Frc consts  --      0.0300                 0.0209                 0.0324
 IR Inten    --      0.2968                 4.2468                 1.6898

                      4                      5                      6
                      A                      A                      A
 Frequencies --    182.6410               197.4237               208.9026
 Red. masses --      1.2416                 1.9136                 1.3290
 Frc consts  --      0.0244                 0.0439                 0.0342
 IR Inten    --      0.9099                 0.8175                 1.8678

                      7                      8                      9
                      A                      A                      A
 Frequencies --    256.3699               305.2713               389.1868
 Red. masses --      2.8105                 3.1880                 3.7764
 Frc consts  --      0.1088                 0.1750                 0.3370
 IR Inten    --      1.7586                 1.9764                 3.5204

                     10                     11                     12
                      A                      A                      A
 Frequencies --    453.5015               528.4851               567.7008
 Red. masses --      3.5980                 2.8774                 2.7727
 Frc consts  --      0.4360                 0.4735                 0.5265
 IR Inten    --      3.7053                 4.6948                 2.7974

                     13                     14                     15
                      A                      A                      A
 Frequencies --    627.7618               745.9930               771.9334
 Red. masses --      3.8692                 7.7836                 3.1819
 Frc consts  --      0.8984                 2.5521                 1.1171
 IR Inten    --      0.5051                 8.2072                 6.3355

                     16                     17                     18
                      A                      A                      A
 Frequencies --    824.3016               900.1205               983.4759
 Red. masses --      2.2213                 1.8951                 1.6172
 Frc consts  --      0.8893                 0.9047                 0.9216
 IR Inten    --      8.7402                 7.9903                26.3685

                     19                     20                     21
                      A                      A                      A
 Frequencies --    984.0708               998.7258              1013.7159
 Red. masses --      1.5846                 5.7848                 1.5852
 Frc consts  --      0.9041                 3.3996                 0.9598
 IR Inten    --     21.9484                70.8425                 1.3468

                     22                     23                     24
                      A                      A                      A
 Frequencies --   1040.8558              1082.8221              1099.6790
 Red. masses --      2.3431                 2.6824                 2.3783
 Frc consts  --      1.4956                 1.8530                 1.6945
 IR Inten    --     52.2949                12.0245                31.1780

                     25                     26                     27
                      A                      A                      A
 Frequencies --   1125.8902              1132.5942              1137.5141
 Red. masses --      1.9516                 1.7167                 1.1958
 Frc consts  --      1.4576                 1.2974                 0.9116
 IR Inten    --     27.1003                 4.6575                 2.3364

                     28                     29                     30
                      A                      A                      A
 Frequencies --   1181.0218              1204.4934              1285.5869
 Red. masses --      1.8700                 2.3565                 1.5614
 Frc consts  --      1.5368                 2.0143                 1.5204
 IR Inten    --      0.6541                65.4513                 3.5573

                     31                     32                     33
                      A                      A                      A
 Frequencies --   1297.8512              1334.0226              1419.1751
 Red. masses --      1.6850                 1.4130                 1.2297
 Frc consts  --      1.6722                 1.4815                 1.4592
 IR Inten    --      8.7527                 7.2947                 4.2500

                     34                     35                     36
                      A                      A                      A
 Frequencies --   1419.5310              1450.1094              1482.0902
 Red. masses --      1.2283                 2.1520                 1.1877
 Frc consts  --      1.4583                 2.6662                 1.5371
 IR Inten    --      0.4428                 8.4960                 6.6244

                     37                     38                     39
                      A                      A                      A
 Frequencies --   1490.0633              1494.6006              1500.6112
 Red. masses --      1.0463                 1.0508                 1.0412
 Frc consts  --      1.3687                 1.3830                 1.3814
 IR Inten    --      4.2700                 6.2471                 8.4071

                     40                     41                     42
                      A                      A                      A
 Frequencies --   1506.9230              1902.5332              3032.6176
 Red. masses --      1.1997                12.7770                 1.0535
 Frc consts  --      1.6051                27.2487                 5.7083
 IR Inten    --      1.6832               275.5221                37.4435

                     43                     44                     45
                      A                      A                      A
 Frequencies --   3033.8467              3037.7370              3086.1219
 Red. masses --      1.0371                 1.0359                 1.1092
 Frc consts  --      5.6241                 5.6321                 6.2240
 IR Inten    --     26.1862                26.2330                15.3759

                     46                     47                     48
                      A                      A                      A
 Frequencies --   3096.7936              3099.6434              3112.2554
 Red. masses --      1.1013                 1.1015                 1.0984
 Frc consts  --      6.2230                 6.2355                 6.2687
 IR Inten    --     20.4422                20.4961                 7.7402

                     49                     50                     51
                      A                      A                      A
 Frequencies --   3116.0221              3129.4599              3140.2380
 Red. masses --      1.0957                 1.0924                 1.0881
 Frc consts  --      6.2683                 6.3033                 6.3221
 IR Inten    --      2.7583                 4.8628                23.8210

 - Thermochemistry -
 -------------------
 Temperature   298.150 Kelvin.  Pressure   1.00000 Atm.
 Atom     1 has atomic number  6 and mass  12.00000

 Molecular mass:   126.06808 amu.
 Principal axes and moments of inertia in atomic units:
                           1         2         3
     Eigenvalues --   860.752411172.676921607.88822
           X            0.99895  -0.04043  -0.02141
           Y            0.03931   0.99796  -0.05034
           Z            0.02340   0.04945   0.99850
 This molecule is an asymmetric top.
 Rotational symmetry number  1.
 Warning -- assumption of classical behavior for rotation
           may cause significant error
 Rotational temperatures (Kelvin)      0.10063     0.07386     0.05387
 Rotational constants (GHZ):           2.09670     1.53899     1.12243
 Zero-point vibrational energy     411406.7 (Joules/Mol)
                                   98.32857 (Kcal/Mol)
 Warning -- explicit consideration of  12 degrees of freedom as
           vibrations may cause significant error
 Vibrational temperatures:    149.58   159.21   222.91   262.78   284.05
          (Kelvin)            300.56   368.86   439.22   559.95   652.49
                              760.37   816.79   903.21  1073.32  1110.64
                             1185.98  1295.07  1415.00  1415.86  1436.94
                             1458.51  1497.56  1557.94  1582.19  1619.90
                             1629.55  1636.63  1699.22  1733.00  1849.67
                             1867.32  1919.36  2041.87  2042.39  2086.38
                             2132.39  2143.87  2150.39  2159.04  2168.12
                             2737.32  4363.25  4365.02  4370.62  4440.24
                             4455.59  4459.69  4477.84  4483.26  4502.59
                             4518.10

 Zero-point correction=                           0.156697 (Hartree/Particle)
 Thermal correction to Energy=                    0.166026
 Thermal correction to Enthalpy=                  0.166970
 Thermal correction to Gibbs Free Energy=         0.122662
 Sum of electronic and zero-point Energies=           -423.016698
 Sum of electronic and thermal Energies=              -423.007368
 Sum of electronic and thermal Enthalpies=            -423.006424
 Sum of electronic and thermal Free Energies=         -423.050732

                     E (Thermal)             CV                S
                      KCal/Mol        Cal/Mol-Kelvin    Cal/Mol-Kelvin
 Total                  104.183             34.103             93.254
 Electronic               0.000              0.000              0.000
 Translational            0.889              2.981             40.409
 Rotational               0.889              2.981             28.875
 Vibrational            102.406             28.141             23.971
 Vibration     1          0.605              1.946              3.379
 Vibration     2          0.606              1.941              3.257
 Vibration     3          0.620              1.897              2.611
 Vibration     4          0.630              1.863              2.301
 Vibration     5          0.637              1.843              2.157
 Vibration     6          0.642              1.827              2.053
 Vibration     7          0.666              1.752              1.686
 Vibration     8          0.696              1.664              1.388
 Vibration     9          0.757              1.493              1.003
 Vibration    10          0.812              1.353              0.785
 Vibration    11          0.883              1.187              0.591
 Vibration    12          0.924              1.101              0.509

 Optimization completed.
    -- Stationary point found.
 Normal termination of Gaussian 09 at Mon Jan 27 22:46:23 2020.
