 Gaussian 09, Revision D.01,
 Gaussian 09:  ES64L-G09RevD.01 24-Apr-2013

 -----------------------------
 # b3lyp 6-31G(2df,p) opt Freq
 -----------------------------

 -----
 titel
 -----
 Symbolic Z-matrix:
 Charge =  0 Multiplicity = 1

 SCF Done:  E(RB3LYP) =  -423.177312450     A.U. after   13 cycles
 Optimization completed.
    -- Stationary point found.
 Normal termination of Gaussian 09 at Tue Jan 28 12:09:17 2020.

 ----------------------------------------------------------------------
 #N Geom=AllCheck Guess=TCheck SCRF=Check GenChk RB3LYP/6-31G(2df,p) Fr
 eq
 ----------------------------------------------------------------------

 Structure from the checkpoint file:  "/scratch/puck/g09_4229bea2-1746-4513-9357-42c34c9ae7cf/Gau-19191.chk"
 -----
 titel
 -----
 Charge =  0 Multiplicity = 1

                         Standard orientation:
 ---------------------------------------------------------------------
 Center     Atomic      Atomic             Coordinates (Angstroms)
 Number     Number       Type             X           Y           Z
 ---------------------------------------------------------------------
      1          6           0       -2.646270   -0.277594    0.178120
      2          8           0       -1.685433    0.700170   -0.198051
      3          6           0       -0.375603    0.326821   -0.065833
      4          6           0        0.217224   -0.162358    1.277340
      5          6           0        1.610197   -0.356618    0.630430
      6          6           0        1.184319   -1.323347   -0.522367
      7          8           0       -0.088792   -0.828895   -0.933290
      8          6           0        1.807272    1.001037   -0.028218
      9          6           0        0.610118    1.412159   -0.455861
     10          1           0       -2.617144   -0.475177    1.258040
     11          1           0       -3.622896    0.137142   -0.077952
     12          1           0       -2.490157   -1.214305   -0.365035
     13          1           0        0.205285    0.606090    2.050839
     14          1           0       -0.236305   -1.088762    1.639522
     15          1           0        2.420102   -0.727503    1.257224
     16          1           0        1.886846   -1.307874   -1.363633
     17          1           0        1.085657   -2.355118   -0.159966
     18          1           0        2.768675    1.464639   -0.209306
     19          1           0        0.350194    2.270072   -1.060677
 ---------------------------------------------------------------------

 SCF Done:  E(RB3LYP) =  -423.177312450     A.U. after    1 cycles

 The electronic state is 1-A.
 Alpha  occ. eigenvalues --  -19.14897 -19.12879 -10.27804 -10.22540 -10.22200
 Alpha  occ. eigenvalues --  -10.19896 -10.18443 -10.18296 -10.17747  -1.06614
 Alpha  occ. eigenvalues --   -1.00631  -0.84062  -0.74421  -0.71322  -0.68221
 Alpha  occ. eigenvalues --   -0.60929  -0.57369  -0.53204  -0.52242  -0.49567
 Alpha  occ. eigenvalues --   -0.46024  -0.44620  -0.44103  -0.42825  -0.41069
 Alpha  occ. eigenvalues --   -0.37305  -0.37033  -0.35682  -0.34868  -0.32709
 Alpha  occ. eigenvalues --   -0.31233  -0.26849  -0.25226  -0.23836
 Alpha virt. eigenvalues --    0.00991   0.09847   0.10740   0.13059   0.13242
 Alpha virt. eigenvalues --    0.14536   0.15760   0.16091   0.16210   0.16846
 Alpha virt. eigenvalues --    0.17245   0.18790   0.19093   0.19767   0.22712

 Mulliken charges:
               1
     1  C   -0.264121
     2  O   -0.310963
     3  C    0.506880
     4  C   -0.291517
     5  C   -0.110353
     6  C   -0.070145
     7  O   -0.313550
     8  C   -0.093411
     9  C   -0.108926
    10  H    0.110307
    11  H    0.127767
    12  H    0.136418
    13  H    0.108079
    14  H    0.097797
    15  H    0.071296
    16  H    0.098433
    17  H    0.095582
    18  H    0.101278
    19  H    0.109149
 Sum of Mulliken charges =   0.00000

 Dipole moment (field-independent basis, Debye):
    X=              0.8779    Y=             -0.6118    Z=              1.4110  Tot=              1.7709
 Quadrupole moment (field-independent basis, Debye-Ang):
   XX=            -47.8276   YY=            -52.7231   ZZ=            -54.4682
   XY=              1.1063   XZ=             -1.3715   YZ=             -1.8496

  Exact polarizability:  89.270  -0.864  73.122   0.033  -3.350  62.972
 Approx polarizability: 126.968  -5.512 110.429   5.954  -4.736  96.828

                      1                      2                      3
                      A                      A                      A
 Frequencies --    102.7043               165.8564               208.3002
 Red. masses --      1.9857                 1.3144                 2.6762
 Frc consts  --      0.0123                 0.0213                 0.0684
 IR Inten    --      3.9017                 2.7200                 2.0997

                      4                      5                      6
                      A                      A                      A
 Frequencies --    305.6474               357.4542               399.2579
 Red. masses --      2.5476                 3.8850                 3.3771
 Frc consts  --      0.1402                 0.2925                 0.3172
 IR Inten    --      5.0574                 4.5954                 1.3191

                      7                      8                      9
                      A                      A                      A
 Frequencies --    449.5955               520.7532               523.0116
 Red. masses --      2.6329                 2.6685                 2.9360
 Frc consts  --      0.3136                 0.4264                 0.4732
 IR Inten    --      0.9087                 4.0063                 0.9484

                     10                     11                     12
                      A                      A                      A
 Frequencies --    634.1742               676.0325               732.3058
 Red. masses --      4.8631                 4.3351                 1.7889
 Frc consts  --      1.1523                 1.1673                 0.5652
 IR Inten    --      3.3644                 4.7760                 7.3685

                     13                     14                     15
                      A                      A                      A
 Frequencies --    787.8659               801.9256               859.5445
 Red. masses --      3.9612                 4.8727                 2.5273
 Frc consts  --      1.4487                 1.8462                 1.1001
 IR Inten    --     24.7438                25.4110                 4.3563

                     16                     17                     18
                      A                      A                      A
 Frequencies --    892.8499               924.9775               940.1999
 Red. masses --      3.2605                 1.8614                 1.7418
 Frc consts  --      1.5314                 0.9383                 0.9072
 IR Inten    --     71.6387                11.3230                 3.4586

                     19                     20                     21
                      A                      A                      A
 Frequencies --    951.2797              1002.6801              1030.1437
 Red. masses --      1.5599                 2.7989                 2.5609
 Frc consts  --      0.8317                 1.6579                 1.6012
 IR Inten    --      3.7989                31.2946                39.9030

                     22                     23                     24
                      A                      A                      A
 Frequencies --   1043.1682              1063.5999              1099.9255
 Red. masses --      2.2909                 1.6883                 1.7016
 Frc consts  --      1.4688                 1.1252                 1.2129
 IR Inten    --     17.6947                 9.3294                30.3682

                     25                     26                     27
                      A                      A                      A
 Frequencies --   1121.9998              1166.4153              1180.3526
 Red. masses --      1.6372                 1.5737                 1.3009
 Frc consts  --      1.2143                 1.2615                 1.0679
 IR Inten    --      9.0194                 6.8727                 1.6751

                     28                     29                     30
                      A                      A                      A
 Frequencies --   1184.9467              1211.1147              1235.8951
 Red. masses --      1.4756                 1.3386                 1.6313
 Frc consts  --      1.2207                 1.1568                 1.4681
 IR Inten    --      7.7816                 4.7903                 4.3107

                     31                     32                     33
                      A                      A                      A
 Frequencies --   1261.2259              1297.9200              1300.4592
 Red. masses --      1.5877                 1.6703                 2.4505
 Frc consts  --      1.4880                 1.6578                 2.4417
 IR Inten    --     15.0314                13.2542               104.6037

                     34                     35                     36
                      A                      A                      A
 Frequencies --   1358.9112              1373.2121              1476.7355
 Red. masses --      1.4725                 2.1073                 1.1836
 Frc consts  --      1.6021                 2.3413                 1.5208
 IR Inten    --     40.0188               126.4326                10.9827

                     37                     38                     39
                      A                      A                      A
 Frequencies --   1485.2651              1492.7043              1511.3180
 Red. masses --      1.0891                 1.1270                 1.0500
 Frc consts  --      1.4156                 1.4795                 1.4130
 IR Inten    --      7.9083                 7.6302                 6.7737

                     40                     41                     42
                      A                      A                      A
 Frequencies --   1521.6350              1642.8296              3009.3372
 Red. masses --      1.0944                 6.0745                 1.0582
 Frc consts  --      1.4930                 9.6593                 5.6465
 IR Inten    --      0.3117                 4.8247                70.6514

                     43                     44                     45
                      A                      A                      A
 Frequencies --   3012.5471              3055.8661              3068.2663
 Red. masses --      1.0407                 1.1066                 1.0599
 Frc consts  --      5.5649                 6.0884                 5.8788
 IR Inten    --     40.2827                33.8399                34.5300

                     46                     47                     48
                      A                      A                      A
 Frequencies --   3091.0130              3124.4384              3135.2965
 Red. masses --      1.0933                 1.0892                 1.1037
 Frc consts  --      6.1545                 6.2645                 6.3921
 IR Inten    --     31.7360                32.9177                20.0848

                     49                     50                     51
                      A                      A                      A
 Frequencies --   3139.8975              3205.9018              3236.0689
 Red. masses --      1.1062                 1.0878                 1.1061
 Frc consts  --      6.4258                 6.5873                 6.8249
 IR Inten    --     19.3961                 7.0650                 7.4310

 - Thermochemistry -
 -------------------
 Temperature   298.150 Kelvin.  Pressure   1.00000 Atm.
 Atom     1 has atomic number  6 and mass  12.00000

 Molecular mass:   126.06808 amu.
 Principal axes and moments of inertia in atomic units:
                           1         2         3
     Eigenvalues --   559.353941166.926211310.30084
           X            0.99984   0.01202  -0.01343
           Y           -0.01275   0.99835  -0.05603
           Z            0.01274   0.05619   0.99834
 This molecule is an asymmetric top.
 Rotational symmetry number  1.
 Warning -- assumption of classical behavior for rotation
           may cause significant error
 Rotational temperatures (Kelvin)      0.15485     0.07422     0.06610
 Rotational constants (GHZ):           3.22647     1.54658     1.37735
 Zero-point vibrational energy     420934.9 (Joules/Mol)
                                  100.60586 (Kcal/Mol)
 Warning -- explicit consideration of   9 degrees of freedom as
           vibrations may cause significant error
 Vibrational temperatures:    147.77   238.63   299.70   439.76   514.30
          (Kelvin)            574.44   646.87   749.25   752.50   912.43
                              972.66  1053.62  1133.56  1153.79  1236.69
                             1284.61  1330.83  1352.74  1368.68  1442.63
                             1482.15  1500.88  1530.28  1582.55  1614.31
                             1678.21  1698.26  1704.87  1742.52  1778.18
                             1814.62  1867.42  1871.07  1955.17  1975.74
                             2124.69  2136.96  2147.67  2174.45  2189.29
                             2363.66  4329.76  4334.38  4396.70  4414.55
                             4447.27  4495.36  4510.99  4517.61  4612.57
                             4655.98

 Zero-point correction=                           0.160326 (Hartree/Particle)
 Thermal correction to Energy=                    0.167935
 Thermal correction to Enthalpy=                  0.168879
 Thermal correction to Gibbs Free Energy=         0.128482
 Sum of electronic and zero-point Energies=           -423.016987
 Sum of electronic and thermal Energies=              -423.009377
 Sum of electronic and thermal Enthalpies=            -423.008433
 Sum of electronic and thermal Free Energies=         -423.048831

                     E (Thermal)             CV                S
                      KCal/Mol        Cal/Mol-Kelvin    Cal/Mol-Kelvin
 Total                  105.381             30.494             85.024
 Electronic               0.000              0.000              0.000
 Translational            0.889              2.981             40.409
 Rotational               0.889              2.981             28.238
 Vibrational            103.603             24.532             16.377
 Vibration     1          0.605              1.947              3.402
 Vibration     2          0.624              1.884              2.482
 Vibration     3          0.642              1.828              2.059
 Vibration     4          0.696              1.663              1.386
 Vibration     5          0.733              1.560              1.133
 Vibration     6          0.765              1.472              0.965
 Vibration     7          0.808              1.362              0.797
 Vibration     8          0.876              1.204              0.608
 Vibration     9          0.878              1.199              0.603

 Optimization completed.
    -- Stationary point found.
 Normal termination of Gaussian 09 at Tue Jan 28 12:57:35 2020.
