 Gaussian 09, Revision D.01,
 Gaussian 09:  ES64L-G09RevD.01 24-Apr-2013

 -----------------------------
 # b3lyp 6-31G(2df,p) opt Freq
 -----------------------------

 -----
 titel
 -----
 Symbolic Z-matrix:
 Charge =  0 Multiplicity = 1

 SCF Done:  E(RB3LYP) =  -423.171539959     A.U. after   13 cycles
 Optimization completed.
    -- Stationary point found.
 Normal termination of Gaussian 09 at Tue Jan 28 02:04:59 2020.

 ----------------------------------------------------------------------
 #N Geom=AllCheck Guess=TCheck SCRF=Check GenChk RB3LYP/6-31G(2df,p) Fr
 eq
 ----------------------------------------------------------------------

 Structure from the checkpoint file:  "/scratch/puck/g09_d245135c-3e03-4dfa-bf14-b5730c7ae98c/Gau-85802.chk"
 -----
 titel
 -----
 Charge =  0 Multiplicity = 1

                         Standard orientation:
 ---------------------------------------------------------------------
 Center     Atomic      Atomic             Coordinates (Angstroms)
 Number     Number       Type             X           Y           Z
 ---------------------------------------------------------------------
      1          6           0       -1.582257    1.918438   -0.251836
      2          6           0       -1.170780    0.491781   -0.087613
      3          6           0       -1.913914   -0.609017   -0.208401
      4          6           0       -1.081760   -1.833521    0.041033
      5          8           0        0.223810   -1.330900    0.357698
      6          6           0        0.216384    0.083560    0.244446
      7          6           0        1.201431    0.825546    1.121302
      8          6           0        1.487126    0.643084   -0.357488
      9          8           0        2.445670   -0.272230   -0.777836
     10          1           0       -1.002395    2.412231   -1.040965
     11          1           0       -2.640693    1.996729   -0.510451
     12          1           0       -1.413754    2.488715    0.669517
     13          1           0       -2.966179   -0.649648   -0.459879
     14          1           0       -1.445069   -2.440328    0.883739
     15          1           0       -1.022087   -2.495621   -0.836552
     16          1           0        0.936779    1.812410    1.488049
     17          1           0        1.777536    0.211950    1.805798
     18          1           0        1.430429    1.516279   -1.002509
     19          1           0        2.052206   -1.146901   -0.644300
 ---------------------------------------------------------------------

 SCF Done:  E(RB3LYP) =  -423.171539959     A.U. after    1 cycles

 The electronic state is 1-A.
 Alpha  occ. eigenvalues --  -19.15199 -19.12984 -10.24098 -10.23771 -10.22957
 Alpha  occ. eigenvalues --  -10.19915 -10.19382 -10.18407 -10.17902  -1.05354
 Alpha  occ. eigenvalues --   -1.01299  -0.84111  -0.80604  -0.72530  -0.67701
 Alpha  occ. eigenvalues --   -0.60323  -0.57992  -0.55699  -0.51129  -0.47988
 Alpha  occ. eigenvalues --   -0.46879  -0.45886  -0.42860  -0.42266  -0.40739
 Alpha  occ. eigenvalues --   -0.38905  -0.38154  -0.37531  -0.34845  -0.33561
 Alpha  occ. eigenvalues --   -0.32639  -0.27515  -0.24382  -0.21279
 Alpha virt. eigenvalues --    0.01582   0.07976   0.09024   0.11267   0.12657
 Alpha virt. eigenvalues --    0.13438   0.14154   0.15095   0.16311   0.16963
 Alpha virt. eigenvalues --    0.17284   0.18187   0.21988   0.22825   0.23420

 Mulliken charges:
               1
     1  C   -0.508779
     2  C    0.259986
     3  C   -0.223379
     4  C   -0.135536
     5  O   -0.328956
     6  C    0.328246
     7  C   -0.385167
     8  C    0.073426
     9  O   -0.434041
    10  H    0.135911
    11  H    0.131530
    12  H    0.135977
    13  H    0.101841
    14  H    0.112698
    15  H    0.109932
    16  H    0.110709
    17  H    0.126924
    18  H    0.095460
    19  H    0.293220
 Sum of Mulliken charges =   0.00000

 Dipole moment (field-independent basis, Debye):
    X=             -2.7494    Y=              0.4693    Z=              0.1389  Tot=              2.7926
 Quadrupole moment (field-independent basis, Debye-Ang):
   XX=            -56.6932   YY=            -48.4000   ZZ=            -54.2036
   XY=              0.4636   XZ=              2.5653   YZ=              0.7140

  Exact polarizability:  86.376   8.732  90.067   3.143   2.180  60.542
 Approx polarizability: 122.922  18.843 132.719   2.743   4.097  92.466

                      1                      2                      3
                      A                      A                      A
 Frequencies --     85.7899               152.4720               165.3855
 Red. masses --      3.2544                 4.2636                 1.0940
 Frc consts  --      0.0141                 0.0584                 0.0176
 IR Inten    --      0.4638                 1.6099                 0.5716

                      4                      5                      6
                      A                      A                      A
 Frequencies --    202.2923               243.8169               262.6821
 Red. masses --      3.4815                 2.0856                 3.7199
 Frc consts  --      0.0839                 0.0730                 0.1512
 IR Inten    --      3.2136                 1.5946                 3.4364

                      7                      8                      9
                      A                      A                      A
 Frequencies --    340.7199               423.1075               446.1561
 Red. masses --      2.3500                 1.2622                 2.0809
 Frc consts  --      0.1607                 0.1331                 0.2440
 IR Inten    --     13.7852                50.8215                 1.2861

                     10                     11                     12
                      A                      A                      A
 Frequencies --    502.2717               538.6342               606.3360
 Red. masses --      3.0344                 4.1824                 3.2784
 Frc consts  --      0.4510                 0.7149                 0.7101
 IR Inten    --      0.7697                 4.1261                 0.5856

                     13                     14                     15
                      A                      A                      A
 Frequencies --    671.5139               778.1132               784.6891
 Red. masses --      4.1034                 4.0763                 1.5228
 Frc consts  --      1.0902                 1.4541                 0.5525
 IR Inten    --      8.5796                 7.1346                 2.8286

                     16                     17                     18
                      A                      A                      A
 Frequencies --    824.4732               867.2662               903.4754
 Red. masses --      1.8597                 1.6585                 3.8215
 Frc consts  --      0.7448                 0.7350                 1.8379
 IR Inten    --     22.5744                 7.8978                40.3761

                     19                     20                     21
                      A                      A                      A
 Frequencies --    947.2926               991.2357              1016.2975
 Red. masses --      2.2363                 2.3251                 1.4168
 Frc consts  --      1.1824                 1.3460                 0.8622
 IR Inten    --      8.6210                13.2046                 3.8707

                     22                     23                     24
                      A                      A                      A
 Frequencies --   1036.1347              1043.5792              1067.3144
 Red. masses --      1.5065                 1.6568                 2.4134
 Frc consts  --      0.9529                 1.0631                 1.6198
 IR Inten    --      5.4795                 5.6259                36.9744

                     25                     26                     27
                      A                      A                      A
 Frequencies --   1070.0830              1098.9978              1135.5965
 Red. masses --      1.7082                 2.0224                 2.3815
 Frc consts  --      1.1524                 1.4392                 1.8094
 IR Inten    --     12.9740                22.4335                52.2194

                     28                     29                     30
                      A                      A                      A
 Frequencies --   1163.0166              1195.8872              1233.4294
 Red. masses --      2.6468                 1.0764                 2.1548
 Frc consts  --      2.1093                 0.9070                 1.9315
 IR Inten    --     79.5254                 0.7136                20.6701

                     31                     32                     33
                      A                      A                      A
 Frequencies --   1282.0335              1333.8534              1378.3077
 Red. masses --      1.8732                 1.8853                 1.4792
 Frc consts  --      1.8140                 1.9762                 1.6557
 IR Inten    --      9.7483                17.1688                17.6509

                     34                     35                     36
                      A                      A                      A
 Frequencies --   1391.9418              1416.2971              1420.1081
 Red. masses --      1.9508                 1.3287                 1.1643
 Frc consts  --      2.2269                 1.5703                 1.3834
 IR Inten    --     12.4814                 1.8899                52.0006

                     37                     38                     39
                      A                      A                      A
 Frequencies --   1470.9070              1480.1514              1490.4517
 Red. masses --      1.8627                 1.0447                 1.0715
 Frc consts  --      2.3745                 1.3485                 1.4024
 IR Inten    --     48.5684                 9.3374                 4.4117

                     40                     41                     42
                      A                      A                      A
 Frequencies --   1522.9626              1718.3103              2980.6428
 Red. masses --      1.0866                 7.3862                 1.0582
 Frc consts  --      1.4849                12.8492                 5.5390
 IR Inten    --      2.4732                 5.9226                95.6725

                     43                     44                     45
                      A                      A                      A
 Frequencies --   3001.7451              3025.9225              3074.5045
 Red. masses --      1.1043                 1.0383                 1.0987
 Frc consts  --      5.8623                 5.6011                 6.1188
 IR Inten    --     45.4006                19.8435                12.7884

                     46                     47                     48
                      A                      A                      A
 Frequencies --   3121.4644              3124.3939              3135.6933
 Red. masses --      1.0986                 1.0542                 1.0892
 Frc consts  --      6.3066                 6.0632                 6.3102
 IR Inten    --     15.5820                 7.9192                23.1085

                     49                     50                     51
                      A                      A                      A
 Frequencies --   3214.4392              3222.1607              3723.6765
 Red. masses --      1.0952                 1.1167                 1.0650
 Frc consts  --      6.6672                 6.8310                 8.7007
 IR Inten    --      5.6110                 5.2426                47.2729

 - Thermochemistry -
 -------------------
 Temperature   298.150 Kelvin.  Pressure   1.00000 Atm.
 Atom     1 has atomic number  6 and mass  12.00000

 Molecular mass:   126.06808 amu.
 Principal axes and moments of inertia in atomic units:
                           1         2         3
     Eigenvalues --   754.015521137.844241600.17333
           X            0.99975  -0.01353   0.01762
           Y            0.01344   0.99990   0.00496
           Z           -0.01768  -0.00472   0.99983
 This molecule is an asymmetric top.
 Rotational symmetry number  1.
 Warning -- assumption of classical behavior for rotation
           may cause significant error
 Rotational temperatures (Kelvin)      0.11487     0.07612     0.05413
 Rotational constants (GHZ):           2.39351     1.58611     1.12784
 Zero-point vibrational energy     414673.7 (Joules/Mol)
                                   99.10939 (Kcal/Mol)
 Warning -- explicit consideration of  12 degrees of freedom as
           vibrations may cause significant error
 Vibrational temperatures:    123.43   219.37   237.95   291.05   350.80
          (Kelvin)            377.94   490.22   608.76   641.92   722.66
                              774.97   872.38   966.16  1119.53  1128.99
                             1186.23  1247.80  1299.90  1362.94  1426.17
                             1462.22  1490.76  1501.48  1535.63  1539.61
                             1581.21  1633.87  1673.32  1720.61  1774.63
                             1844.56  1919.12  1983.07  2002.69  2037.73
                             2043.22  2116.30  2129.61  2144.42  2191.20
                             2472.26  4288.47  4318.84  4353.62  4423.52
                             4491.09  4495.30  4511.56  4624.86  4635.96
                             5357.53

 Zero-point correction=                           0.157941 (Hartree/Particle)
 Thermal correction to Energy=                    0.166703
 Thermal correction to Enthalpy=                  0.167647
 Thermal correction to Gibbs Free Energy=         0.124703
 Sum of electronic and zero-point Energies=           -423.013599
 Sum of electronic and thermal Energies=              -423.004837
 Sum of electronic and thermal Enthalpies=            -423.003893
 Sum of electronic and thermal Free Energies=         -423.046837

                     E (Thermal)             CV                S
                      KCal/Mol        Cal/Mol-Kelvin    Cal/Mol-Kelvin
 Total                  104.608             33.451             90.382
 Electronic               0.000              0.000              0.000
 Translational            0.889              2.981             40.409
 Rotational               0.889              2.981             28.708
 Vibrational            102.830             27.490             21.265
 Vibration     1          0.601              1.959              3.754
 Vibration     2          0.619              1.900              2.641
 Vibration     3          0.624              1.885              2.487
 Vibration     4          0.639              1.837              2.112
 Vibration     5          0.659              1.773              1.775
 Vibration     6          0.670              1.741              1.644
 Vibration     7          0.720              1.594              1.209
 Vibration     8          0.785              1.420              0.881
 Vibration     9          0.805              1.369              0.807
 Vibration    10          0.858              1.245              0.652
 Vibration    11          0.894              1.165              0.568
 Vibration    12          0.965              1.018              0.439

 Normal termination of Gaussian 09 at Tue Jan 28 02:47:11 2020.
