 Gaussian 09, Revision D.01,
 Gaussian 09:  ES64L-G09RevD.01 24-Apr-2013

 -----------------------------
 # b3lyp 6-31G(2df,p) opt Freq
 -----------------------------

 -----
 titel
 -----
 Symbolic Z-matrix:
 Charge =  0 Multiplicity = 1

 SCF Done:  E(RB3LYP) =  -423.176551295     A.U. after   14 cycles
 Optimization completed.
    -- Stationary point found.
 Normal termination of Gaussian 09 at Mon Jan 27 16:19:02 2020.

 ----------------------------------------------------------------------
 #N Geom=AllCheck Guess=TCheck SCRF=Check GenChk RB3LYP/6-31G(2df,p) Fr
 eq
 ----------------------------------------------------------------------

 Structure from the checkpoint file:  "/scratch/puck/g09_fe7c91f1-0b04-48d9-8d72-9c1660082f3c/Gau-36457.chk"
 -----
 titel
 -----
 Charge =  0 Multiplicity = 1

                         Standard orientation:
 ---------------------------------------------------------------------
 Center     Atomic      Atomic             Coordinates (Angstroms)
 Number     Number       Type             X           Y           Z
 ---------------------------------------------------------------------
      1          6           0        1.928189    0.867037    0.003192
      2          6           0        0.819856   -0.183260   -0.025387
      3          8           0        1.386056   -1.474478   -0.149747
      4          6           0       -0.290981   -0.012029   -1.109380
      5          6           0       -0.886809    1.345099   -0.643662
      6          8           0       -0.791416    1.289655    0.789292
      7          6           0       -0.249906   -0.025533    1.101699
      8          6           0       -1.278722   -1.058922    0.691611
      9          6           0       -1.294804   -1.054615   -0.644828
     10          1           0        2.473383    0.871054   -0.945835
     11          1           0        1.550207    1.868885    0.207615
     12          1           0        2.646277    0.623215    0.796716
     13          1           0        2.095121   -1.547743    0.497069
     14          1           0        0.029713   -0.048295   -2.150089
     15          1           0       -0.312167    2.202620   -1.013138
     16          1           0       -1.932317    1.464105   -0.949681
     17          1           0        0.086992   -0.008380    2.138171
     18          1           0       -1.919022   -1.610656    1.366700
     19          1           0       -1.956258   -1.602892   -1.303365
 ---------------------------------------------------------------------

 SCF Done:  E(RB3LYP) =  -423.176551295     A.U. after    1 cycles

 The electronic state is 1-A.
 Alpha  occ. eigenvalues --  -19.13591 -19.13247 -10.23957 -10.22686 -10.22384
 Alpha  occ. eigenvalues --  -10.19234 -10.18049 -10.17778 -10.17344  -1.03583
 Alpha  occ. eigenvalues --   -1.01532  -0.82913  -0.74747  -0.73701  -0.66111
 Alpha  occ. eigenvalues --   -0.61137  -0.57179  -0.52654  -0.52275  -0.49528
 Alpha  occ. eigenvalues --   -0.46073  -0.44306  -0.41863  -0.41252  -0.39583
 Alpha  occ. eigenvalues --   -0.37818  -0.36741  -0.36113  -0.35573  -0.32206
 Alpha  occ. eigenvalues --   -0.30790  -0.27640  -0.24808  -0.23069
 Alpha virt. eigenvalues --    0.01205   0.07173   0.10464   0.12335   0.13666
 Alpha virt. eigenvalues --    0.14110   0.14752   0.16242   0.16522   0.17064
 Alpha virt. eigenvalues --    0.17497   0.18608   0.20866   0.21138   0.22816

 Mulliken charges:
               1
     1  C   -0.472310
     2  C    0.425749
     3  O   -0.486479
     4  C   -0.133622
     5  C   -0.086262
     6  O   -0.277483
     7  C   -0.004692
     8  C   -0.068061
     9  C   -0.072830
    10  H    0.122994
    11  H    0.142814
    12  H    0.103745
    13  H    0.274756
    14  H    0.071916
    15  H    0.097928
    16  H    0.100312
    17  H    0.064787
    18  H    0.098725
    19  H    0.098016
 Sum of Mulliken charges =   0.00000

 Dipole moment (field-independent basis, Debye):
    X=              0.9609    Y=             -0.1373    Z=             -0.1300  Tot=              0.9793
 Quadrupole moment (field-independent basis, Debye-Ang):
   XX=            -49.9861   YY=            -56.4051   ZZ=            -50.4745
   XY=              1.8673   XZ=              3.8298   YZ=             -4.3534

  Exact polarizability:  76.094   5.025  71.502   2.846  -3.749  74.955
 Approx polarizability: 102.999   3.507 107.490   3.602  -2.322 127.098

                      1                      2                      3
                      A                      A                      A
 Frequencies --    190.3325               225.3089               242.1645
 Red. masses --      1.1321                 3.1538                 1.0763
 Frc consts  --      0.0242                 0.0943                 0.0372
 IR Inten    --      2.4530                 0.9462                86.0222

                      4                      5                      6
                      A                      A                      A
 Frequencies --    266.4892               319.7606               370.5940
 Red. masses --      3.1156                 2.5968                 3.2828
 Frc consts  --      0.1304                 0.1564                 0.2656
 IR Inten    --      5.7493                 5.8861                 0.7032

                      7                      8                      9
                      A                      A                      A
 Frequencies --    385.0097               436.1575               521.4772
 Red. masses --      2.9106                 2.7951                 3.0690
 Frc consts  --      0.2542                 0.3133                 0.4917
 IR Inten    --      6.4332                 4.1919                 4.0507

                     10                     11                     12
                      A                      A                      A
 Frequencies --    546.3705               623.8462               715.0754
 Red. masses --      5.0097                 3.2876                 4.7444
 Frc consts  --      0.8811                 0.7538                 1.4293
 IR Inten    --      4.3990                 3.0502                 1.7075

                     13                     14                     15
                      A                      A                      A
 Frequencies --    746.4327               779.0034               856.0947
 Red. masses --      1.7812                 3.4558                 2.5476
 Frc consts  --      0.5847                 1.2356                 1.1001
 IR Inten    --     22.9608                 6.3748                 5.5762

                     16                     17                     18
                      A                      A                      A
 Frequencies --    886.9051               900.3859               935.7590
 Red. masses --      2.8070                 3.8080                 1.4662
 Frc consts  --      1.3009                 1.8189                 0.7564
 IR Inten    --     23.3750                10.7335                 7.2836

                     19                     20                     21
                      A                      A                      A
 Frequencies --    953.2107               958.7409               963.3708
 Red. masses --      1.8334                 2.5474                 2.3523
 Frc consts  --      0.9815                 1.3796                 1.2863
 IR Inten    --      3.6605                37.7243                 4.2104

                     22                     23                     24
                      A                      A                      A
 Frequencies --    973.3718              1003.9241              1058.0766
 Red. masses --      1.9396                 2.9026                 1.4597
 Frc consts  --      1.0827                 1.7236                 0.9628
 IR Inten    --      5.6723                43.0672                 3.5470

                     25                     26                     27
                      A                      A                      A
 Frequencies --   1096.5593              1124.8425              1153.1111
 Red. masses --      1.8157                 1.3502                 2.1147
 Frc consts  --      1.2864                 1.0066                 1.6567
 IR Inten    --     27.5403                 8.8585                 6.3903

                     28                     29                     30
                      A                      A                      A
 Frequencies --   1183.5923              1206.2080              1222.3659
 Red. masses --      1.8714                 1.5384                 1.8333
 Frc consts  --      1.5446                 1.3187                 1.6140
 IR Inten    --     22.7675                16.9533                21.9158

                     31                     32                     33
                      A                      A                      A
 Frequencies --   1264.8881              1279.6477              1290.3305
 Red. masses --      1.7974                 1.3602                 1.3804
 Frc consts  --      1.6944                 1.3123                 1.3541
 IR Inten    --     44.7647                 6.7790                 1.8657

                     34                     35                     36
                      A                      A                      A
 Frequencies --   1344.6108              1356.2373              1390.5934
 Red. masses --      1.6988                 1.4428                 1.6504
 Frc consts  --      1.8096                 1.5636                 1.8803
 IR Inten    --     10.6170                 5.9221                22.5906

                     37                     38                     39
                      A                      A                      A
 Frequencies --   1403.0569              1486.0731              1501.1225
 Red. masses --      1.2717                 1.0700                 1.0598
 Frc consts  --      1.4750                 1.3922                 1.4070
 IR Inten    --      9.8222                 5.0019                 4.4914

                     40                     41                     42
                      A                      A                      A
 Frequencies --   1527.3957              1640.5139              3022.1407
 Red. masses --      1.0814                 5.7017                 1.0551
 Frc consts  --      1.4864                 9.0409                 5.6779
 IR Inten    --      1.1721                 2.1342                66.5898

                     43                     44                     45
                      A                      A                      A
 Frequencies --   3026.2155              3060.7464              3090.8594
 Red. masses --      1.0462                 1.1099                 1.0937
 Frc consts  --      5.6450                 6.1260                 6.1561
 IR Inten    --     22.0514                38.6085                17.8872

                     46                     47                     48
                      A                      A                      A
 Frequencies --   3121.1696              3124.6659              3149.2434
 Red. masses --      1.0882                 1.0903                 1.0976
 Frc consts  --      6.2460                 6.2721                 6.4139
 IR Inten    --     49.9414                 7.5401                11.0802

                     49                     50                     51
                      A                      A                      A
 Frequencies --   3203.9219              3229.9273              3813.0168
 Red. masses --      1.0864                 1.1069                 1.0660
 Frc consts  --      6.5708                 6.8039                 9.1315
 IR Inten    --      6.7792                15.1454                15.2924

 - Thermochemistry -
 -------------------
 Temperature   298.150 Kelvin.  Pressure   1.00000 Atm.
 Atom     1 has atomic number  6 and mass  12.00000

 Molecular mass:   126.06808 amu.
 Principal axes and moments of inertia in atomic units:
                           1         2         3
     Eigenvalues --   748.08570 887.710811124.21250
           X            0.98600   0.16442   0.02768
           Y           -0.16247   0.98476  -0.06208
           Z           -0.03746   0.05671   0.99769
 This molecule is an asymmetric top.
 Rotational symmetry number  1.
 Warning -- assumption of classical behavior for rotation
           may cause significant error
 Rotational temperatures (Kelvin)      0.11578     0.09757     0.07704
 Rotational constants (GHZ):           2.41248     2.03303     1.60534
 Zero-point vibrational energy     419715.3 (Joules/Mol)
                                  100.31436 (Kcal/Mol)
 Warning -- explicit consideration of  10 degrees of freedom as
           vibrations may cause significant error
 Vibrational temperatures:    273.85   324.17   348.42   383.42   460.06
          (Kelvin)            533.20   553.94   627.53   750.29   786.10
                              897.57  1028.83  1073.95  1120.81  1231.73
                             1276.06  1295.45  1346.35  1371.46  1379.41
                             1386.07  1400.46  1444.42  1522.33  1577.70
                             1618.40  1659.07  1702.92  1735.46  1758.71
                             1819.89  1841.13  1856.50  1934.59  1951.32
                             2000.75  2018.68  2138.13  2159.78  2197.58
                             2360.33  4348.18  4354.04  4403.73  4447.05
                             4490.66  4495.69  4531.05  4609.72  4647.14
                             5486.07

 Zero-point correction=                           0.159861 (Hartree/Particle)
 Thermal correction to Energy=                    0.167586
 Thermal correction to Enthalpy=                  0.168530
 Thermal correction to Gibbs Free Energy=         0.128466
 Sum of electronic and zero-point Energies=           -423.016690
 Sum of electronic and thermal Energies=              -423.008966
 Sum of electronic and thermal Enthalpies=            -423.008021
 Sum of electronic and thermal Free Energies=         -423.048086

                     E (Thermal)             CV                S
                      KCal/Mol        Cal/Mol-Kelvin    Cal/Mol-Kelvin
 Total                  105.162             31.754             84.322
 Electronic               0.000              0.000              0.000
 Translational            0.889              2.981             40.409
 Rotational               0.889              2.981             28.103
 Vibrational            103.384             25.793             15.811
 Vibration     1          0.634              1.853              2.225
 Vibration     2          0.650              1.802              1.916
 Vibration     3          0.658              1.776              1.787
 Vibration     4          0.672              1.735              1.619
 Vibration     5          0.706              1.636              1.311
 Vibration     6          0.743              1.533              1.077
 Vibration     7          0.754              1.502              1.019
 Vibration     8          0.797              1.391              0.839
 Vibration     9          0.876              1.202              0.607
 Vibration    10          0.902              1.148              0.552

 Normal termination of Gaussian 09 at Mon Jan 27 17:14:36 2020.
