 Gaussian 09, Revision D.01,
 Gaussian 09:  ES64L-G09RevD.01 24-Apr-2013

 -----------------------------
 # b3lyp 6-31G(2df,p) opt Freq
 -----------------------------

 -----
 titel
 -----
 Symbolic Z-matrix:
 Charge =  0 Multiplicity = 1

 SCF Done:  E(RB3LYP) =  -423.174327980     A.U. after   14 cycles
 Optimization completed.
    -- Stationary point found.
 Normal termination of Gaussian 09 at Mon Jan 27 23:03:25 2020.

 ----------------------------------------------------------------------
 #N Geom=AllCheck Guess=TCheck SCRF=Check GenChk RB3LYP/6-31G(2df,p) Fr
 eq
 ----------------------------------------------------------------------

 Structure from the checkpoint file:  "/scratch/puck/g09_c60d00c2-79c1-469e-99ea-ad7d7dbd3a45/Gau-128734.chk"
 -----
 titel
 -----
 Charge =  0 Multiplicity = 1

                         Standard orientation:
 ---------------------------------------------------------------------
 Center     Atomic      Atomic             Coordinates (Angstroms)
 Number     Number       Type             X           Y           Z
 ---------------------------------------------------------------------
      1          6           0       -0.722575    2.106005   -0.113525
      2          6           0       -0.343864    0.837999    0.630633
      3          6           0       -1.353792   -0.345801    0.838626
      4          6           0       -0.098063   -1.256068    0.994814
      5          6           0        0.422765   -0.298738   -0.116541
      6          8           0       -0.422238   -0.604841   -1.237355
      7          6           0       -1.728738   -0.672141   -0.612741
      8          6           0        1.862642   -0.220712   -0.518157
      9          8           0        2.727580    0.188095    0.216083
     10          1           0        0.135947    2.782232   -0.177206
     11          1           0       -1.053758    1.892991   -1.132788
     12          1           0       -1.525592    2.639654    0.406488
     13          1           0        0.161385    1.065307    1.571502
     14          1           0       -2.155977   -0.313740    1.575315
     15          1           0        0.422283   -1.126917    1.943361
     16          1           0       -0.183894   -2.310694    0.723783
     17          1           0       -2.402356    0.056786   -1.075030
     18          1           0       -2.151024   -1.675618   -0.736455
     19          1           0        2.080010   -0.579297   -1.547447
 ---------------------------------------------------------------------

 SCF Done:  E(RB3LYP) =  -423.174327980     A.U. after    1 cycles

 The electronic state is 1-A.
 Alpha  occ. eigenvalues --  -19.14597 -19.14295 -10.27186 -10.24708 -10.23421
 Alpha  occ. eigenvalues --  -10.20717 -10.20147 -10.19786 -10.17940  -1.05645
 Alpha  occ. eigenvalues --   -1.04401  -0.84836  -0.74857  -0.73908  -0.64250
 Alpha  occ. eigenvalues --   -0.63128  -0.57898  -0.54841  -0.51057  -0.48289
 Alpha  occ. eigenvalues --   -0.47154  -0.44868  -0.43562  -0.41516  -0.40301
 Alpha  occ. eigenvalues --   -0.39643  -0.37920  -0.35808  -0.35081  -0.34532
 Alpha  occ. eigenvalues --   -0.32221  -0.31693  -0.25372  -0.25067
 Alpha virt. eigenvalues --   -0.03418   0.08676   0.09991   0.11782   0.12312
 Alpha virt. eigenvalues --    0.13189   0.13811   0.14567   0.15228   0.17121
 Alpha virt. eigenvalues --    0.17929   0.18255   0.19704   0.20795   0.22227

 Mulliken charges:
               1
     1  C   -0.445597
     2  C    0.003666
     3  C   -0.104920
     4  C   -0.272022
     5  C    0.347276
     6  O   -0.324991
     7  C   -0.086445
     8  C    0.058489
     9  O   -0.262241
    10  H    0.129240
    11  H    0.134007
    12  H    0.118136
    13  H    0.096020
    14  H    0.076721
    15  H    0.122424
    16  H    0.105274
    17  H    0.105850
    18  H    0.105955
    19  H    0.093154
 Sum of Mulliken charges =   0.00000

 Dipole moment (field-independent basis, Debye):
    X=             -2.6606    Y=             -0.3350    Z=              0.6016  Tot=              2.7483
 Quadrupole moment (field-independent basis, Debye-Ang):
   XX=            -58.2075   YY=            -51.4493   ZZ=            -53.9113
   XY=             -1.1622   XZ=             -2.5963   YZ=             -0.8815

  Exact polarizability:  83.325   1.565  73.923   0.746   0.878  68.946
 Approx polarizability: 120.084   5.140 103.971   4.585   4.533 109.206

                      1                      2                      3
                      A                      A                      A
 Frequencies --     37.7786               158.2421               187.5659
 Red. masses --      3.3936                 2.1515                 1.3597
 Frc consts  --      0.0029                 0.0317                 0.0282
 IR Inten    --      8.9920                 2.8921                 0.7708

                      4                      5                      6
                      A                      A                      A
 Frequencies --    197.7127               261.2392               308.4211
 Red. masses --      3.2833                 3.0355                 2.3040
 Frc consts  --      0.0756                 0.1221                 0.1291
 IR Inten    --      4.7794                 2.9378                 1.9403

                      7                      8                      9
                      A                      A                      A
 Frequencies --    414.6541               445.0713               506.7347
 Red. masses --      2.2735                 4.1241                 2.6633
 Frc consts  --      0.2303                 0.4813                 0.4029
 IR Inten    --      3.9159                 0.7749                 1.1653

                     10                     11                     12
                      A                      A                      A
 Frequencies --    595.7146               692.5193               713.7513
 Red. masses --      3.3699                 3.9285                 3.7497
 Frc consts  --      0.7046                 1.1100                 1.1255
 IR Inten    --      0.3088                 1.6815                35.1160

                     13                     14                     15
                      A                      A                      A
 Frequencies --    763.6784               797.3570               857.4429
 Red. masses --      2.6491                 3.1506                 3.0407
 Frc consts  --      0.9103                 1.1802                 1.3171
 IR Inten    --      0.9576                 0.7768                 1.8467

                     16                     17                     18
                      A                      A                      A
 Frequencies --    901.3095               942.5144               959.4143
 Red. masses --      2.4372                 2.1486                 2.4109
 Frc consts  --      1.1665                 1.1246                 1.3075
 IR Inten    --     15.6981                 7.1322                38.8447

                     19                     20                     21
                      A                      A                      A
 Frequencies --    968.0738               990.4193              1018.8881
 Red. masses --      2.1773                 1.5663                 1.3149
 Frc consts  --      1.2022                 0.9052                 0.8042
 IR Inten    --      9.0415                22.4792                 5.5531

                     22                     23                     24
                      A                      A                      A
 Frequencies --   1072.8813              1078.8573              1097.7421
 Red. masses --      1.7703                 1.5951                 1.9769
 Frc consts  --      1.2006                 1.0939                 1.4036
 IR Inten    --     22.7029                 7.4789                 5.1379

                     25                     26                     27
                      A                      A                      A
 Frequencies --   1133.7594              1154.1807              1171.0124
 Red. masses --      1.7454                 2.5391                 1.5965
 Frc consts  --      1.3219                 1.9929                 1.2899
 IR Inten    --      5.4296                13.8086                12.7320

                     28                     29                     30
                      A                      A                      A
 Frequencies --   1187.5383              1200.1142              1242.9943
 Red. masses --      1.3436                 1.7139                 1.4924
 Frc consts  --      1.1164                 1.4544                 1.3586
 IR Inten    --      3.0482                 7.5516                 0.3169

                     31                     32                     33
                      A                      A                      A
 Frequencies --   1283.5507              1295.2265              1359.1790
 Red. masses --      3.0739                 1.8834                 1.3965
 Frc consts  --      2.9838                 1.8616                 1.5200
 IR Inten    --      3.0955                 1.7650                 3.6305

                     34                     35                     36
                      A                      A                      A
 Frequencies --   1394.1044              1406.7796              1418.7680
 Red. masses --      1.3074                 1.2924                 1.3931
 Frc consts  --      1.4971                 1.5070                 1.6522
 IR Inten    --      0.4262                10.8762                 8.3488

                     37                     38                     39
                      A                      A                      A
 Frequencies --   1488.6797              1494.3882              1506.5617
 Red. masses --      1.0554                 1.0991                 1.0718
 Frc consts  --      1.3781                 1.4461                 1.4333
 IR Inten    --      2.1443                 5.0924                 3.8893

                     40                     41                     42
                      A                      A                      A
 Frequencies --   1537.2975              1822.5069              2903.4945
 Red. masses --      1.0906                10.6245                 1.0841
 Frc consts  --      1.5185                20.7921                 5.3846
 IR Inten    --      1.6159               135.5606                98.7560

                     43                     44                     45
                      A                      A                      A
 Frequencies --   3034.8430              3039.0615              3075.4866
 Red. masses --      1.0553                 1.0389                 1.0827
 Frc consts  --      5.7266                 5.6534                 6.0336
 IR Inten    --     56.5588                24.1697                 0.4832

                     46                     47                     48
                      A                      A                      A
 Frequencies --   3078.0242              3093.7010              3099.4909
 Red. masses --      1.0845                 1.0859                 1.1000
 Frc consts  --      6.0536                 6.1237                 6.2260
 IR Inten    --     56.3707                 7.0076                16.3852

                     49                     50                     51
                      A                      A                      A
 Frequencies --   3124.0169              3127.4408              3154.8407
 Red. masses --      1.0909                 1.0985                 1.1081
 Frc consts  --      6.2729                 6.3301                 6.4978
 IR Inten    --     34.5346                21.0314                17.5300

 - Thermochemistry -
 -------------------
 Temperature   298.150 Kelvin.  Pressure   1.00000 Atm.
 Atom     1 has atomic number  6 and mass  12.00000

 Molecular mass:   126.06808 amu.
 Principal axes and moments of inertia in atomic units:
                           1         2         3
     Eigenvalues --   707.798021169.322231354.33048
           X            0.99976  -0.02109  -0.00505
           Y            0.02087   0.99895  -0.04079
           Z            0.00591   0.04067   0.99916
 This molecule is an asymmetric top.
 Rotational symmetry number  1.
 Warning -- assumption of classical behavior for rotation
           may cause significant error
 Rotational temperatures (Kelvin)      0.12237     0.07407     0.06395
 Rotational constants (GHZ):           2.54980     1.54341     1.33257
 Zero-point vibrational energy     417466.9 (Joules/Mol)
                                   99.77700 (Kcal/Mol)
 Warning -- explicit consideration of  10 degrees of freedom as
           vibrations may cause significant error
 Vibrational temperatures:     54.35   227.67   269.87   284.46   375.86
          (Kelvin)            443.75   596.59   640.36   729.08   857.10
                              996.38  1026.93  1098.76  1147.22  1233.67
                             1296.78  1356.07  1380.38  1392.84  1424.99
                             1465.95  1543.63  1552.23  1579.40  1631.22
                             1660.61  1684.82  1708.60  1726.69  1788.39
                             1846.74  1863.54  1955.55  2005.80  2024.04
                             2041.29  2141.88  2150.09  2167.60  2211.83
                             2622.18  4177.48  4366.46  4372.53  4424.93
                             4428.58  4451.14  4459.47  4494.76  4499.68
                             4539.11

 Zero-point correction=                           0.159005 (Hartree/Particle)
 Thermal correction to Energy=                    0.167273
 Thermal correction to Enthalpy=                  0.168217
 Thermal correction to Gibbs Free Energy=         0.125628
 Sum of electronic and zero-point Energies=           -423.015323
 Sum of electronic and thermal Energies=              -423.007055
 Sum of electronic and thermal Enthalpies=            -423.006111
 Sum of electronic and thermal Free Energies=         -423.048699

                     E (Thermal)             CV                S
                      KCal/Mol        Cal/Mol-Kelvin    Cal/Mol-Kelvin
 Total                  104.965             31.376             89.635
 Electronic               0.000              0.000              0.000
 Translational            0.889              2.981             40.409
 Rotational               0.889              2.981             28.507
 Vibrational            103.188             25.414             20.720
 Vibration     1          0.594              1.982              5.372
 Vibration     2          0.621              1.893              2.571
 Vibration     3          0.632              1.857              2.252
 Vibration     4          0.637              1.843              2.154
 Vibration     5          0.669              1.744              1.653
 Vibration     6          0.698              1.658              1.371
 Vibration     7          0.778              1.438              0.910
 Vibration     8          0.804              1.372              0.811
 Vibration     9          0.862              1.235              0.642
 Vibration    10          0.953              1.041              0.457

 Optimization completed.
    -- Stationary point found.
 Normal termination of Gaussian 09 at Mon Jan 27 23:46:26 2020.
