 Gaussian 09, Revision D.01,
 Gaussian 09:  ES64L-G09RevD.01 24-Apr-2013

 -----------------------------
 # b3lyp 6-31G(2df,p) opt Freq
 -----------------------------

 -----
 titel
 -----
 Symbolic Z-matrix:
 Charge =  0 Multiplicity = 1

 SCF Done:  E(RB3LYP) =  -423.223007262     A.U. after   14 cycles
 Optimization completed.
    -- Stationary point found.
 Normal termination of Gaussian 09 at Mon Jan 27 13:12:59 2020.

 ----------------------------------------------------------------------
 #N Geom=AllCheck Guess=TCheck SCRF=Check GenChk RB3LYP/6-31G(2df,p) Fr
 eq
 ----------------------------------------------------------------------

 Structure from the checkpoint file:  "/scratch/puck/g09_90cc38e5-3714-4e9c-9ca1-4924c63692b1/Gau-48176.chk"
 -----
 titel
 -----
 Charge =  0 Multiplicity = 1

                         Standard orientation:
 ---------------------------------------------------------------------
 Center     Atomic      Atomic             Coordinates (Angstroms)
 Number     Number       Type             X           Y           Z
 ---------------------------------------------------------------------
      1          8           0       -2.527572   -1.265679    0.406919
      2          6           0       -2.428197   -0.168435   -0.075895
      3          6           0       -1.124600    0.648597   -0.092999
      4          8           0       -1.173965    1.754277   -0.583182
      5          6           0        0.105499   -0.010979    0.479208
      6          6           0        1.290605    0.957021    0.740576
      7          6           0        2.481733    0.403956   -0.075763
      8          6           0        2.163407   -1.088014   -0.255360
      9          6           0        0.649462   -1.095949   -0.510747
     10          1           0       -3.275322    0.371556   -0.550050
     11          1           0       -0.202695   -0.525346    1.394814
     12          1           0        1.030582    1.976586    0.448912
     13          1           0        1.525183    0.970193    1.808870
     14          1           0        2.519250    0.889692   -1.057769
     15          1           0        3.444568    0.584226    0.409671
     16          1           0        2.729699   -1.559171   -1.064032
     17          1           0        2.387436   -1.637390    0.667609
     18          1           0        0.453997   -0.791207   -1.546473
     19          1           0        0.172149   -2.065110   -0.355569
 ---------------------------------------------------------------------

 SCF Done:  E(RB3LYP) =  -423.223007262     A.U. after    1 cycles

 The electronic state is 1-A.
 Alpha  occ. eigenvalues --  -19.17116 -19.15761 -10.28771 -10.28208 -10.20071
 Alpha  occ. eigenvalues --  -10.19422 -10.18611 -10.18286 -10.18264  -1.07732
 Alpha  occ. eigenvalues --   -1.05983  -0.84472  -0.74468  -0.71584  -0.67632
 Alpha  occ. eigenvalues --   -0.59850  -0.57890  -0.52912  -0.50740  -0.48289
 Alpha  occ. eigenvalues --   -0.47387  -0.45729  -0.44559  -0.42420  -0.41890
 Alpha  occ. eigenvalues --   -0.38741  -0.36192  -0.34755  -0.34138  -0.33973
 Alpha  occ. eigenvalues --   -0.33603  -0.32533  -0.31184  -0.24824
 Alpha virt. eigenvalues --   -0.09236   0.03285   0.07917   0.09365   0.13050
 Alpha virt. eigenvalues --    0.13709   0.13968   0.16102   0.16790   0.16959
 Alpha virt. eigenvalues --    0.17426   0.18175   0.19279   0.20462   0.22283

 Mulliken charges:
               1
     1  O   -0.220913
     2  C    0.094493
     3  C    0.267311
     4  O   -0.283880
     5  C   -0.070839
     6  C   -0.238005
     7  C   -0.196024
     8  C   -0.197538
     9  C   -0.224214
    10  H    0.107421
    11  H    0.103863
    12  H    0.124399
    13  H    0.102131
    14  H    0.105254
    15  H    0.097559
    16  H    0.099296
    17  H    0.101599
    18  H    0.107010
    19  H    0.121077
 Sum of Mulliken charges =   0.00000

 Dipole moment (field-independent basis, Debye):
    X=              1.2395    Y=             -0.4735    Z=              0.1735  Tot=              1.3381
 Quadrupole moment (field-independent basis, Debye-Ang):
   XX=            -53.2862   YY=            -59.5520   ZZ=            -52.0357
   XY=             -2.3080   XZ=              0.9728   YZ=              2.6954

  Exact polarizability:  88.515  -0.559  77.699   2.246  -3.189  62.367
 Approx polarizability: 108.552  -0.051 130.143   2.156 -14.620  99.558

                      1                      2                      3
                      A                      A                      A
 Frequencies --     39.8089                46.2149               122.7086
 Red. masses --      2.8967                 3.5381                 3.6086
 Frc consts  --      0.0027                 0.0045                 0.0320
 IR Inten    --      0.1639                 0.0232                16.4137

                      4                      5                      6
                      A                      A                      A
 Frequencies --    156.9445               216.3299               264.3425
 Red. masses --      4.7490                 2.8925                 1.8789
 Frc consts  --      0.0689                 0.0798                 0.0774
 IR Inten    --      1.6618                 3.3202                 2.1692

                      7                      8                      9
                      A                      A                      A
 Frequencies --    295.9009               495.6004               526.0531
 Red. masses --      3.7794                 3.9731                 3.8486
 Frc consts  --      0.1950                 0.5750                 0.6275
 IR Inten    --     11.4106                 0.6021                35.9373

                     10                     11                     12
                      A                      A                      A
 Frequencies --    558.7555               603.3452               672.5926
 Red. masses --      2.1805                 3.2916                 3.7455
 Frc consts  --      0.4011                 0.7060                 0.9983
 IR Inten    --      3.6478                 6.3977                22.0991

                     13                     14                     15
                      A                      A                      A
 Frequencies --    735.3368               836.1957               871.3756
 Red. masses --      1.9709                 1.8328                 2.1294
 Frc consts  --      0.6279                 0.7551                 0.9526
 IR Inten    --      2.0831                 1.3943                 0.4462

                     16                     17                     18
                      A                      A                      A
 Frequencies --    907.6812               918.8747               927.3068
 Red. masses --      2.3663                 2.1723                 2.8986
 Frc consts  --      1.1486                 1.0806                 1.4685
 IR Inten    --      2.0849                 0.5954                 8.6441

                     19                     20                     21
                      A                      A                      A
 Frequencies --    964.8950              1007.3729              1029.7131
 Red. masses --      1.5202                 1.6059                 1.6030
 Frc consts  --      0.8339                 0.9602                 1.0014
 IR Inten    --      2.4327                 0.6701                 0.0922

                     22                     23                     24
                      A                      A                      A
 Frequencies --   1048.3832              1075.9395              1150.6041
 Red. masses --      1.7181                 3.7165                 1.6623
 Frc consts  --      1.1126                 2.5349                 1.2966
 IR Inten    --      0.2198                 1.7131                 0.7266

                     25                     26                     27
                      A                      A                      A
 Frequencies --   1172.3576              1189.3752              1237.3572
 Red. masses --      1.7029                 1.7839                 1.4679
 Frc consts  --      1.3790                 1.4868                 1.3241
 IR Inten    --     18.3950                 6.5867                 0.9594

                     28                     29                     30
                      A                      A                      A
 Frequencies --   1262.0303              1289.8370              1320.2119
 Red. masses --      1.2510                 1.2709                 1.2705
 Frc consts  --      1.1739                 1.2457                 1.3047
 IR Inten    --      6.8893                 3.0275                 2.0285

                     31                     32                     33
                      A                      A                      A
 Frequencies --   1335.0974              1341.6943              1349.9259
 Red. masses --      1.3980                 1.2385                 1.4014
 Frc consts  --      1.4682                 1.3135                 1.5047
 IR Inten    --      2.8872                 0.4514                 0.8665

                     34                     35                     36
                      A                      A                      A
 Frequencies --   1363.5604              1378.4952              1487.4799
 Red. masses --      1.2193                 1.7031                 1.0813
 Frc consts  --      1.3357                 1.9068                 1.4097
 IR Inten    --      4.1013                18.3245                 1.1469

                     37                     38                     39
                      A                      A                      A
 Frequencies --   1490.9434              1493.0180              1511.9319
 Red. masses --      1.0843                 1.0891                 1.1072
 Frc consts  --      1.4201                 1.4304                 1.4912
 IR Inten    --      2.9927                 3.7447                 1.6806

                     40                     41                     42
                      A                      A                      A
 Frequencies --   1796.0239              1822.7949              2920.9829
 Red. masses --     11.3049                11.0389                 1.0878
 Frc consts  --     21.4853                21.6099                 5.4683
 IR Inten    --     89.1925                96.0191               108.2935

                     43                     44                     45
                      A                      A                      A
 Frequencies --   3027.7683              3033.6870              3041.3494
 Red. masses --      1.0702                 1.0657                 1.0632
 Frc consts  --      5.7805                 5.7789                 5.7942
 IR Inten    --     13.6890                26.4979                30.3596

                     46                     47                     48
                      A                      A                      A
 Frequencies --   3054.1551              3066.2044              3088.9913
 Red. masses --      1.0735                 1.0742                 1.0950
 Frc consts  --      5.8997                 5.9504                 6.1558
 IR Inten    --      6.4795                20.7586                30.7816

                     49                     50                     51
                      A                      A                      A
 Frequencies --   3095.4090              3115.5511              3117.9512
 Red. masses --      1.0995                 1.0983                 1.1007
 Frc consts  --      6.2072                 6.2810                 6.3043
 IR Inten    --     41.0387                 4.0266                30.1271

 - Thermochemistry -
 -------------------
 Temperature   298.150 Kelvin.  Pressure   1.00000 Atm.
 Atom     1 has atomic number  8 and mass  15.99491

 Molecular mass:   126.06808 amu.
 Principal axes and moments of inertia in atomic units:
                           1         2         3
     Eigenvalues --   610.834531583.054231960.69086
           X            0.99996  -0.00879   0.00353
           Y            0.00867   0.99942   0.03293
           Z           -0.00382  -0.03290   0.99945
 This molecule is an asymmetric top.
 Rotational symmetry number  1.
 Warning -- assumption of classical behavior for rotation
           may cause significant error
 Rotational temperatures (Kelvin)      0.14180     0.05471     0.04418
 Rotational constants (GHZ):           2.95455     1.14004     0.92046
 Zero-point vibrational energy     417954.0 (Joules/Mol)
                                   99.89341 (Kcal/Mol)
 Warning -- explicit consideration of  11 degrees of freedom as
           vibrations may cause significant error
 Vibrational temperatures:     57.28    66.49   176.55   225.81   311.25
          (Kelvin)            380.33   425.73   713.06   756.87   803.92
                              868.08   967.71  1057.98  1203.10  1253.71
                             1305.95  1322.05  1334.19  1388.27  1449.38
                             1481.53  1508.39  1548.04  1655.46  1686.76
                             1711.24  1780.28  1815.78  1855.79  1899.49
                             1920.90  1930.40  1942.24  1961.86  1983.34
                             2140.15  2145.13  2148.12  2175.33  2584.07
                             2622.59  4202.64  4356.28  4364.79  4375.82
                             4394.24  4411.58  4444.36  4453.60  4482.58
                             4486.03

 Zero-point correction=                           0.159190 (Hartree/Particle)
 Thermal correction to Energy=                    0.168094
 Thermal correction to Enthalpy=                  0.169038
 Thermal correction to Gibbs Free Energy=         0.123993
 Sum of electronic and zero-point Energies=           -423.063817
 Sum of electronic and thermal Energies=              -423.054913
 Sum of electronic and thermal Enthalpies=            -423.053969
 Sum of electronic and thermal Free Energies=         -423.099015

                     E (Thermal)             CV                S
                      KCal/Mol        Cal/Mol-Kelvin    Cal/Mol-Kelvin
 Total                  105.481             31.838             94.807
 Electronic               0.000              0.000              0.000
 Translational            0.889              2.981             40.409
 Rotational               0.889              2.981             29.029
 Vibrational            103.703             25.877             25.369
 Vibration     1          0.594              1.981              5.269
 Vibration     2          0.595              1.979              4.973
 Vibration     3          0.610              1.930              3.057
 Vibration     4          0.621              1.895              2.586
 Vibration     5          0.645              1.816              1.990
 Vibration     6          0.671              1.738              1.633
 Vibration     7          0.690              1.681              1.440
 Vibration     8          0.851              1.260              0.669
 Vibration     9          0.881              1.192              0.596
 Vibration    10          0.914              1.121              0.526
 Vibration    11          0.962              1.025              0.444

 Optimization completed.
    -- Stationary point found.
 Normal termination of Gaussian 09 at Mon Jan 27 13:53:39 2020.
