 Gaussian 09, Revision D.01,
 Gaussian 09:  ES64L-G09RevD.01 24-Apr-2013

 -----------------------------
 # b3lyp 6-31G(2df,p) opt Freq
 -----------------------------

 -----
 titel
 -----
 Symbolic Z-matrix:
 Charge =  0 Multiplicity = 1

 SCF Done:  E(RB3LYP) =  -423.188304135     A.U. after   14 cycles
 Optimization completed.
    -- Stationary point found.
 Normal termination of Gaussian 09 at Tue Jan 28 02:23:21 2020.

 ----------------------------------------------------------------------
 #N Geom=AllCheck Guess=TCheck SCRF=Check GenChk RB3LYP/6-31G(2df,p) Fr
 eq
 ----------------------------------------------------------------------

 Structure from the checkpoint file:  "/scratch/puck/g09_48b4336e-817b-4382-b3f0-30f48b8b7011/Gau-112358.chk"
 -----
 titel
 -----
 Charge =  0 Multiplicity = 1

                         Standard orientation:
 ---------------------------------------------------------------------
 Center     Atomic      Atomic             Coordinates (Angstroms)
 Number     Number       Type             X           Y           Z
 ---------------------------------------------------------------------
      1          6           0        2.509439   -0.501038   -0.152953
      2          6           0        1.047788   -0.126182   -0.102058
      3          6           0        0.006955   -1.262035   -0.373777
      4          6           0       -1.258920   -0.697452    0.339431
      5          8           0       -2.412522   -0.564594   -0.462672
      6          6           0       -0.686395    0.653646    0.906982
      7          8           0        0.649275    0.267110    1.229978
      8          6           0       -0.481644    1.573833   -0.290692
      9          6           0        0.585681    1.081984   -0.921838
     10          1           0        2.715673   -1.326254    0.534637
     11          1           0        2.789135   -0.817619   -1.162588
     12          1           0        3.135587    0.349910    0.129845
     13          1           0       -0.173796   -1.447431   -1.435682
     14          1           0        0.344954   -2.194733    0.085182
     15          1           0       -1.555433   -1.338161    1.172270
     16          1           0       -2.173789   -0.015038   -1.218062
     17          1           0       -1.204961    1.055105    1.776192
     18          1           0       -1.130728    2.386454   -0.587787
     19          1           0        1.021902    1.391102   -1.863017
 ---------------------------------------------------------------------

 SCF Done:  E(RB3LYP) =  -423.188304135     A.U. after    1 cycles

 The electronic state is 1-A.
 Alpha  occ. eigenvalues --  -19.13525 -19.13435 -10.24285 -10.23100 -10.23059
 Alpha  occ. eigenvalues --  -10.19088 -10.18897 -10.18113 -10.18051  -1.05089
 Alpha  occ. eigenvalues --   -1.01540  -0.80243  -0.77038  -0.74142  -0.67709
 Alpha  occ. eigenvalues --   -0.60252  -0.57053  -0.55222  -0.51220  -0.50018
 Alpha  occ. eigenvalues --   -0.45514  -0.44841  -0.43243  -0.40023  -0.39206
 Alpha  occ. eigenvalues --   -0.38899  -0.37424  -0.36756  -0.34302  -0.34024
 Alpha  occ. eigenvalues --   -0.30657  -0.28814  -0.25381  -0.24112
 Alpha virt. eigenvalues --    0.00022   0.08976   0.10282   0.11284   0.11700
 Alpha virt. eigenvalues --    0.13159   0.14914   0.15958   0.16374   0.16619
 Alpha virt. eigenvalues --    0.17904   0.19363   0.20399   0.21694   0.22219

 Mulliken charges:
               1
     1  C   -0.488936
     2  C    0.357460
     3  C   -0.291530
     4  C    0.140438
     5  O   -0.439548
     6  C   -0.018668
     7  O   -0.275432
     8  C   -0.114691
     9  C   -0.116895
    10  H    0.128254
    11  H    0.119058
    12  H    0.130067
    13  H    0.096759
    14  H    0.105686
    15  H    0.097228
    16  H    0.275412
    17  H    0.079199
    18  H    0.110774
    19  H    0.105365
 Sum of Mulliken charges =   0.00000

 Dipole moment (field-independent basis, Debye):
    X=              0.8527    Y=              0.5112    Z=             -1.6481  Tot=              1.9247
 Quadrupole moment (field-independent basis, Debye-Ang):
   XX=            -56.8226   YY=            -52.1138   ZZ=            -51.7132
   XY=             -4.0898   XZ=             -2.4039   YZ=             -1.9589

  Exact polarizability:  82.688  -5.596  72.084  -5.867  -2.277  67.863
 Approx polarizability: 120.062  -9.562 105.722 -10.658  -1.271 109.141

                      1                      2                      3
                      A                      A                      A
 Frequencies --    136.6672               204.4339               247.3367
 Red. masses --      3.3754                 1.0504                 3.0014
 Frc consts  --      0.0371                 0.0259                 0.1082
 IR Inten    --      2.0365                 0.0004                 0.3683

                      4                      5                      6
                      A                      A                      A
 Frequencies --    294.3343               346.8361               376.9845
 Red. masses --      2.7754                 2.8126                 1.1141
 Frc consts  --      0.1417                 0.1993                 0.0933
 IR Inten    --      1.9373                 1.6386                72.6003

                      7                      8                      9
                      A                      A                      A
 Frequencies --    416.6457               487.2527               508.6872
 Red. masses --      2.2841                 3.3488                 3.2977
 Frc consts  --      0.2336                 0.4684                 0.5028
 IR Inten    --      2.5441                 2.2951                10.6587

                     10                     11                     12
                      A                      A                      A
 Frequencies --    577.6531               637.0567               704.6945
 Red. masses --      4.4964                 3.5784                 3.9029
 Frc consts  --      0.8840                 0.8557                 1.1419
 IR Inten    --      8.8018                 4.1641                 9.2655

                     13                     14                     15
                      A                      A                      A
 Frequencies --    745.6332               780.8183               823.6378
 Red. masses --      1.6246                 4.9411                 3.0373
 Frc consts  --      0.5322                 1.7749                 1.2140
 IR Inten    --     24.9701                 3.4486                15.4547

                     16                     17                     18
                      A                      A                      A
 Frequencies --    862.6940               879.6040               888.8521
 Red. masses --      3.4055                 2.4914                 2.2260
 Frc consts  --      1.4933                 1.1357                 1.0362
 IR Inten    --     10.9973                 1.7119                16.4240

                     19                     20                     21
                      A                      A                      A
 Frequencies --    915.7108               940.5907               970.5669
 Red. masses --      2.0018                 1.3775                 2.1735
 Frc consts  --      0.9890                 0.7181                 1.2063
 IR Inten    --      1.9636                 1.0632                 0.8508

                     22                     23                     24
                      A                      A                      A
 Frequencies --   1015.7462              1035.0515              1062.9099
 Red. masses --      2.9980                 2.2012                 1.6151
 Frc consts  --      1.8224                 1.3894                 1.0751
 IR Inten    --     13.1275                22.0636                32.0498

                     25                     26                     27
                      A                      A                      A
 Frequencies --   1096.8315              1128.8990              1142.4472
 Red. masses --      1.6443                 1.7785                 1.7011
 Frc consts  --      1.1655                 1.3354                 1.3081
 IR Inten    --     16.2635                66.8634                84.4664

                     28                     29                     30
                      A                      A                      A
 Frequencies --   1178.9707              1212.5948              1241.0498
 Red. masses --      1.5260                 1.8565                 1.7254
 Frc consts  --      1.2497                 1.6084                 1.5657
 IR Inten    --      0.5322                 9.7708                 0.9808

                     31                     32                     33
                      A                      A                      A
 Frequencies --   1281.9443              1288.5745              1309.2007
 Red. masses --      1.4993                 1.4198                 1.4968
 Frc consts  --      1.4517                 1.3890                 1.5115
 IR Inten    --      3.4225                 3.3003                 4.2692

                     34                     35                     36
                      A                      A                      A
 Frequencies --   1339.4071              1353.1136              1414.8674
 Red. masses --      1.7350                 2.0338                 1.4168
 Frc consts  --      1.8339                 2.1940                 1.6711
 IR Inten    --     15.7485                18.2431                15.4670

                     37                     38                     39
                      A                      A                      A
 Frequencies --   1432.8363              1479.9367              1488.1579
 Red. masses --      1.2234                 1.0659                 1.0784
 Frc consts  --      1.4798                 1.3755                 1.4071
 IR Inten    --     67.6791                 2.2405                 1.9464

                     40                     41                     42
                      A                      A                      A
 Frequencies --   1496.1853              1638.5977              3042.2610
 Red. masses --      1.0515                 6.4518                 1.0352
 Frc consts  --      1.3868                10.2065                 5.6453
 IR Inten    --      2.8448                 0.9898                16.3585

                     43                     44                     45
                      A                      A                      A
 Frequencies --   3060.3235              3091.7105              3111.7154
 Red. masses --      1.0594                 1.0887                 1.1045
 Frc consts  --      5.8456                 6.1316                 6.3011
 IR Inten    --     22.5039                14.2965                12.5818

                     46                     47                     48
                      A                      A                      A
 Frequencies --   3115.4394              3119.5495              3135.6516
 Red. masses --      1.1013                 1.1022                 1.0906
 Frc consts  --      6.2981                 6.3195                 6.3177
 IR Inten    --     23.4709                20.1273                34.3573

                     49                     50                     51
                      A                      A                      A
 Frequencies --   3208.6303              3235.1052              3789.3477
 Red. masses --      1.0862                 1.1083                 1.0653
 Frc consts  --      6.5889                 6.8341                 9.0127
 IR Inten    --      2.9966                 7.7116                13.1318

 - Thermochemistry -
 -------------------
 Temperature   298.150 Kelvin.  Pressure   1.00000 Atm.
 Atom     1 has atomic number  6 and mass  12.00000

 Molecular mass:   126.06808 amu.
 Principal axes and moments of inertia in atomic units:
                           1         2         3
     Eigenvalues --   603.163461151.038951285.26888
           X            0.99910  -0.03820  -0.01831
           Y            0.03754   0.99867  -0.03530
           Z            0.01963   0.03458   0.99921
 This molecule is an asymmetric top.
 Rotational symmetry number  1.
 Warning -- assumption of classical behavior for rotation
           may cause significant error
 Rotational temperatures (Kelvin)      0.14360     0.07525     0.06739
 Rotational constants (GHZ):           2.99213     1.56792     1.40417
 Zero-point vibrational energy     420450.0 (Joules/Mol)
                                  100.48995 (Kcal/Mol)
 Warning -- explicit consideration of  10 degrees of freedom as
           vibrations may cause significant error
 Vibrational temperatures:    196.63   294.13   355.86   423.48   499.02
          (Kelvin)            542.40   599.46   701.05   731.89   831.11
                              916.58  1013.90  1072.80  1123.42  1185.03
                             1241.22  1265.55  1278.86  1317.50  1353.30
                             1396.43  1461.43  1489.21  1529.29  1578.09
                             1624.23  1643.72  1696.27  1744.65  1785.59
                             1844.43  1853.97  1883.65  1927.11  1946.83
                             2035.68  2061.53  2129.30  2141.12  2152.67
                             2357.57  4377.13  4403.12  4448.28  4477.06
                             4482.42  4488.33  4511.50  4616.50  4654.59
                             5452.02

 Zero-point correction=                           0.160141 (Hartree/Particle)
 Thermal correction to Energy=                    0.167842
 Thermal correction to Enthalpy=                  0.168786
 Thermal correction to Gibbs Free Energy=         0.128546
 Sum of electronic and zero-point Energies=           -423.028163
 Sum of electronic and thermal Energies=              -423.020462
 Sum of electronic and thermal Enthalpies=            -423.019518
 Sum of electronic and thermal Free Energies=         -423.059759

                     E (Thermal)             CV                S
                      KCal/Mol        Cal/Mol-Kelvin    Cal/Mol-Kelvin
 Total                  105.323             31.613             84.694
 Electronic               0.000              0.000              0.000
 Translational            0.889              2.981             40.409
 Rotational               0.889              2.981             28.280
 Vibrational            103.545             25.652             16.005
 Vibration     1          0.614              1.917              2.850
 Vibration     2          0.640              1.834              2.093
 Vibration     3          0.661              1.767              1.749
 Vibration     4          0.689              1.684              1.449
 Vibration     5          0.725              1.582              1.181
 Vibration     6          0.748              1.519              1.051
 Vibration     7          0.780              1.434              0.903
 Vibration     8          0.843              1.278              0.691
 Vibration     9          0.864              1.231              0.637
 Vibration    10          0.934              1.080              0.490

 Optimization completed.
    -- Stationary point found.
 Normal termination of Gaussian 09 at Tue Jan 28 03:09:33 2020.
