 Gaussian 09, Revision D.01,
 Gaussian 09:  ES64L-G09RevD.01 24-Apr-2013

 -----------------------------
 # b3lyp 6-31G(2df,p) opt Freq
 -----------------------------

 -----
 titel
 -----
 Symbolic Z-matrix:
 Charge =  0 Multiplicity = 1

 SCF Done:  E(RB3LYP) =  -423.166030348     A.U. after   14 cycles
 Optimization completed.
    -- Stationary point found.
 Normal termination of Gaussian 09 at Mon Jan 27 22:55:52 2020.

 ----------------------------------------------------------------------
 #N Geom=AllCheck Guess=TCheck SCRF=Check GenChk RB3LYP/6-31G(2df,p) Fr
 eq
 ----------------------------------------------------------------------

 Structure from the checkpoint file:  "/scratch/puck/g09_f7249d1d-3d0d-4751-8cdb-d97e4a4fc808/Gau-65114.chk"
 -----
 titel
 -----
 Charge =  0 Multiplicity = 1

                         Standard orientation:
 ---------------------------------------------------------------------
 Center     Atomic      Atomic             Coordinates (Angstroms)
 Number     Number       Type             X           Y           Z
 ---------------------------------------------------------------------
      1          6           0       -2.376259   -0.932377   -0.354571
      2          6           0       -0.869807   -1.046418   -0.419826
      3          6           0       -0.062714   -0.975162    0.824232
      4          6           0        1.408464   -1.308281    0.548798
      5          6           0        1.469372   -0.170816   -0.524946
      6          8           0        2.423117    0.840224   -0.298524
      7          6           0        0.005643    0.195506   -0.198253
      8          6           0       -0.511124    1.564651   -0.076683
      9          8           0       -1.533544    1.890910    0.489476
     10          1           0       -2.784705   -0.596993   -1.312979
     11          1           0       -2.814059   -1.910088   -0.126797
     12          1           0       -2.686024   -0.214943    0.406423
     13          1           0       -0.504890   -1.710006   -1.205190
     14          1           0       -0.538413   -0.932423    1.797349
     15          1           0        2.067696   -1.067277    1.387537
     16          1           0        1.622722   -2.329739    0.218108
     17          1           0        1.642660   -0.502829   -1.553385
     18          1           0        2.355506    1.123517    0.620763
     19          1           0        0.141471    2.329100   -0.551954
 ---------------------------------------------------------------------

 SCF Done:  E(RB3LYP) =  -423.166030348     A.U. after    1 cycles

 The electronic state is 1-A.
 Alpha  occ. eigenvalues --  -19.15107 -19.12885 -10.26520 -10.24771 -10.21505
 Alpha  occ. eigenvalues --  -10.21192 -10.20395 -10.19788 -10.17985  -1.03730
 Alpha  occ. eigenvalues --   -1.03264  -0.90830  -0.76001  -0.70374  -0.67822
 Alpha  occ. eigenvalues --   -0.63277  -0.57319  -0.55291  -0.51713  -0.47338
 Alpha  occ. eigenvalues --   -0.46230  -0.44456  -0.43848  -0.42300  -0.39499
 Alpha  occ. eigenvalues --   -0.39171  -0.38704  -0.37847  -0.37035  -0.33247
 Alpha  occ. eigenvalues --   -0.30465  -0.28132  -0.26365  -0.24076
 Alpha virt. eigenvalues --   -0.02773   0.07334   0.09264   0.10016   0.11621
 Alpha virt. eigenvalues --    0.11890   0.13635   0.14631   0.15291   0.16262
 Alpha virt. eigenvalues --    0.17367   0.18064   0.19556   0.21393   0.22114

 Mulliken charges:
               1
     1  C   -0.433553
     2  C   -0.045783
     3  C   -0.102629
     4  C   -0.281179
     5  C    0.078993
     6  O   -0.430810
     7  C    0.187874
     8  C    0.037770
     9  O   -0.280054
    10  H    0.123869
    11  H    0.118219
    12  H    0.156883
    13  H    0.088561
    14  H    0.107457
    15  H    0.105689
    16  H    0.106754
    17  H    0.093230
    18  H    0.281053
    19  H    0.087656
 Sum of Mulliken charges =   0.00000

 Dipole moment (field-independent basis, Debye):
    X=              1.0009    Y=             -2.2289    Z=              0.2601  Tot=              2.4572
 Quadrupole moment (field-independent basis, Debye-Ang):
   XX=            -58.8541   YY=            -55.5715   ZZ=            -51.0356
   XY=              3.5907   XZ=              4.8286   YZ=              0.1486

  Exact polarizability:  85.346  -0.144  82.723  -0.099  -0.271  64.387
 Approx polarizability: 117.891  -3.293 125.000  -5.029   0.846 103.785

                      1                      2                      3
                      A                      A                      A
 Frequencies --    103.9008               125.3690               183.2197
 Red. masses --      3.7906                 3.0393                 2.2555
 Frc consts  --      0.0241                 0.0281                 0.0446
 IR Inten    --      2.9027                13.0826                 4.4744

                      4                      5                      6
                      A                      A                      A
 Frequencies --    203.5419               228.5204               250.2570
 Red. masses --      1.6085                 3.0867                 2.5647
 Frc consts  --      0.0393                 0.0950                 0.0946
 IR Inten    --      0.7075                 3.0735                 0.3430

                      7                      8                      9
                      A                      A                      A
 Frequencies --    266.1116               345.3241               408.6407
 Red. masses --      2.1703                 1.0933                 3.8796
 Frc consts  --      0.0906                 0.0768                 0.3817
 IR Inten    --      0.6019                80.6859                 4.4397

                     10                     11                     12
                      A                      A                      A
 Frequencies --    430.2465               488.5961               559.1662
 Red. masses --      4.0706                 2.3734                 4.5945
 Frc consts  --      0.4440                 0.3338                 0.8464
 IR Inten    --      2.0112                 7.1836                 7.5250

                     13                     14                     15
                      A                      A                      A
 Frequencies --    712.0831               736.1752               752.5502
 Red. masses --      3.7139                 2.7697                 3.7106
 Frc consts  --      1.1095                 0.8844                 1.2381
 IR Inten    --      3.9520                16.1491                14.3571

                     16                     17                     18
                      A                      A                      A
 Frequencies --    872.2688               891.8408               930.1960
 Red. masses --      2.7941                 2.2551                 1.4844
 Frc consts  --      1.2525                 1.0568                 0.7568
 IR Inten    --     19.6457                 2.0984                 9.0269

                     19                     20                     21
                      A                      A                      A
 Frequencies --    979.8073               999.5570              1014.9722
 Red. masses --      1.5879                 1.6958                 2.3908
 Frc consts  --      0.8982                 0.9983                 1.4511
 IR Inten    --     13.7229                 3.3173                 4.7489

                     22                     23                     24
                      A                      A                      A
 Frequencies --   1041.7670              1053.7250              1089.8165
 Red. masses --      1.6667                 1.8229                 1.6174
 Frc consts  --      1.0657                 1.1925                 1.1318
 IR Inten    --     22.3964                 0.9500                 6.6357

                     25                     26                     27
                      A                      A                      A
 Frequencies --   1132.3344              1145.0577              1174.4518
 Red. masses --      1.6458                 2.4851                 1.7586
 Frc consts  --      1.2433                 1.9197                 1.4292
 IR Inten    --     47.9627               132.1371                10.6027

                     28                     29                     30
                      A                      A                      A
 Frequencies --   1205.0670              1239.8249              1264.8785
 Red. masses --      1.6825                 1.5584                 1.6936
 Frc consts  --      1.4395                 1.4114                 1.5965
 IR Inten    --      6.8713                14.5638                17.5725

                     31                     32                     33
                      A                      A                      A
 Frequencies --   1272.6016              1296.5982              1354.9861
 Red. masses --      1.4895                 1.5786                 1.7260
 Frc consts  --      1.4213                 1.5637                 1.8671
 IR Inten    --      5.4383                 2.0353                23.3098

                     34                     35                     36
                      A                      A                      A
 Frequencies --   1414.8292              1427.1985              1430.2455
 Red. masses --      1.4058                 1.6851                 1.4216
 Frc consts  --      1.6580                 2.0223                 1.7134
 IR Inten    --     18.1042                 8.2957                71.8464

                     37                     38                     39
                      A                      A                      A
 Frequencies --   1435.5039              1482.4316              1495.0148
 Red. masses --      1.3532                 1.1006                 1.0958
 Frc consts  --      1.6429                 1.4251                 1.4431
 IR Inten    --     17.0433                 2.3253                 9.3987

                     40                     41                     42
                      A                      A                      A
 Frequencies --   1505.4128              1781.1279              2893.8216
 Red. masses --      1.0689                 9.6757                 1.0815
 Frc consts  --      1.4272                18.0852                 5.3359
 IR Inten    --      1.2367               188.3084               102.7230

                     43                     44                     45
                      A                      A                      A
 Frequencies --   3041.0300              3045.4216              3061.3182
 Red. masses --      1.0386                 1.0602                 1.0859
 Frc consts  --      5.6591                 5.7933                 5.9958
 IR Inten    --     32.8877                35.5522                33.4110

                     46                     47                     48
                      A                      A                      A
 Frequencies --   3088.6924              3099.8736              3101.9289
 Red. masses --      1.0875                 1.1009                 1.1060
 Frc consts  --      6.1128                 6.2329                 6.2700
 IR Inten    --     17.4098                18.7837                29.5149

                     49                     50                     51
                      A                      A                      A
 Frequencies --   3148.5243              3183.0131              3790.0228
 Red. masses --      1.0984                 1.0919                 1.0658
 Frc consts  --      6.4154                 6.5181                 9.0197
 IR Inten    --      4.6023                 8.7113                13.7042

 - Thermochemistry -
 -------------------
 Temperature   298.150 Kelvin.  Pressure   1.00000 Atm.
 Atom     1 has atomic number  6 and mass  12.00000

 Molecular mass:   126.06808 amu.
 Principal axes and moments of inertia in atomic units:
                           1         2         3
     Eigenvalues --   754.939911202.099671698.70260
           X            0.99899   0.04139   0.01729
           Y           -0.04135   0.99914  -0.00260
           Z           -0.01738   0.00188   0.99985
 This molecule is an asymmetric top.
 Rotational symmetry number  1.
 Warning -- assumption of classical behavior for rotation
           may cause significant error
 Rotational temperatures (Kelvin)      0.11473     0.07205     0.05099
 Rotational constants (GHZ):           2.39058     1.50132     1.06242
 Zero-point vibrational energy     413781.5 (Joules/Mol)
                                   98.89615 (Kcal/Mol)
 Warning -- explicit consideration of  12 degrees of freedom as
           vibrations may cause significant error
 Vibrational temperatures:    149.49   180.38   263.61   292.85   328.79
          (Kelvin)            360.06   382.87   496.84   587.94   619.03
                              702.98   804.51  1024.53  1059.19  1082.75
                             1255.00  1283.16  1338.34  1409.72  1438.14
                             1460.32  1498.87  1516.07  1568.00  1629.17
                             1647.48  1689.77  1733.82  1783.83  1819.88
                             1830.99  1865.51  1949.52  2035.62  2053.42
                             2057.80  2065.37  2132.89  2150.99  2165.95
                             2562.64  4163.56  4375.36  4381.68  4404.55
                             4443.93  4460.02  4462.98  4530.02  4579.64
                             5452.99

 Zero-point correction=                           0.157601 (Hartree/Particle)
 Thermal correction to Energy=                    0.166667
 Thermal correction to Enthalpy=                  0.167611
 Thermal correction to Gibbs Free Energy=         0.124074
 Sum of electronic and zero-point Energies=           -423.008429
 Sum of electronic and thermal Energies=              -422.999363
 Sum of electronic and thermal Enthalpies=            -422.998419
 Sum of electronic and thermal Free Energies=         -423.041956

                     E (Thermal)             CV                S
                      KCal/Mol        Cal/Mol-Kelvin    Cal/Mol-Kelvin
 Total                  104.585             33.903             91.632
 Electronic               0.000              0.000              0.000
 Translational            0.889              2.981             40.409
 Rotational               0.889              2.981             28.824
 Vibrational            102.808             27.942             22.400
 Vibration     1          0.605              1.946              3.380
 Vibration     2          0.610              1.928              3.016
 Vibration     3          0.631              1.863              2.295
 Vibration     4          0.639              1.835              2.101
 Vibration     5          0.651              1.797              1.891
 Vibration     6          0.663              1.762              1.729
 Vibration     7          0.672              1.735              1.621
 Vibration     8          0.724              1.585              1.187
 Vibration     9          0.773              1.451              0.931
 Vibration    10          0.791              1.404              0.858
 Vibration    11          0.844              1.275              0.687
 Vibration    12          0.915              1.120              0.526

 Normal termination of Gaussian 09 at Mon Jan 27 23:38:35 2020.
