 Gaussian 09, Revision D.01,
 Gaussian 09:  ES64L-G09RevD.01 24-Apr-2013

 -----------------------------
 # b3lyp 6-31G(2df,p) opt Freq
 -----------------------------

 -----
 titel
 -----
 Symbolic Z-matrix:
 Charge =  0 Multiplicity = 1

 SCF Done:  E(RB3LYP) =  -423.133418027     A.U. after   13 cycles
 Optimization completed.
    -- Stationary point found.
 Normal termination of Gaussian 09 at Mon Jan 27 18:43:54 2020.

 ----------------------------------------------------------------------
 #N Geom=AllCheck Guess=TCheck SCRF=Check GenChk RB3LYP/6-31G(2df,p) Fr
 eq
 ----------------------------------------------------------------------

 Structure from the checkpoint file:  "/scratch/puck/g09_3edb2043-c164-45cf-be84-a580aea7b700/Gau-54528.chk"
 -----
 titel
 -----
 Charge =  0 Multiplicity = 1

                         Standard orientation:
 ---------------------------------------------------------------------
 Center     Atomic      Atomic             Coordinates (Angstroms)
 Number     Number       Type             X           Y           Z
 ---------------------------------------------------------------------
      1          6           0        0.829800    1.927963    0.500810
      2          6           0        0.617149    0.541225   -0.036033
      3          8           0        1.780563   -0.020501   -0.692685
      4          6           0        1.728279   -1.219982    0.112044
      5          6           0        0.410627   -0.796418    0.772114
      6          6           0       -0.826515   -1.122722   -0.091002
      7          6           0       -2.125030   -0.469294    0.409211
      8          8           0       -1.839812    0.767437   -0.287149
      9          6           0       -0.641989    0.219318   -0.870886
     10          1           0       -0.102226    2.313901    0.921649
     11          1           0        1.607921    1.939962    1.269838
     12          1           0        1.144507    2.594018   -0.310560
     13          1           0        1.703653   -2.131563   -0.498448
     14          1           0        2.583313   -1.275372    0.798305
     15          1           0        0.322084   -0.873197    1.856399
     16          1           0       -0.892851   -2.111940   -0.544090
     17          1           0       -3.044247   -0.932706    0.029519
     18          1           0       -2.218203   -0.326700    1.493302
     19          1           0       -0.583890    0.347581   -1.954791
 ---------------------------------------------------------------------

 SCF Done:  E(RB3LYP) =  -423.133418027     A.U. after    1 cycles

 The electronic state is 1-A.
 Alpha  occ. eigenvalues --  -19.13727 -19.13352 -10.23665 -10.23493 -10.23268
 Alpha  occ. eigenvalues --  -10.23080 -10.19720 -10.19499 -10.17334  -1.05084
 Alpha  occ. eigenvalues --   -1.03234  -0.81206  -0.75059  -0.70120  -0.69129
 Alpha  occ. eigenvalues --   -0.62090  -0.57075  -0.51856  -0.50807  -0.49421
 Alpha  occ. eigenvalues --   -0.48335  -0.45273  -0.42846  -0.42336  -0.40867
 Alpha  occ. eigenvalues --   -0.39233  -0.38254  -0.34985  -0.34388  -0.31436
 Alpha  occ. eigenvalues --   -0.29553  -0.27639  -0.27217  -0.23096
 Alpha virt. eigenvalues --    0.06866   0.07294   0.10233   0.10808   0.11353
 Alpha virt. eigenvalues --    0.13466   0.14306   0.15533   0.16095   0.16831
 Alpha virt. eigenvalues --    0.17489   0.18000   0.19031   0.19637   0.21519

 Mulliken charges:
               1
     1  C   -0.483613
     2  C    0.431873
     3  O   -0.325891
     4  C   -0.096529
     5  C   -0.150382
     6  C   -0.080171
     7  C   -0.093053
     8  O   -0.288597
     9  C    0.056620
    10  H    0.136908
    11  H    0.118194
    12  H    0.129226
    13  H    0.099740
    14  H    0.101924
    15  H    0.076858
    16  H    0.078828
    17  H    0.105014
    18  H    0.101208
    19  H    0.081840
 Sum of Mulliken charges =   0.00000

 Dipole moment (field-independent basis, Debye):
    X=             -0.2530    Y=             -1.7343    Z=              1.3265  Tot=              2.1981
 Quadrupole moment (field-independent basis, Debye-Ang):
   XX=            -56.3855   YY=            -51.6412   ZZ=            -52.2978
   XY=              2.1026   XZ=              1.5417   YZ=              0.1909

  Exact polarizability:  81.226   0.544  75.405   0.316  -0.360  66.146
 Approx polarizability: 109.807  -1.095 108.147  -2.177  -3.592 102.334

                      1                      2                      3
                      A                      A                      A
 Frequencies --    116.6661               201.1857               215.8447
 Red. masses --      2.9785                 2.8407                 1.0829
 Frc consts  --      0.0239                 0.0677                 0.0297
 IR Inten    --      0.8220                 8.5132                 0.2350

                      4                      5                      6
                      A                      A                      A
 Frequencies --    238.1421               293.9004               344.0761
 Red. masses --      2.7101                 2.4656                 3.5666
 Frc consts  --      0.0906                 0.1255                 0.2488
 IR Inten    --      1.1428                 1.1990                 3.7570

                      7                      8                      9
                      A                      A                      A
 Frequencies --    379.6470               451.0269               603.8015
 Red. masses --      2.7043                 5.3978                 3.5902
 Frc consts  --      0.2297                 0.6470                 0.7712
 IR Inten    --      0.7230                 0.2910                 4.3393

                     10                     11                     12
                      A                      A                      A
 Frequencies --    697.0171               776.9987               816.0171
 Red. masses --      3.3750                 2.0480                 1.7912
 Frc consts  --      0.9661                 0.7285                 0.7027
 IR Inten    --      2.9515                 0.3583                 4.8175

                     13                     14                     15
                      A                      A                      A
 Frequencies --    865.1838               884.7369               913.7777
 Red. masses --      3.3768                 2.3210                 2.0095
 Frc consts  --      1.4893                 1.0704                 0.9886
 IR Inten    --      7.2828                 0.6043                17.4761

                     16                     17                     18
                      A                      A                      A
 Frequencies --    944.6659               962.4891               980.3704
 Red. masses --      2.8994                 2.4271                 1.5798
 Frc consts  --      1.5244                 1.3247                 0.8946
 IR Inten    --      4.9966                 8.8401                 2.3963

                     19                     20                     21
                      A                      A                      A
 Frequencies --   1010.3265              1019.6512              1040.6830
 Red. masses --      5.8824                 5.0214                 2.8654
 Frc consts  --      3.5378                 3.0759                 1.8284
 IR Inten    --     82.8820                81.6881                21.2382

                     22                     23                     24
                      A                      A                      A
 Frequencies --   1051.5397              1101.2132              1120.8381
 Red. masses --      2.0178                 1.6770                 2.2878
 Frc consts  --      1.3145                 1.1982                 1.6934
 IR Inten    --     11.4555                 6.2304                 8.6035

                     25                     26                     27
                      A                      A                      A
 Frequencies --   1146.8179              1160.8617              1180.1479
 Red. masses --      1.8155                 1.1997                 1.8090
 Frc consts  --      1.4068                 0.9525                 1.4845
 IR Inten    --     18.8755                 1.8709                 2.3435

                     28                     29                     30
                      A                      A                      A
 Frequencies --   1181.5773              1208.5366              1215.4305
 Red. masses --      1.4505                 1.8833                 1.7877
 Frc consts  --      1.1931                 1.6207                 1.5560
 IR Inten    --      5.9635                 0.8839                11.0870

                     31                     32                     33
                      A                      A                      A
 Frequencies --   1258.4572              1272.5829              1318.7274
 Red. masses --      1.5246                 1.4667                 2.2932
 Frc consts  --      1.4226                 1.3995                 2.3497
 IR Inten    --      5.0207                 1.6984                11.6023

                     34                     35                     36
                      A                      A                      A
 Frequencies --   1326.5347              1352.0913              1362.2946
 Red. masses --      2.0177                 1.4803                 1.4462
 Frc consts  --      2.0919                 1.5945                 1.5813
 IR Inten    --      0.1358                 3.3231                 3.0751

                     37                     38                     39
                      A                      A                      A
 Frequencies --   1404.5167              1483.8626              1486.8581
 Red. masses --      1.4134                 1.0534                 1.0518
 Frc consts  --      1.6427                 1.3666                 1.3700
 IR Inten    --     14.7084                 3.3993                 3.5513

                     40                     41                     42
                      A                      A                      A
 Frequencies --   1521.4016              1523.6741              3005.9917
 Red. masses --      1.0985                 1.1002                 1.0555
 Frc consts  --      1.4981                 1.5049                 5.6192
 IR Inten    --      0.9579                 0.6111                93.6698

                     43                     44                     45
                      A                      A                      A
 Frequencies --   3009.7109              3036.2951              3048.2516
 Red. masses --      1.0548                 1.0360                 1.1102
 Frc consts  --      5.6294                 5.6275                 6.0777
 IR Inten    --     73.4892                16.3231                39.4166

                     46                     47                     48
                      A                      A                      A
 Frequencies --   3052.8388              3081.2727              3102.3248
 Red. masses --      1.1111                 1.0882                 1.0905
 Frc consts  --      6.1013                 6.0873                 6.1835
 IR Inten    --     31.1140                40.0262                17.5869

                     49                     50                     51
                      A                      A                      A
 Frequencies --   3103.0041              3109.6231              3127.6320
 Red. masses --      1.0981                 1.0915                 1.1009
 Frc consts  --      6.2294                 6.2183                 6.3448
 IR Inten    --     36.2690                33.6060                 9.8092

 - Thermochemistry -
 -------------------
 Temperature   298.150 Kelvin.  Pressure   1.00000 Atm.
 Atom     1 has atomic number  6 and mass  12.00000

 Molecular mass:   126.06808 amu.
 Principal axes and moments of inertia in atomic units:
                           1         2         3
     Eigenvalues --   619.904551056.634331364.17668
           X            0.99948   0.03116   0.00826
           Y           -0.03136   0.99919   0.02518
           Z           -0.00747  -0.02543   0.99965
 This molecule is an asymmetric top.
 Rotational symmetry number  1.
 Warning -- assumption of classical behavior for rotation
           may cause significant error
 Rotational temperatures (Kelvin)      0.13972     0.08197     0.06349
 Rotational constants (GHZ):           2.91132     1.70801     1.32295
 Zero-point vibrational energy     419357.6 (Joules/Mol)
                                  100.22887 (Kcal/Mol)
 Warning -- explicit consideration of   9 degrees of freedom as
           vibrations may cause significant error
 Vibrational temperatures:    167.86   289.46   310.55   342.63   422.86
          (Kelvin)            495.05   546.23   648.93   868.73  1002.85
                             1117.93  1174.07  1244.80  1272.94  1314.72
                             1359.16  1384.81  1410.53  1453.63  1467.05
                             1497.31  1512.93  1584.40  1612.63  1650.01
                             1670.22  1697.97  1700.02  1738.81  1748.73
                             1810.64  1830.96  1897.35  1908.59  1945.36
                             1960.04  2020.78  2134.94  2139.25  2188.95
                             2192.22  4324.95  4330.30  4368.55  4385.75
                             4392.35  4433.26  4463.55  4464.53  4474.05
                             4499.96

 Zero-point correction=                           0.159725 (Hartree/Particle)
 Thermal correction to Energy=                    0.167354
 Thermal correction to Enthalpy=                  0.168299
 Thermal correction to Gibbs Free Energy=         0.127847
 Sum of electronic and zero-point Energies=           -422.973693
 Sum of electronic and thermal Energies=              -422.966064
 Sum of electronic and thermal Enthalpies=            -422.965119
 Sum of electronic and thermal Free Energies=         -423.005571

                     E (Thermal)             CV                S
                      KCal/Mol        Cal/Mol-Kelvin    Cal/Mol-Kelvin
 Total                  105.016             29.945             85.137
 Electronic               0.000              0.000              0.000
 Translational            0.889              2.981             40.409
 Rotational               0.889              2.981             28.282
 Vibrational            103.239             23.983             16.446
 Vibration     1          0.608              1.936              3.155
 Vibration     2          0.638              1.838              2.122
 Vibration     3          0.645              1.817              1.994
 Vibration     4          0.656              1.782              1.817
 Vibration     5          0.689              1.685              1.451
 Vibration     6          0.723              1.587              1.193
 Vibration     7          0.750              1.514              1.041
 Vibration     8          0.810              1.359              0.793
 Vibration     9          0.962              1.024              0.443

 Optimization completed.
    -- Stationary point found.
 Normal termination of Gaussian 09 at Mon Jan 27 19:29:07 2020.
