 Gaussian 09, Revision D.01,
 Gaussian 09:  ES64L-G09RevD.01 24-Apr-2013

 -----------------------------
 # b3lyp 6-31G(2df,p) opt Freq
 -----------------------------

 -----
 titel
 -----
 Symbolic Z-matrix:
 Charge =  0 Multiplicity = 1

 SCF Done:  E(RB3LYP) =  -423.148165352     A.U. after   13 cycles
 Optimization completed.
    -- Stationary point found.
 Normal termination of Gaussian 09 at Mon Jan 27 16:20:39 2020.

 ----------------------------------------------------------------------
 #N Geom=AllCheck Guess=TCheck SCRF=Check GenChk RB3LYP/6-31G(2df,p) Fr
 eq
 ----------------------------------------------------------------------

 Structure from the checkpoint file:  "/scratch/puck/g09_2371653c-8cc2-4d8a-942e-ce97843944a1/Gau-39449.chk"
 -----
 titel
 -----
 Charge =  0 Multiplicity = 1

                         Standard orientation:
 ---------------------------------------------------------------------
 Center     Atomic      Atomic             Coordinates (Angstroms)
 Number     Number       Type             X           Y           Z
 ---------------------------------------------------------------------
      1          6           0       -1.878309   -0.937236   -0.717600
      2          6           0       -0.977992    0.048046    0.036652
      3          8           0       -1.715201    1.193917    0.430835
      4          6           0       -0.211763   -0.643916    1.213510
      5          6           0        1.163185   -0.963388    0.632558
      6          6           0        1.947224    0.221365    0.103542
      7          8           0        1.084082    1.346036   -0.061261
      8          6           0        0.181919    0.509654   -0.854373
      9          6           0        1.201105   -0.646257   -0.858579
     10          1           0       -2.682504   -1.290790   -0.061176
     11          1           0       -2.336245   -0.454068   -1.585920
     12          1           0       -1.320339   -1.816011   -1.055374
     13          1           0       -2.438465    0.902538    0.995223
     14          1           0       -0.147696    0.052468    2.054019
     15          1           0       -0.724234   -1.549640    1.552507
     16          1           0        1.737460   -1.808609    0.995483
     17          1           0        3.002585    0.403731    0.268082
     18          1           0       -0.105852    1.001059   -1.784916
     19          1           0        1.512027   -1.289912   -1.668778
 ---------------------------------------------------------------------

 SCF Done:  E(RB3LYP) =  -423.148165352     A.U. after    1 cycles

 The electronic state is 1-A.
 Alpha  occ. eigenvalues --  -19.13123 -19.12985 -10.23596 -10.23516 -10.23205
 Alpha  occ. eigenvalues --  -10.19316 -10.19023 -10.17912 -10.17894  -1.05187
 Alpha  occ. eigenvalues --   -1.01381  -0.84529  -0.77301  -0.70455  -0.68782
 Alpha  occ. eigenvalues --   -0.59028  -0.57057  -0.53555  -0.52560  -0.48953
 Alpha  occ. eigenvalues --   -0.46491  -0.44941  -0.42328  -0.40873  -0.39302
 Alpha  occ. eigenvalues --   -0.39174  -0.36852  -0.35747  -0.33819  -0.32888
 Alpha  occ. eigenvalues --   -0.30244  -0.27023  -0.25936  -0.22550
 Alpha virt. eigenvalues --    0.06810   0.08592   0.10251   0.11902   0.12846
 Alpha virt. eigenvalues --    0.14044   0.14824   0.15669   0.16243   0.16421
 Alpha virt. eigenvalues --    0.17889   0.18199   0.19022   0.21947   0.23465

 Mulliken charges:
               1
     1  C   -0.445066
     2  C    0.417022
     3  O   -0.483270
     4  C   -0.300166
     5  C   -0.084809
     6  C    0.095286
     7  O   -0.303528
     8  C    0.066164
     9  C   -0.163928
    10  H    0.107219
    11  H    0.122927
    12  H    0.124089
    13  H    0.275847
    14  H    0.114637
    15  H    0.089985
    16  H    0.086134
    17  H    0.102680
    18  H    0.082525
    19  H    0.096254
 Sum of Mulliken charges =   0.00000

 Dipole moment (field-independent basis, Debye):
    X=             -0.4783    Y=             -2.8245    Z=             -0.0359  Tot=              2.8650
 Quadrupole moment (field-independent basis, Debye-Ang):
   XX=            -47.5513   YY=            -57.8634   ZZ=            -50.5737
   XY=             -0.8946   XZ=             -1.8040   YZ=             -0.4673

  Exact polarizability:  81.612  -0.288  67.511   0.619  -1.415  69.497
 Approx polarizability: 109.283  -0.089 107.708   1.125  -1.108 105.637

                      1                      2                      3
                      A                      A                      A
 Frequencies --    138.6033               224.0195               230.5724
 Red. masses --      3.2887                 1.1991                 1.8321
 Frc consts  --      0.0372                 0.0355                 0.0574
 IR Inten    --      0.1707                79.6705                16.1329

                      4                      5                      6
                      A                      A                      A
 Frequencies --    249.4069               335.9156               360.7239
 Red. masses --      1.2548                 2.8607                 2.9103
 Frc consts  --      0.0460                 0.1902                 0.2231
 IR Inten    --      0.5163                 2.2435                 2.2788

                      7                      8                      9
                      A                      A                      A
 Frequencies --    399.3352               494.6209               518.4719
 Red. masses --      3.1698                 3.3792                 4.5777
 Frc consts  --      0.2978                 0.4871                 0.7250
 IR Inten    --      3.4459                 9.0983                15.1174

                     10                     11                     12
                      A                      A                      A
 Frequencies --    588.3128               703.5000               743.3902
 Red. masses --      3.6017                 4.4180                 2.5297
 Frc consts  --      0.7345                 1.2883                 0.8237
 IR Inten    --      3.0838                 3.1232                 6.3986

                     13                     14                     15
                      A                      A                      A
 Frequencies --    794.9475               803.5481               827.3924
 Red. masses --      2.0103                 1.9519                 3.4379
 Frc consts  --      0.7485                 0.7426                 1.3866
 IR Inten    --      5.5099                 8.7395                 9.0917

                     16                     17                     18
                      A                      A                      A
 Frequencies --    884.0785               907.1396               922.1858
 Red. masses --      1.9752                 1.7479                 1.8345
 Frc consts  --      0.9096                 0.8475                 0.9192
 IR Inten    --      8.7049                 0.3318                 6.9890

                     19                     20                     21
                      A                      A                      A
 Frequencies --    970.8124               975.2884               988.2160
 Red. masses --      2.1322                 1.9290                 2.4911
 Frc consts  --      1.1840                 1.0811                 1.4333
 IR Inten    --     33.1988                 6.1368                26.9368

                     22                     23                     24
                      A                      A                      A
 Frequencies --   1011.7985              1029.3063              1044.6914
 Red. masses --      2.5523                 3.1602                 1.3234
 Frc consts  --      1.5394                 1.9726                 0.8510
 IR Inten    --     23.0810                30.8900                 1.1457

                     25                     26                     27
                      A                      A                      A
 Frequencies --   1071.6818              1106.3836              1115.1246
 Red. masses --      1.8035                 1.9107                 1.7999
 Frc consts  --      1.2204                 1.3780                 1.3187
 IR Inten    --      5.3971                23.9724                25.7142

                     28                     29                     30
                      A                      A                      A
 Frequencies --   1146.3284              1175.9533              1217.3567
 Red. masses --      2.1579                 2.5794                 1.2842
 Frc consts  --      1.6707                 2.1016                 1.1213
 IR Inten    --     47.4912                16.5798                 3.0300

                     31                     32                     33
                      A                      A                      A
 Frequencies --   1244.5771              1265.9665              1271.5237
 Red. masses --      1.7168                 1.7247                 1.4959
 Frc consts  --      1.5668                 1.6286                 1.4250
 IR Inten    --      8.9623                 5.9330                 0.6062

                     34                     35                     36
                      A                      A                      A
 Frequencies --   1286.9268              1333.2104              1390.5008
 Red. masses --      1.7385                 1.5451                 1.8672
 Frc consts  --      1.6964                 1.6181                 2.1271
 IR Inten    --     33.3354                12.1732                11.3452

                     37                     38                     39
                      A                      A                      A
 Frequencies --   1396.0428              1407.8728              1483.7534
 Red. masses --      1.8311                 1.5813                 1.0753
 Frc consts  --      2.1026                 1.8466                 1.3947
 IR Inten    --      7.7457                 2.0765                 2.1894

                     40                     41                     42
                      A                      A                      A
 Frequencies --   1493.1265              1496.1973              3026.8620
 Red. masses --      1.0664                 1.0871                 1.0371
 Frc consts  --      1.4008                 1.4338                 5.5983
 IR Inten    --      0.3606                 5.4699                16.6729

                     43                     44                     45
                      A                      A                      A
 Frequencies --   3049.3337              3093.0198              3098.6033
 Red. masses --      1.0595                 1.0982                 1.1047
 Frc consts  --      5.8044                 6.1902                 6.2492
 IR Inten    --     34.1821                22.9668                13.4152

                     46                     47                     48
                      A                      A                      A
 Frequencies --   3107.4751              3115.3070              3174.9934
 Red. masses --      1.0910                 1.1013                 1.0894
 Frc consts  --      6.2070                 6.2973                 6.4700
 IR Inten    --     20.8959                32.5501                 7.9534

                     49                     50                     51
                      A                      A                      A
 Frequencies --   3185.2363              3213.9198              3814.0840
 Red. masses --      1.0920                 1.0994                 1.0662
 Frc consts  --      6.5274                 6.6907                 9.1384
 IR Inten    --     30.9971                11.9080                15.6195

 - Thermochemistry -
 -------------------
 Temperature   298.150 Kelvin.  Pressure   1.00000 Atm.
 Atom     1 has atomic number  6 and mass  12.00000

 Molecular mass:   126.06808 amu.
 Principal axes and moments of inertia in atomic units:
                           1         2         3
     Eigenvalues --   604.685181081.822631201.95385
           X            0.99984   0.01489   0.00957
           Y           -0.01490   0.99989   0.00071
           Z           -0.00956  -0.00085   0.99995
 This molecule is an asymmetric top.
 Rotational symmetry number  1.
 Warning -- assumption of classical behavior for rotation
           may cause significant error
 Rotational temperatures (Kelvin)      0.14324     0.08006     0.07206
 Rotational constants (GHZ):           2.98460     1.66824     1.50151
 Zero-point vibrational energy     418260.2 (Joules/Mol)
                                   99.96658 (Kcal/Mol)
 Warning -- explicit consideration of  10 degrees of freedom as
           vibrations may cause significant error
 Vibrational temperatures:    199.42   322.31   331.74   358.84   483.31
          (Kelvin)            519.00   574.55   711.65   745.96   846.45
                             1012.18  1069.57  1143.75  1156.13  1190.43
                             1271.99  1305.17  1326.82  1396.78  1403.22
                             1421.82  1455.75  1480.94  1503.08  1541.91
                             1591.84  1604.41  1649.31  1691.93  1751.50
                             1790.67  1821.44  1829.44  1851.60  1918.19
                             2000.62  2008.59  2025.61  2134.79  2148.27
                             2152.69  4354.97  4387.31  4450.16  4458.19
                             4470.96  4482.23  4568.10  4582.84  4624.11
                             5487.61

 Zero-point correction=                           0.159307 (Hartree/Particle)
 Thermal correction to Energy=                    0.167015
 Thermal correction to Enthalpy=                  0.167959
 Thermal correction to Gibbs Free Energy=         0.127720
 Sum of electronic and zero-point Energies=           -422.988858
 Sum of electronic and thermal Energies=              -422.981151
 Sum of electronic and thermal Enthalpies=            -422.980206
 Sum of electronic and thermal Free Energies=         -423.020446

                     E (Thermal)             CV                S
                      KCal/Mol        Cal/Mol-Kelvin    Cal/Mol-Kelvin
 Total                  104.803             31.457             84.690
 Electronic               0.000              0.000              0.000
 Translational            0.889              2.981             40.409
 Rotational               0.889              2.981             28.155
 Vibrational            103.026             25.495             16.127
 Vibration     1          0.614              1.915              2.823
 Vibration     2          0.649              1.804              1.926
 Vibration     3          0.652              1.794              1.874
 Vibration     4          0.662              1.764              1.735
 Vibration     5          0.717              1.604              1.231
 Vibration     6          0.735              1.553              1.119
 Vibration     7          0.765              1.472              0.965
 Vibration     8          0.850              1.262              0.672
 Vibration     9          0.873              1.209              0.614
 Vibration    10          0.946              1.057              0.470

 Normal termination of Gaussian 09 at Mon Jan 27 17:06:31 2020.
 Normal termination of Gaussian 09 at Mon Jan 27 16:11:44 2020.
