 Gaussian 09, Revision D.01,
 Gaussian 09:  ES64L-G09RevD.01 24-Apr-2013

 -----------------------------
 # b3lyp 6-31G(2df,p) opt Freq
 -----------------------------

 -----
 titel
 -----
 Symbolic Z-matrix:
 Charge =  0 Multiplicity = 1

 SCF Done:  E(RB3LYP) =  -423.181788135     A.U. after   14 cycles
 Optimization completed.
    -- Stationary point found.
 Normal termination of Gaussian 09 at Mon Jan 27 11:54:58 2020.

 ----------------------------------------------------------------------
 #N Geom=AllCheck Guess=TCheck SCRF=Check GenChk RB3LYP/6-31G(2df,p) Fr
 eq
 ----------------------------------------------------------------------

 Structure from the checkpoint file:  "/scratch/puck/g09_8855684b-a053-4970-94d6-02bc550e40fd/Gau-96430.chk"
 -----
 titel
 -----
 Charge =  0 Multiplicity = 1

                         Standard orientation:
 ---------------------------------------------------------------------
 Center     Atomic      Atomic             Coordinates (Angstroms)
 Number     Number       Type             X           Y           Z
 ---------------------------------------------------------------------
      1          6           0       -2.367514    0.106331    0.325249
      2          8           0       -1.824742   -0.622239   -0.787482
      3          6           0       -0.934112    0.123630    0.037328
      4          6           0       -0.153239    1.312021   -0.546846
      5          6           0        1.263366    0.977019   -0.030277
      6          6           0        1.840246   -0.237957   -0.792743
      7          6           0        1.017957   -1.407783   -0.170582
      8          6           0        0.133406   -0.637091    0.833613
      9          8           0        0.983477    0.429398    1.272952
     10          1           0       -2.982139    0.966631    0.061234
     11          1           0       -2.754826   -0.505489    1.139476
     12          1           0       -0.236575    1.348775   -1.635773
     13          1           0       -0.499003    2.263396   -0.134119
     14          1           0        1.935126    1.828974    0.071223
     15          1           0        1.712558   -0.151031   -1.874556
     16          1           0        2.907122   -0.346823   -0.585777
     17          1           0        0.418466   -1.955256   -0.900238
     18          1           0        1.661879   -2.117574    0.352700
     19          1           0       -0.233146   -1.205896    1.687611
 ---------------------------------------------------------------------

 SCF Done:  E(RB3LYP) =  -423.181788135     A.U. after    1 cycles

 The electronic state is 1-A.
 Alpha  occ. eigenvalues --  -19.15032 -19.13781 -10.24012 -10.23284 -10.23272
 Alpha  occ. eigenvalues --  -10.23048 -10.18571 -10.18321 -10.18074  -1.07258
 Alpha  occ. eigenvalues --   -1.04365  -0.79024  -0.75055  -0.73203  -0.66180
 Alpha  occ. eigenvalues --   -0.60041  -0.57775  -0.55708  -0.52357  -0.49164
 Alpha  occ. eigenvalues --   -0.46314  -0.45356  -0.44407  -0.41322  -0.39270
 Alpha  occ. eigenvalues --   -0.37195  -0.36436  -0.35350  -0.34775  -0.33366
 Alpha  occ. eigenvalues --   -0.32700  -0.28692  -0.27437  -0.24875
 Alpha virt. eigenvalues --    0.07529   0.08420   0.10717   0.11712   0.13296
 Alpha virt. eigenvalues --    0.14122   0.14331   0.15333   0.16408   0.16782
 Alpha virt. eigenvalues --    0.17914   0.18541   0.19947   0.20363   0.21344

 Mulliken charges:
               1
     1  C   -0.268173
     2  O   -0.284266
     3  C    0.473166
     4  C   -0.319312
     5  C    0.076250
     6  C   -0.220131
     7  C   -0.223536
     8  C   -0.020890
     9  O   -0.263749
    10  H    0.114382
    11  H    0.114793
    12  H    0.115482
    13  H    0.110490
    14  H    0.078983
    15  H    0.103943
    16  H    0.106440
    17  H    0.123352
    18  H    0.103443
    19  H    0.079334
 Sum of Mulliken charges =   0.00000

 Dipole moment (field-independent basis, Debye):
    X=              0.1151    Y=              0.6194    Z=             -0.1105  Tot=              0.6397
 Quadrupole moment (field-independent basis, Debye-Ang):
   XX=            -51.8130   YY=            -51.4373   ZZ=            -55.6395
   XY=             -1.9860   XZ=             -5.0589   YZ=             -3.1263

  Exact polarizability:  84.210  -0.920  71.311  -4.660  -3.212  64.253
 Approx polarizability: 111.340   2.167 103.940  -2.513  -0.124 103.731

                      1                      2                      3
                      A                      A                      A
 Frequencies --     98.7340               223.9927               277.8892
 Red. masses --      3.1125                 2.2562                 2.5891
 Frc consts  --      0.0179                 0.0667                 0.1178
 IR Inten    --      2.3993                 3.0752                 2.3892

                      4                      5                      6
                      A                      A                      A
 Frequencies --    339.9982               391.8338               449.8524
 Red. masses --      3.0243                 2.0995                 3.3628
 Frc consts  --      0.2060                 0.1899                 0.4010
 IR Inten    --      2.0633                 2.7292                 2.1233

                      7                      8                      9
                      A                      A                      A
 Frequencies --    515.6010               556.5654               679.1179
 Red. masses --      4.4396                 5.0900                 3.7246
 Frc consts  --      0.6954                 0.9290                 1.0121
 IR Inten    --      4.6140                 9.2380                 3.1884

                     10                     11                     12
                      A                      A                      A
 Frequencies --    778.3183               815.5556               824.4642
 Red. masses --      3.0456                 2.4439                 1.9216
 Frc consts  --      1.0870                 0.9577                 0.7696
 IR Inten    --      5.9883                 1.7659                 9.0618

                     13                     14                     15
                      A                      A                      A
 Frequencies --    836.3292               877.0842               890.6514
 Red. masses --      3.5926                 2.5322                 2.3249
 Frc consts  --      1.4805                 1.1477                 1.0866
 IR Inten    --     19.9254                 4.7691                22.1512

                     16                     17                     18
                      A                      A                      A
 Frequencies --    928.1462               940.5573               946.2293
 Red. masses --      2.9615                 1.9271                 2.2756
 Frc consts  --      1.5031                 1.0045                 1.2004
 IR Inten    --     18.4587                 3.9985                18.4746

                     19                     20                     21
                      A                      A                      A
 Frequencies --    971.0857               999.4396              1023.5255
 Red. masses --      3.5273                 2.2183                 1.8773
 Frc consts  --      1.9598                 1.3055                 1.1587
 IR Inten    --      1.7038                 1.4854                 8.3631

                     22                     23                     24
                      A                      A                      A
 Frequencies --   1034.1783              1080.5066              1116.0480
 Red. masses --      4.9877                 1.9863                 1.2211
 Frc consts  --      3.1430                 1.3663                 0.8961
 IR Inten    --     44.8649                 8.4742                 1.0828

                     25                     26                     27
                      A                      A                      A
 Frequencies --   1127.4962              1158.2874              1184.0174
 Red. masses --      1.2882                 1.3096                 1.2947
 Frc consts  --      0.9649                 1.0352                 1.0694
 IR Inten    --      3.1474                 1.0182                 4.7248

                     28                     29                     30
                      A                      A                      A
 Frequencies --   1205.1468              1231.2376              1241.6150
 Red. masses --      1.9405                 1.2197                 1.6214
 Frc consts  --      1.6606                 1.0894                 1.4727
 IR Inten    --     13.5375                 0.7276                 3.9408

                     31                     32                     33
                      A                      A                      A
 Frequencies --   1267.1233              1278.5640              1303.9630
 Red. masses --      1.3599                 1.5210                 1.6330
 Frc consts  --      1.2865                 1.4650                 1.6360
 IR Inten    --      0.9003                 1.2948                10.8004

                     34                     35                     36
                      A                      A                      A
 Frequencies --   1321.9878              1337.0206              1352.1977
 Red. masses --      1.4618                 1.5152                 1.4845
 Frc consts  --      1.5052                 1.5958                 1.5992
 IR Inten    --      0.0908                11.8391                 3.2102

                     37                     38                     39
                      A                      A                      A
 Frequencies --   1437.2247              1476.6539              1485.6753
 Red. masses --      2.2640                 1.1060                 1.0867
 Frc consts  --      2.7553                 1.4210                 1.4133
 IR Inten    --     11.0887                 1.6918                 2.8822

                     40                     41                     42
                      A                      A                      A
 Frequencies --   1505.4359              1535.2428              3062.1447
 Red. masses --      1.1022                 1.5174                 1.0596
 Frc consts  --      1.4718                 2.1073                 5.8540
 IR Inten    --      4.7286                 4.1365                14.5274

                     43                     44                     45
                      A                      A                      A
 Frequencies --   3066.3954              3075.8965              3078.0417
 Red. masses --      1.0595                 1.0506                 1.0611
 Frc consts  --      5.8698                 5.8566                 5.9231
 IR Inten    --     25.0869                29.4849                25.1185

                     46                     47                     48
                      A                      A                      A
 Frequencies --   3108.0102              3114.6257              3124.1163
 Red. masses --      1.1061                 1.1041                 1.0898
 Frc consts  --      6.2952                 6.3106                 6.2671
 IR Inten    --      7.2651                15.6136                47.7315

                     49                     50                     51
                      A                      A                      A
 Frequencies --   3127.3317              3132.3248              3161.7474
 Red. masses --      1.0943                 1.1039                 1.1193
 Frc consts  --      6.3055                 6.3815                 6.5924
 IR Inten    --      2.3668                33.5489                23.9425

 - Thermochemistry -
 -------------------
 Temperature   298.150 Kelvin.  Pressure   1.00000 Atm.
 Atom     1 has atomic number  6 and mass  12.00000

 Molecular mass:   126.06808 amu.
 Principal axes and moments of inertia in atomic units:
                           1         2         3
     Eigenvalues --   573.671121152.436521241.06502
           X            0.99867  -0.03487  -0.03808
           Y            0.02965   0.99106  -0.13007
           Z            0.04228   0.12877   0.99077
 This molecule is an asymmetric top.
 Rotational symmetry number  1.
 Warning -- assumption of classical behavior for rotation
           may cause significant error
 Rotational temperatures (Kelvin)      0.15098     0.07516     0.06979
 Rotational constants (GHZ):           3.14595     1.56602     1.45419
 Zero-point vibrational energy     425243.9 (Joules/Mol)
                                  101.63573 (Kcal/Mol)
 Warning -- explicit consideration of   8 degrees of freedom as
           vibrations may cause significant error
 Vibrational temperatures:    142.06   322.28   399.82   489.18   563.76
          (Kelvin)            647.24   741.83   800.77   977.10  1119.83
                             1173.40  1186.22  1203.29  1261.93  1281.45
                             1335.39  1353.25  1361.41  1397.17  1437.97
                             1472.62  1487.95  1554.61  1605.74  1622.21
                             1666.52  1703.53  1733.94  1771.47  1786.40
                             1823.11  1839.57  1876.11  1902.04  1923.67
                             1945.51  2067.84  2124.57  2137.55  2165.98
                             2208.87  4405.74  4411.85  4425.52  4428.61
                             4471.73  4481.25  4494.90  4499.53  4506.71
                             4549.04

 Zero-point correction=                           0.161967 (Hartree/Particle)
 Thermal correction to Energy=                    0.168927
 Thermal correction to Enthalpy=                  0.169872
 Thermal correction to Gibbs Free Energy=         0.130691
 Sum of electronic and zero-point Energies=           -423.019821
 Sum of electronic and thermal Energies=              -423.012861
 Sum of electronic and thermal Enthalpies=            -423.011917
 Sum of electronic and thermal Free Energies=         -423.051097

                     E (Thermal)             CV                S
                      KCal/Mol        Cal/Mol-Kelvin    Cal/Mol-Kelvin
 Total                  106.003             28.571             82.461
 Electronic               0.000              0.000              0.000
 Translational            0.889              2.981             40.409
 Rotational               0.889              2.981             28.197
 Vibrational            104.226             22.610             13.856
 Vibration     1          0.604              1.950              3.479
 Vibration     2          0.649              1.805              1.927
 Vibration     3          0.679              1.714              1.547
 Vibration     4          0.720              1.596              1.212
 Vibration     5          0.759              1.488              0.993
 Vibration     6          0.809              1.361              0.796
 Vibration     7          0.871              1.215              0.620
 Vibration     8          0.912              1.125              0.531

 Optimization completed.
    -- Stationary point found.
 Normal termination of Gaussian 09 at Mon Jan 27 12:40:08 2020.
