 Gaussian 09, Revision D.01,
 Gaussian 09:  ES64L-G09RevD.01 24-Apr-2013

 -----------------------------
 # b3lyp 6-31G(2df,p) opt Freq
 -----------------------------

 -----
 titel
 -----
 Symbolic Z-matrix:
 Charge =  0 Multiplicity = 1

 SCF Done:  E(RB3LYP) =  -423.102653522     A.U. after   12 cycles
 Optimization completed.
    -- Stationary point found.
 Normal termination of Gaussian 09 at Tue Jan 28 12:10:39 2020.

 ----------------------------------------------------------------------
 #N Geom=AllCheck Guess=TCheck SCRF=Check GenChk RB3LYP/6-31G(2df,p) Fr
 eq
 ----------------------------------------------------------------------

 Structure from the checkpoint file:  "/scratch/puck/g09_9543684b-f991-475c-b60f-d757321d08e4/Gau-117634.chk"
 -----
 titel
 -----
 Charge =  0 Multiplicity = 1

                         Standard orientation:
 ---------------------------------------------------------------------
 Center     Atomic      Atomic             Coordinates (Angstroms)
 Number     Number       Type             X           Y           Z
 ---------------------------------------------------------------------
      1          6           0        3.458173   -0.132524   -0.103915
      2          6           0        2.054678    0.442820   -0.134074
      3          8           0        1.129737   -0.626776    0.094477
      4          6           0       -0.169052   -0.237037    0.117105
      5          6           0       -1.372933   -0.897895    0.746229
      6          6           0       -2.151745   -0.883990   -0.566567
      7          6           0       -1.234270    0.301384   -0.961716
      8          8           0       -1.623738    1.362297   -0.051380
      9          6           0       -1.031545    0.606997    0.998845
     10          1           0        3.664593   -0.593439    0.866170
     11          1           0        3.579430   -0.894834   -0.878633
     12          1           0        4.194328    0.658123   -0.276632
     13          1           0        1.920404    1.210779    0.640224
     14          1           0        1.841482    0.910856   -1.105713
     15          1           0       -1.392456   -1.616344    1.555473
     16          1           0       -1.944234   -1.775471   -1.163698
     17          1           0       -3.224397   -0.669071   -0.547941
     18          1           0       -1.095268    0.636164   -1.987417
     19          1           0       -0.911709    1.050540    1.977952
 ---------------------------------------------------------------------

 SCF Done:  E(RB3LYP) =  -423.102653522     A.U. after    1 cycles

 The electronic state is 1-A.
 Alpha  occ. eigenvalues --  -19.16008 -19.13545 -10.23928 -10.23802 -10.23502
 Alpha  occ. eigenvalues --  -10.23328 -10.19167 -10.18609 -10.18100  -1.06780
 Alpha  occ. eigenvalues --   -1.04339  -0.85226  -0.76145  -0.72470  -0.64228
 Alpha  occ. eigenvalues --   -0.62474  -0.56297  -0.54575  -0.53626  -0.48567
 Alpha  occ. eigenvalues --   -0.46214  -0.45754  -0.43843  -0.40730  -0.39268
 Alpha  occ. eigenvalues --   -0.38910  -0.37760  -0.36313  -0.35245  -0.33288
 Alpha  occ. eigenvalues --   -0.32023  -0.25856  -0.25506  -0.22522
 Alpha virt. eigenvalues --    0.08029   0.09694   0.11225   0.11313   0.12282
 Alpha virt. eigenvalues --    0.13485   0.14863   0.15259   0.16229   0.16668
 Alpha virt. eigenvalues --    0.17285   0.17700   0.19299   0.20106   0.20808

 Mulliken charges:
               1
     1  C   -0.388782
     2  C   -0.059257
     3  O   -0.285761
     4  C    0.369384
     5  C   -0.184462
     6  C   -0.227832
     7  C   -0.015905
     8  O   -0.280554
     9  C   -0.013105
    10  H    0.129084
    11  H    0.129567
    12  H    0.119194
    13  H    0.103357
    14  H    0.102138
    15  H    0.096354
    16  H    0.107916
    17  H    0.101554
    18  H    0.087235
    19  H    0.109876
 Sum of Mulliken charges =   0.00000

 Dipole moment (field-independent basis, Debye):
    X=              1.2344    Y=             -0.4130    Z=             -0.0406  Tot=              1.3023
 Quadrupole moment (field-independent basis, Debye-Ang):
   XX=            -52.4818   YY=            -56.1199   ZZ=            -49.1517
   XY=              4.9432   XZ=             -0.1460   YZ=              0.4304

  Exact polarizability:  88.452   4.113  68.093   0.897   0.330  70.903
 Approx polarizability: 109.976   1.316 107.769   0.070   0.078 107.320

                      1                      2                      3
                      A                      A                      A
 Frequencies --     61.8607                91.3350               120.7509
 Red. masses --      2.4687                 2.1271                 3.9097
 Frc consts  --      0.0056                 0.0105                 0.0336
 IR Inten    --      0.0001                 1.8378                 1.4748

                      4                      5                      6
                      A                      A                      A
 Frequencies --    237.9890               312.7923               324.1771
 Red. masses --      1.1819                 3.2698                 3.0233
 Frc consts  --      0.0394                 0.1885                 0.1872
 IR Inten    --      0.0693                 2.0107                 2.0065

                      7                      8                      9
                      A                      A                      A
 Frequencies --    376.8091               490.8810               551.1938
 Red. masses --      3.5840                 2.5621                 3.8734
 Frc consts  --      0.2998                 0.3637                 0.6933
 IR Inten    --      2.6790                 0.5840                 5.3228

                     10                     11                     12
                      A                      A                      A
 Frequencies --    648.7192               731.6292               777.2427
 Red. masses --      3.1823                 5.2943                 4.3610
 Frc consts  --      0.7891                 1.6697                 1.5522
 IR Inten    --     16.7974                 3.5229                 6.3206

                     13                     14                     15
                      A                      A                      A
 Frequencies --    813.4306               820.3355               852.5271
 Red. masses --      1.6448                 1.4464                 1.6491
 Frc consts  --      0.6412                 0.5735                 0.7062
 IR Inten    --      4.5838                 1.8955                 5.8253

                     16                     17                     18
                      A                      A                      A
 Frequencies --    918.0240               925.0556               934.3160
 Red. masses --      2.7037                 2.4911                 1.6010
 Frc consts  --      1.3425                 1.2560                 0.8234
 IR Inten    --     21.2374                10.1854                 2.7700

                     19                     20                     21
                      A                      A                      A
 Frequencies --    964.8215               971.0549              1031.1848
 Red. masses --      1.5608                 2.3264                 3.0088
 Frc consts  --      0.8560                 1.2925                 1.8851
 IR Inten    --      7.8349                15.7495                29.9472

                     22                     23                     24
                      A                      A                      A
 Frequencies --   1051.0370              1067.9609              1073.9782
 Red. masses --      3.2968                 2.7176                 3.5158
 Frc consts  --      2.1457                 1.8262                 2.3893
 IR Inten    --     39.5530                22.6007                20.9263

                     25                     26                     27
                      A                      A                      A
 Frequencies --   1098.0654              1133.1650              1145.2494
 Red. masses --      1.9548                 1.3656                 2.3064
 Frc consts  --      1.3887                 1.0331                 1.7823
 IR Inten    --     20.5576                 2.6104                16.3580

                     28                     29                     30
                      A                      A                      A
 Frequencies --   1153.7291              1184.3696              1214.1038
 Red. masses --      2.0371                 1.5420                 1.3371
 Frc consts  --      1.5976                 1.2744                 1.1612
 IR Inten    --     10.3683                 5.2919                 0.4670

                     31                     32                     33
                      A                      A                      A
 Frequencies --   1233.7349              1267.9974              1293.8838
 Red. masses --      2.3231                 1.7090                 1.1081
 Frc consts  --      2.0834                 1.6190                 1.0930
 IR Inten    --     69.9139                26.0450                 1.8041

                     34                     35                     36
                      A                      A                      A
 Frequencies --   1313.0287              1393.5646              1415.8434
 Red. masses --      1.6406                 1.3010                 1.4404
 Frc consts  --      1.6665                 1.4886                 1.7013
 IR Inten    --     19.5188                42.8443                71.7209

                     37                     38                     39
                      A                      A                      A
 Frequencies --   1473.5537              1482.9969              1495.2372
 Red. masses --      1.6484                 1.0400                 1.6702
 Frc consts  --      2.1088                 1.3477                 2.2001
 IR Inten    --     45.8561                 4.4430                48.8727

                     40                     41                     42
                      A                      A                      A
 Frequencies --   1498.9450              1526.3314              2998.5147
 Red. masses --      1.0529                 1.1512                 1.0561
 Frc consts  --      1.3938                 1.5801                 5.5945
 IR Inten    --      3.7058                 1.4365                32.2455

                     43                     44                     45
                      A                      A                      A
 Frequencies --   3034.1011              3045.8840              3053.1288
 Red. masses --      1.1064                 1.0348                 1.0570
 Frc consts  --      6.0007                 5.6561                 5.8052
 IR Inten    --     29.2166                17.9052                44.0041

                     46                     47                     48
                      A                      A                      A
 Frequencies --   3116.5447              3120.6341              3123.2081
 Red. masses --      1.1080                 1.1014                 1.1029
 Frc consts  --      6.3406                 6.3194                 6.3387
 IR Inten    --     20.9018                21.8462                24.7576

                     49                     50                     51
                      A                      A                      A
 Frequencies --   3146.4251              3204.5523              3215.9486
 Red. masses --      1.0924                 1.0924                 1.0962
 Frc consts  --      6.3720                 6.6097                 6.6798
 IR Inten    --     29.6662                 4.9762                12.1292

 - Thermochemistry -
 -------------------
 Temperature   298.150 Kelvin.  Pressure   1.00000 Atm.
 Atom     1 has atomic number  6 and mass  12.00000

 Molecular mass:   126.06808 amu.
 Principal axes and moments of inertia in atomic units:
                           1         2         3
     Eigenvalues --   445.948171733.047111824.99169
           X            0.99979   0.02068   0.00110
           Y           -0.02070   0.99952   0.02321
           Z           -0.00062  -0.02323   0.99973
 This molecule is an asymmetric top.
 Rotational symmetry number  1.
 Warning -- assumption of classical behavior for rotation
           may cause significant error
 Rotational temperatures (Kelvin)      0.19422     0.04998     0.04746
 Rotational constants (GHZ):           4.04698     1.04137     0.98890
 Zero-point vibrational energy     415892.8 (Joules/Mol)
                                   99.40076 (Kcal/Mol)
 Warning -- explicit consideration of   9 degrees of freedom as
           vibrations may cause significant error
 Vibrational temperatures:     89.00   131.41   173.73   342.41   450.04
          (Kelvin)            466.42   542.14   706.27   793.04   933.36
                             1052.65  1118.28  1170.34  1180.28  1226.59
                             1320.83  1330.95  1344.27  1388.16  1397.13
                             1483.64  1512.21  1536.56  1545.21  1579.87
                             1630.37  1647.76  1659.96  1704.04  1746.82
                             1775.07  1824.36  1861.61  1889.15  2005.03
                             2037.08  2120.11  2133.70  2151.31  2156.64
                             2196.05  4314.19  4365.39  4382.34  4392.77
                             4484.01  4489.89  4493.59  4527.00  4610.63
                             4627.03

 Zero-point correction=                           0.158405 (Hartree/Particle)
 Thermal correction to Energy=                    0.166639
 Thermal correction to Enthalpy=                  0.167583
 Thermal correction to Gibbs Free Energy=         0.124904
 Sum of electronic and zero-point Energies=           -422.944248
 Sum of electronic and thermal Energies=              -422.936015
 Sum of electronic and thermal Enthalpies=            -422.935070
 Sum of electronic and thermal Free Energies=         -422.977749

                     E (Thermal)             CV                S
                      KCal/Mol        Cal/Mol-Kelvin    Cal/Mol-Kelvin
 Total                  104.568             31.175             89.825
 Electronic               0.000              0.000              0.000
 Translational            0.889              2.981             40.409
 Rotational               0.889              2.981             28.735
 Vibrational            102.790             25.213             20.682
 Vibration     1          0.597              1.973              4.397
 Vibration     2          0.602              1.955              3.631
 Vibration     3          0.609              1.932              3.088
 Vibration     4          0.656              1.782              1.818
 Vibration     5          0.701              1.649              1.348
 Vibration     6          0.709              1.627              1.289
 Vibration     7          0.747              1.520              1.052
 Vibration     8          0.847              1.270              0.681
 Vibration     9          0.907              1.137              0.542

 Normal termination of Gaussian 09 at Tue Jan 28 12:53:37 2020.
