 Gaussian 09, Revision D.01,
 Gaussian 09:  ES64L-G09RevD.01 24-Apr-2013

 ----------------------------------------------------
 # b3lyp 6-31G(2df,p) opt(MaxCycles=100,CalcAll) Freq
 ----------------------------------------------------

 -----
 titel
 -----
 Symbolic Z-matrix:
 Charge =  0 Multiplicity = 1

 SCF Done:  E(RB3LYP) =  -423.177215206     A.U. after   14 cycles
 SCF Done:  E(RB3LYP) =  -423.177215302     A.U. after    6 cycles
 Optimization completed.
    -- Stationary point found.
 Normal termination of Gaussian 09 at Fri Jan 31 18:02:03 2020.

 ----------------------------------------------------------------------
 #N Geom=AllCheck Guess=TCheck SCRF=Check GenChk RB3LYP/6-31G(2df,p) Fr
 eq
 ----------------------------------------------------------------------

 Structure from the checkpoint file:  "/scratch/puck/g09_29055e88-7149-4bc5-9360-8e93d000f268/Gau-177169.chk"
 -----
 titel
 -----
 Charge =  0 Multiplicity = 1

                         Standard orientation:
 ---------------------------------------------------------------------
 Center     Atomic      Atomic             Coordinates (Angstroms)
 Number     Number       Type             X           Y           Z
 ---------------------------------------------------------------------
      1          8           0       -2.930567    0.299170   -0.353593
      2          6           0       -1.939177   -0.521941    0.249577
      3          6           0       -0.615118   -0.269058   -0.459387
      4          6           0       -0.114450    1.198305   -0.299791
      5          6           0        1.230728    0.972631    0.462559
      6          8           0        0.890477   -0.139267    1.304263
      7          6           0        0.559969   -1.039986    0.238804
      8          6           0        1.777218   -0.921805   -0.671244
      9          6           0        2.199537    0.334076   -0.528480
     10          1           0       -3.747495    0.196461    0.143148
     11          1           0       -1.820508   -0.290879    1.318884
     12          1           0       -2.206704   -1.588149    0.163656
     13          1           0       -0.717160   -0.556636   -1.509110
     14          1           0        0.019320    1.716512   -1.251106
     15          1           0       -0.811735    1.778513    0.308159
     16          1           0        1.592262    1.809841    1.058262
     17          1           0        0.314221   -2.027152    0.631336
     18          1           0        2.125159   -1.684342   -1.354560
     19          1           0        2.981112    0.853281   -1.066260
 ---------------------------------------------------------------------

 SCF Done:  E(RB3LYP) =  -423.177215302     A.U. after    1 cycles

 The electronic state is 1-A.
 Alpha  occ. eigenvalues --  -19.13219 -19.13197 -10.23206 -10.23063 -10.22233
 Alpha  occ. eigenvalues --  -10.18489 -10.18155 -10.18066 -10.17641  -1.04470
 Alpha  occ. eigenvalues --   -1.01204  -0.80222  -0.76437  -0.73514  -0.66031
 Alpha  occ. eigenvalues --   -0.57727  -0.56237  -0.54843  -0.52097  -0.50974
 Alpha  occ. eigenvalues --   -0.47423  -0.44542  -0.42120  -0.40532  -0.38980
 Alpha  occ. eigenvalues --   -0.38125  -0.35876  -0.33979  -0.33567  -0.32605
 Alpha  occ. eigenvalues --   -0.31024  -0.26584  -0.25320  -0.24399
 Alpha virt. eigenvalues --    0.01270   0.07807   0.10025   0.12261   0.13216
 Alpha virt. eigenvalues --    0.14204   0.15077   0.15775   0.16152   0.17133
 Alpha virt. eigenvalues --    0.18368   0.19040   0.20411   0.20433   0.21908

 Mulliken charges:
               1
     1  O   -0.424857
     2  C   -0.106333
     3  C    0.043282
     4  C   -0.227652
     5  C    0.017910
     6  O   -0.248869
     7  C   -0.007719
     8  C   -0.083173
     9  C   -0.079272
    10  H    0.285726
    11  H    0.099440
    12  H    0.080264
    13  H    0.077374
    14  H    0.100759
    15  H    0.112214
    16  H    0.078220
    17  H    0.074971
    18  H    0.103889
    19  H    0.103826
 Sum of Mulliken charges =   0.00000

 Dipole moment (field-independent basis, Debye):
    X=             -0.4889    Y=             -0.4205    Z=             -0.4746  Tot=              0.8007
 Quadrupole moment (field-independent basis, Debye-Ang):
   XX=            -48.5911   YY=            -49.7836   ZZ=            -55.8314
   XY=              3.2236   XZ=             -6.5206   YZ=              1.5009

  Exact polarizability:  84.230   3.586  77.404  -5.221   2.031  61.766
 Approx polarizability: 109.272   7.869 125.503  -4.566   3.442  98.812

                      1                      2                      3
                      A                      A                      A
 Frequencies --     98.6138               151.6346               200.2762
 Red. masses --      4.1267                 2.9647                 2.8202
 Frc consts  --      0.0236                 0.0402                 0.0666
 IR Inten    --      0.9448                10.3547                 8.1808

                      4                      5                      6
                      A                      A                      A
 Frequencies --    264.3118               353.8145               376.5873
 Red. masses --      1.1178                 4.9993                 2.1404
 Frc consts  --      0.0460                 0.3687                 0.1788
 IR Inten    --     91.3090                 0.8725                 1.1111

                      7                      8                      9
                      A                      A                      A
 Frequencies --    436.0261               526.2131               612.4681
 Red. masses --      3.3416                 2.2420                 4.2854
 Frc consts  --      0.3743                 0.3658                 0.9471
 IR Inten    --      3.8338                 3.5779                 6.9302

                     10                     11                     12
                      A                      A                      A
 Frequencies --    722.4972               727.8119               810.8404
 Red. masses --      1.7558                 3.7369                 6.4370
 Frc consts  --      0.5400                 1.1663                 2.4935
 IR Inten    --     50.2987                 1.2637                 7.6740

                     13                     14                     15
                      A                      A                      A
 Frequencies --    820.8178               854.6699               874.0813
 Red. masses --      3.3657                 2.6028                 2.7411
 Frc consts  --      1.3360                 1.1202                 1.2339
 IR Inten    --      2.9235                12.0636                 3.7687

                     16                     17                     18
                      A                      A                      A
 Frequencies --    916.4481               921.6199               932.5571
 Red. masses --      2.1338                 2.4155                 2.4008
 Frc consts  --      1.0559                 1.2088                 1.2301
 IR Inten    --     12.6720                 3.6692                27.8395

                     19                     20                     21
                      A                      A                      A
 Frequencies --    940.1440               947.2983               992.6608
 Red. masses --      1.7083                 1.6803                 1.9091
 Frc consts  --      0.8896                 0.8884                 1.1084
 IR Inten    --      8.8152                10.1183                 2.0459

                     22                     23                     24
                      A                      A                      A
 Frequencies --   1039.4965              1064.6246              1069.3521
 Red. masses --      3.5653                 2.0388                 3.8599
 Frc consts  --      2.2699                 1.3615                 2.6006
 IR Inten    --     23.1327                14.2259                31.1883

                     25                     26                     27
                      A                      A                      A
 Frequencies --   1094.7386              1121.0754              1182.6695
 Red. masses --      2.1706                 1.3988                 1.3553
 Frc consts  --      1.5327                 1.0358                 1.1169
 IR Inten    --     49.0919                 3.7285                 8.8788

                     28                     29                     30
                      A                      A                      A
 Frequencies --   1205.6168              1211.6077              1248.0224
 Red. masses --      1.2943                 1.1758                 1.3080
 Frc consts  --      1.1084                 1.0170                 1.2003
 IR Inten    --      3.3206                20.9170                 3.5284

                     31                     32                     33
                      A                      A                      A
 Frequencies --   1264.6605              1268.2098              1292.8914
 Red. masses --      1.1680                 1.2663                 1.4029
 Frc consts  --      1.1006                 1.2000                 1.3816
 IR Inten    --      7.5832                10.2599                14.4511

                     34                     35                     36
                      A                      A                      A
 Frequencies --   1303.1949              1335.5844              1346.6715
 Red. masses --      1.3927                 1.7748                 1.5039
 Frc consts  --      1.3936                 1.8653                 1.6069
 IR Inten    --      9.9566                 8.6476                 4.9130

                     37                     38                     39
                      A                      A                      A
 Frequencies --   1369.3848              1455.2527              1494.3288
 Red. masses --      1.3992                 1.4709                 1.0900
 Frc consts  --      1.5459                 1.8353                 1.4341
 IR Inten    --      1.3620                 6.8266                 1.4145

                     40                     41                     42
                      A                      A                      A
 Frequencies --   1526.1943              1642.7908              2961.3417
 Red. masses --      1.0832                 6.0964                 1.0611
 Frc consts  --      1.4866                 9.6937                 5.4827
 IR Inten    --      4.4973                 0.5871                62.4369

                     43                     44                     45
                      A                      A                      A
 Frequencies --   3007.3350              3073.4969              3078.8145
 Red. masses --      1.0985                 1.0767                 1.0688
 Frc consts  --      5.8536                 5.9925                 5.9690
 IR Inten    --     32.5836                24.0866                22.6781

                     46                     47                     48
                      A                      A                      A
 Frequencies --   3116.1095              3124.0144              3130.4637
 Red. masses --      1.0889                 1.1050                 1.0926
 Frc consts  --      6.2297                 6.3539                 6.3083
 IR Inten    --     41.5306                13.4356                32.8122

                     49                     50                     51
                      A                      A                      A
 Frequencies --   3215.2024              3241.0128              3829.1633
 Red. masses --      1.0860                 1.1089                 1.0664
 Frc consts  --      6.6146                 6.8627                 9.2122
 IR Inten    --      3.8890                 9.2768                19.7193

 - Thermochemistry -
 -------------------
 Temperature   298.150 Kelvin.  Pressure   1.00000 Atm.
 Atom     1 has atomic number  8 and mass  15.99491

 Molecular mass:   126.06808 amu.
 Principal axes and moments of inertia in atomic units:
                           1         2         3
     Eigenvalues --   481.434661476.136371559.77521
           X            0.99968   0.01297  -0.02150
           Y           -0.01247   0.99965   0.02340
           Z            0.02180  -0.02312   0.99949
 This molecule is an asymmetric top.
 Rotational symmetry number  1.
 Warning -- assumption of classical behavior for rotation
           may cause significant error
 Rotational temperatures (Kelvin)      0.17991     0.05868     0.05553
 Rotational constants (GHZ):           3.74867     1.22261     1.15705
 Zero-point vibrational energy     423446.4 (Joules/Mol)
                                  101.20612 (Kcal/Mol)
 Warning -- explicit consideration of   9 degrees of freedom as
           vibrations may cause significant error
 Vibrational temperatures:    141.88   218.17   288.15   380.29   509.06
          (Kelvin)            541.82   627.34   757.10   881.20  1039.51
                             1047.16  1166.62  1180.97  1229.68  1257.61
                             1318.56  1326.00  1341.74  1352.66  1362.95
                             1428.22  1495.60  1531.76  1538.56  1575.08
                             1612.98  1701.60  1734.61  1743.23  1795.62
                             1819.56  1824.67  1860.18  1875.00  1921.61
                             1937.56  1970.24  2093.78  2150.00  2195.85
                             2363.61  4260.70  4326.88  4422.07  4429.72
                             4483.38  4494.75  4504.03  4625.95  4663.09
                             5509.31

 Zero-point correction=                           0.161282 (Hartree/Particle)
 Thermal correction to Energy=                    0.168894
 Thermal correction to Enthalpy=                  0.169838
 Thermal correction to Gibbs Free Energy=         0.129178
 Sum of electronic and zero-point Energies=           -423.015933
 Sum of electronic and thermal Energies=              -423.008322
 Sum of electronic and thermal Enthalpies=            -423.007377
 Sum of electronic and thermal Free Energies=         -423.048037

                     E (Thermal)             CV                S
                      KCal/Mol        Cal/Mol-Kelvin    Cal/Mol-Kelvin
 Total                  105.982             30.235             85.575
 Electronic               0.000              0.000              0.000
 Translational            0.889              2.981             40.409
 Rotational               0.889              2.981             28.496
 Vibrational            104.205             24.273             16.671
 Vibration     1          0.604              1.950              3.482
 Vibration     2          0.619              1.901              2.652
 Vibration     3          0.638              1.839              2.131
 Vibration     4          0.671              1.738              1.633
 Vibration     5          0.730              1.567              1.149
 Vibration     6          0.747              1.520              1.053
 Vibration     7          0.796              1.392              0.839
 Vibration     8          0.881              1.192              0.596
 Vibration     9          0.972              1.005              0.429

 Optimization completed.
    -- Stationary point found.
 Normal termination of Gaussian 09 at Fri Jan 31 18:38:38 2020.
