 Gaussian 09, Revision D.01,
 Gaussian 09:  ES64L-G09RevD.01 24-Apr-2013

 -----------------------------
 # b3lyp 6-31G(2df,p) opt Freq
 -----------------------------

 -----
 titel
 -----
 Symbolic Z-matrix:
 Charge =  0 Multiplicity = 1

 SCF Done:  E(RB3LYP) =  -423.150947296     A.U. after   13 cycles
 Optimization completed.
    -- Stationary point found.
 Normal termination of Gaussian 09 at Mon Jan 27 11:21:04 2020.

 ----------------------------------------------------------------------
 #N Geom=AllCheck Guess=TCheck SCRF=Check GenChk RB3LYP/6-31G(2df,p) Fr
 eq
 ----------------------------------------------------------------------

 Structure from the checkpoint file:  "/scratch/puck/g09_acbb9fa6-c0a2-4dd5-b5b2-d6a9b0987196/Gau-131280.chk"
 -----
 titel
 -----
 Charge =  0 Multiplicity = 1

                         Standard orientation:
 ---------------------------------------------------------------------
 Center     Atomic      Atomic             Coordinates (Angstroms)
 Number     Number       Type             X           Y           Z
 ---------------------------------------------------------------------
      1          6           0        2.546584   -0.043738    0.470047
      2          6           0        2.098894    0.660648   -0.806915
      3          6           0        1.116514   -0.069491    0.043993
      4          8           0        0.490992   -1.281558   -0.390686
      5          6           0       -0.669341   -1.000387    0.434396
      6          6           0       -1.967537   -0.746582   -0.347803
      7          8           0       -2.301775    0.616797   -0.120376
      8          6           0       -1.087906    1.342747    0.033020
      9          6           0       -0.127246    0.403519    0.787990
     10          1           0        3.109959   -0.963960    0.359545
     11          1           0        2.825430    0.562990    1.325885
     12          1           0        2.076062    1.745623   -0.823511
     13          1           0        2.369177    0.198707   -1.750423
     14          1           0       -0.767198   -1.734293    1.239341
     15          1           0       -1.782213   -0.950338   -1.413345
     16          1           0       -2.811712   -1.352781   -0.008096
     17          1           0       -0.666539    1.614112   -0.947377
     18          1           0       -1.322203    2.260969    0.577284
     19          1           0       -0.004277    0.656764    1.840827
 ---------------------------------------------------------------------

 SCF Done:  E(RB3LYP) =  -423.150947296     A.U. after    1 cycles

 The electronic state is 1-A.
 Alpha  occ. eigenvalues --  -19.13843 -19.13820 -10.24349 -10.23773 -10.22897
 Alpha  occ. eigenvalues --  -10.22508 -10.19691 -10.18701 -10.18604  -1.05335
 Alpha  occ. eigenvalues --   -1.02742  -0.84955  -0.76697  -0.73500  -0.63284
 Alpha  occ. eigenvalues --   -0.61101  -0.59298  -0.52765  -0.51987  -0.50797
 Alpha  occ. eigenvalues --   -0.48127  -0.45547  -0.44986  -0.42410  -0.39341
 Alpha  occ. eigenvalues --   -0.38172  -0.36937  -0.36023  -0.35657  -0.31386
 Alpha  occ. eigenvalues --   -0.30151  -0.28785  -0.25392  -0.23514
 Alpha virt. eigenvalues --    0.07107   0.08368   0.09454   0.11131   0.12358
 Alpha virt. eigenvalues --    0.12936   0.14299   0.14968   0.16138   0.16838
 Alpha virt. eigenvalues --    0.17781   0.19168   0.19885   0.21234   0.22448

 Mulliken charges:
               1
     1  C   -0.342378
     2  C   -0.334444
     3  C    0.461376
     4  O   -0.322372
     5  C    0.098120
     6  C   -0.101360
     7  O   -0.249389
     8  C   -0.095562
     9  C   -0.189599
    10  H    0.125887
    11  H    0.114187
    12  H    0.116176
    13  H    0.127405
    14  H    0.087031
    15  H    0.104183
    16  H    0.107860
    17  H    0.097406
    18  H    0.108690
    19  H    0.086783
 Sum of Mulliken charges =   0.00000

 Dipole moment (field-independent basis, Debye):
    X=              0.8703    Y=              0.5834    Z=              1.0458  Tot=              1.4804
 Quadrupole moment (field-independent basis, Debye-Ang):
   XX=            -56.5187   YY=            -52.3802   ZZ=            -51.7306
   XY=              3.8750   XZ=             -0.2289   YZ=             -0.4507

  Exact polarizability:  85.806   4.185  71.967  -0.153  -0.862  66.303
 Approx polarizability: 110.888   4.286 106.339  -1.219   0.215 100.656

                      1                      2                      3
                      A                      A                      A
 Frequencies --     68.6406               153.3863               210.3961
 Red. masses --      3.2234                 3.3632                 2.5321
 Frc consts  --      0.0089                 0.0466                 0.0660
 IR Inten    --      0.7585                 4.8905                 3.1495

                      4                      5                      6
                      A                      A                      A
 Frequencies --    245.6062               332.2023               396.3301
 Red. masses --      2.2518                 2.4010                 3.3406
 Frc consts  --      0.0800                 0.1561                 0.3092
 IR Inten    --      0.9759                 1.3119                 0.8868

                      7                      8                      9
                      A                      A                      A
 Frequencies --    499.1701               540.8903               663.9009
 Red. masses --      3.8194                 3.5732                 5.3513
 Frc consts  --      0.5607                 0.6159                 1.3897
 IR Inten    --      4.1634                 1.6191                 4.6722

                     10                     11                     12
                      A                      A                      A
 Frequencies --    717.8395               761.8642               789.8045
 Red. masses --      2.8995                 1.1077                 2.4979
 Frc consts  --      0.8803                 0.3788                 0.9180
 IR Inten    --      1.1154                 0.8977                 7.4590

                     13                     14                     15
                      A                      A                      A
 Frequencies --    859.6252               871.9269               894.0354
 Red. masses --      2.1662                 1.3280                 2.5551
 Frc consts  --      0.9431                 0.5949                 1.2033
 IR Inten    --     18.7210                 1.0572                16.1496

                     16                     17                     18
                      A                      A                      A
 Frequencies --    920.9672               950.8141               964.0646
 Red. masses --      2.1655                 3.8623                 3.1282
 Frc consts  --      1.0822                 2.0573                 1.7130
 IR Inten    --     12.5112                42.4038                27.7801

                     19                     20                     21
                      A                      A                      A
 Frequencies --    975.6639              1021.8697              1048.0644
 Red. masses --      2.3933                 2.6069                 1.5711
 Frc consts  --      1.3423                 1.6039                 1.0168
 IR Inten    --      3.2990                20.8792                19.3257

                     22                     23                     24
                      A                      A                      A
 Frequencies --   1057.7091              1068.6397              1070.1935
 Red. masses --      2.5084                 2.3377                 1.6254
 Frc consts  --      1.6534                 1.5729                 1.0968
 IR Inten    --     16.0499                17.2304                 3.8296

                     25                     26                     27
                      A                      A                      A
 Frequencies --   1086.6453              1121.8710              1186.2975
 Red. masses --      3.5525                 3.8653                 1.2622
 Frc consts  --      2.4715                 2.8663                 1.0466
 IR Inten    --     53.0558                35.9433                 0.1772

                     28                     29                     30
                      A                      A                      A
 Frequencies --   1204.0057              1214.0783              1223.2381
 Red. masses --      1.8660                 1.3704                 1.4143
 Frc consts  --      1.5938                 1.1901                 1.2468
 IR Inten    --      2.3021                 1.6419                39.2421

                     31                     32                     33
                      A                      A                      A
 Frequencies --   1267.0202              1270.3131              1301.6973
 Red. masses --      1.7188                 1.2472                 1.3754
 Frc consts  --      1.6257                 1.1858                 1.3731
 IR Inten    --     13.2377                 8.9598                 7.6142

                     34                     35                     36
                      A                      A                      A
 Frequencies --   1330.7940              1363.3269              1391.0036
 Red. masses --      1.2822                 1.4003                 1.5486
 Frc consts  --      1.3380                 1.5334                 1.7654
 IR Inten    --      5.2731                 4.0555                11.6294

                     37                     38                     39
                      A                      A                      A
 Frequencies --   1399.4381              1448.9011              1499.6423
 Red. masses --      1.7147                 1.0904                 1.4189
 Frc consts  --      1.9786                 1.3487                 1.8800
 IR Inten    --      3.1992                 1.7713                13.8010

                     40                     41                     42
                      A                      A                      A
 Frequencies --   1503.6079              1519.6423              2984.6038
 Red. masses --      1.2963                 1.0973                 1.0693
 Frc consts  --      1.7267                 1.4930                 5.6123
 IR Inten    --      8.8521                 3.2089                45.9122

                     43                     44                     45
                      A                      A                      A
 Frequencies --   2996.4584              3064.0747              3090.6256
 Red. masses --      1.0681                 1.0880                 1.0927
 Frc consts  --      5.6504                 6.0183                 6.1495
 IR Inten    --     44.1403                22.7064                23.6773

                     46                     47                     48
                      A                      A                      A
 Frequencies --   3093.4798              3115.5178              3126.4808
 Red. masses --      1.0963                 1.0904                 1.0514
 Frc consts  --      6.1814                 6.2360                 6.0552
 IR Inten    --     44.4074                34.1435                14.2249

                     49                     50                     51
                      A                      A                      A
 Frequencies --   3129.5131              3210.3659              3224.2190
 Red. masses --      1.0576                 1.1178                 1.1150
 Frc consts  --      6.1026                 6.7875                 6.8294
 IR Inten    --      3.9535                 0.1464                 9.2181

 - Thermochemistry -
 -------------------
 Temperature   298.150 Kelvin.  Pressure   1.00000 Atm.
 Atom     1 has atomic number  6 and mass  12.00000

 Molecular mass:   126.06808 amu.
 Principal axes and moments of inertia in atomic units:
                           1         2         3
     Eigenvalues --   487.099191358.771941572.99330
           X            0.99975   0.02233   0.00118
           Y           -0.02231   0.99956  -0.01949
           Z           -0.00162   0.01946   0.99981
 This molecule is an asymmetric top.
 Rotational symmetry number  1.
 Warning -- assumption of classical behavior for rotation
           may cause significant error
 Rotational temperatures (Kelvin)      0.17782     0.06374     0.05506
 Rotational constants (GHZ):           3.70508     1.32821     1.14733
 Zero-point vibrational energy     421387.4 (Joules/Mol)
                                  100.71400 (Kcal/Mol)
 Warning -- explicit consideration of   8 degrees of freedom as
           vibrations may cause significant error
 Vibrational temperatures:     98.76   220.69   302.71   353.37   477.96
          (Kelvin)            570.23   718.19   778.22   955.20  1032.81
                             1096.15  1136.35  1236.81  1254.51  1286.32
                             1325.06  1368.01  1387.07  1403.76  1470.24
                             1507.93  1521.81  1537.53  1539.77  1563.44
                             1614.12  1706.82  1732.29  1746.79  1759.96
                             1822.96  1827.69  1872.85  1914.71  1961.52
                             2001.34  2013.48  2084.64  2157.65  2163.35
                             2186.42  4294.17  4311.23  4408.51  4446.72
                             4450.82  4482.53  4498.30  4502.67  4618.99
                             4638.93

 Zero-point correction=                           0.160498 (Hartree/Particle)
 Thermal correction to Energy=                    0.168032
 Thermal correction to Enthalpy=                  0.168976
 Thermal correction to Gibbs Free Energy=         0.128206
 Sum of electronic and zero-point Energies=           -422.990449
 Sum of electronic and thermal Energies=              -422.982915
 Sum of electronic and thermal Enthalpies=            -422.981971
 Sum of electronic and thermal Free Energies=         -423.022741

                     E (Thermal)             CV                S
                      KCal/Mol        Cal/Mol-Kelvin    Cal/Mol-Kelvin
 Total                  105.442             29.562             85.808
 Electronic               0.000              0.000              0.000
 Translational            0.889              2.981             40.409
 Rotational               0.889              2.981             28.434
 Vibrational            103.664             23.600             16.965
 Vibration     1          0.598              1.969              4.192
 Vibration     2          0.619              1.899              2.630
 Vibration     3          0.643              1.825              2.040
 Vibration     4          0.660              1.770              1.762
 Vibration     5          0.714              1.611              1.249
 Vibration     6          0.763              1.478              0.976
 Vibration     7          0.855              1.252              0.660
 Vibration     8          0.896              1.160              0.563

 Normal termination of Gaussian 09 at Mon Jan 27 12:14:55 2020.
