 Gaussian 09, Revision D.01,
 Gaussian 09:  ES64L-G09RevD.01 24-Apr-2013

 -----------------------------
 # b3lyp 6-31G(2df,p) opt Freq
 -----------------------------

 -----
 titel
 -----
 Symbolic Z-matrix:
 Charge =  0 Multiplicity = 1

 SCF Done:  E(RB3LYP) =  -423.203562423     A.U. after   14 cycles
 Optimization completed.
    -- Stationary point found.
 Normal termination of Gaussian 09 at Mon Jan 27 22:03:27 2020.

 ----------------------------------------------------------------------
 #N Geom=AllCheck Guess=TCheck SCRF=Check GenChk RB3LYP/6-31G(2df,p) Fr
 eq
 ----------------------------------------------------------------------

 Structure from the checkpoint file:  "/scratch/puck/g09_4a9fec6a-94e1-4816-a989-8014566f0002/Gau-181018.chk"
 -----
 titel
 -----
 Charge =  0 Multiplicity = 1

                         Standard orientation:
 ---------------------------------------------------------------------
 Center     Atomic      Atomic             Coordinates (Angstroms)
 Number     Number       Type             X           Y           Z
 ---------------------------------------------------------------------
      1          6           0       -1.298040    2.015021    0.260334
      2          6           0       -0.182007    1.016504    0.145936
      3          6           0        1.023664    1.296442   -0.352943
      4          6           0        2.125467    0.281389   -0.468047
      5          8           0        1.700842   -1.046941   -0.225614
      6          6           0        0.831725   -1.148744    0.886723
      7          6           0       -0.479717   -0.398152    0.624251
      8          6           0       -1.303720   -1.084634   -0.458978
      9          8           0       -2.507332   -1.065807   -0.513130
     10          1           0       -1.554777    2.195690    1.312080
     11          1           0       -1.030553    2.971302   -0.196628
     12          1           0       -2.208475    1.638122   -0.219825
     13          1           0        1.266197    2.306568   -0.674936
     14          1           0        2.548660    0.283417   -1.479425
     15          1           0        2.948815    0.550116    0.219515
     16          1           0        0.657455   -2.218751    1.037926
     17          1           0        1.305874   -0.749277    1.797158
     18          1           0       -1.094025   -0.358067    1.531470
     19          1           0       -0.691481   -1.584095   -1.241041
 ---------------------------------------------------------------------

 SCF Done:  E(RB3LYP) =  -423.203562423     A.U. after    1 cycles

 The electronic state is 1-A.
 Alpha  occ. eigenvalues --  -19.15092 -19.13879 -10.26902 -10.24013 -10.23976
 Alpha  occ. eigenvalues --  -10.20355 -10.20135 -10.18867 -10.18466  -1.04781
 Alpha  occ. eigenvalues --   -1.04368  -0.83102  -0.77968  -0.71940  -0.66955
 Alpha  occ. eigenvalues --   -0.62936  -0.59159  -0.51953  -0.49774  -0.49026
 Alpha  occ. eigenvalues --   -0.47755  -0.44899  -0.44256  -0.42902  -0.41139
 Alpha  occ. eigenvalues --   -0.39752  -0.39194  -0.38387  -0.37546  -0.34769
 Alpha  occ. eigenvalues --   -0.31851  -0.27477  -0.25710  -0.23538
 Alpha virt. eigenvalues --   -0.02844   0.02689   0.08834   0.10902   0.11965
 Alpha virt. eigenvalues --    0.12384   0.13954   0.14657   0.15486   0.16142
 Alpha virt. eigenvalues --    0.17385   0.17713   0.17889   0.21417   0.22538

 Mulliken charges:
               1
     1  C   -0.482999
     2  C    0.287127
     3  C   -0.166645
     4  C   -0.121662
     5  O   -0.247556
     6  C   -0.123389
     7  C   -0.162909
     8  C    0.155166
     9  O   -0.258378
    10  H    0.126546
    11  H    0.120697
    12  H    0.150313
    13  H    0.092176
    14  H    0.123126
    15  H    0.102482
    16  H    0.114250
    17  H    0.099700
    18  H    0.094662
    19  H    0.097293
 Sum of Mulliken charges =   0.00000

 Dipole moment (field-independent basis, Debye):
    X=              2.0249    Y=              1.4577    Z=              1.0732  Tot=              2.7161
 Quadrupole moment (field-independent basis, Debye-Ang):
   XX=            -60.7349   YY=            -52.1444   ZZ=            -51.8426
   XY=             -0.4081   XZ=             -2.0133   YZ=             -2.2579

  Exact polarizability:  96.375   3.225  77.402  -6.218  -1.727  63.533
 Approx polarizability: 148.966   9.768 107.827 -13.198  -1.887  98.202

                      1                      2                      3
                      A                      A                      A
 Frequencies --     78.5933                99.5309               190.1342
 Red. masses --      4.4731                 3.7697                 1.3474
 Frc consts  --      0.0163                 0.0220                 0.0287
 IR Inten    --      4.8095                 4.1670                 0.1874

                      4                      5                      6
                      A                      A                      A
 Frequencies --    213.7212               220.8977               278.0028
 Red. masses --      2.4583                 2.3481                 1.9889
 Frc consts  --      0.0662                 0.0675                 0.0906
 IR Inten    --      3.2641                 3.9165                 4.3591

                      7                      8                      9
                      A                      A                      A
 Frequencies --    317.7629               357.8078               421.9669
 Red. masses --      2.3425                 2.0493                 5.8210
 Frc consts  --      0.1394                 0.1546                 0.6107
 IR Inten    --      0.8406                 2.2429                 3.1007

                     10                     11                     12
                      A                      A                      A
 Frequencies --    455.0141               550.1891               627.8584
 Red. masses --      5.1230                 2.9964                 5.2637
 Frc consts  --      0.6249                 0.5344                 1.2226
 IR Inten    --      5.7594                20.1096                 1.8421

                     13                     14                     15
                      A                      A                      A
 Frequencies --    709.6035               814.8201               846.7074
 Red. masses --      3.7529                 1.2438                 3.3779
 Frc consts  --      1.1134                 0.4865                 1.4268
 IR Inten    --      5.4030                19.4228                 7.2614

                     16                     17                     18
                      A                      A                      A
 Frequencies --    896.9511               919.4820               959.7685
 Red. masses --      2.5245                 2.1705                 2.1039
 Frc consts  --      1.1966                 1.0812                 1.1419
 IR Inten    --      6.0568                 2.0335                19.0382

                     19                     20                     21
                      A                      A                      A
 Frequencies --   1016.9486              1032.1754              1046.8307
 Red. masses --      2.4070                 1.8007                 1.5268
 Frc consts  --      1.4666                 1.1303                 0.9858
 IR Inten    --     14.2886                 2.2559                 1.3459

                     22                     23                     24
                      A                      A                      A
 Frequencies --   1060.3832              1093.6099              1130.3517
 Red. masses --      1.6947                 2.0451                 2.2909
 Frc consts  --      1.1227                 1.4411                 1.7246
 IR Inten    --      4.0129                 3.4717                27.4618

                     25                     26                     27
                      A                      A                      A
 Frequencies --   1161.5727              1178.9447              1236.7551
 Red. masses --      4.1661                 2.3153                 1.2697
 Frc consts  --      3.3119                 1.8961                 1.1442
 IR Inten    --     48.3368                37.2701                15.5333

                     28                     29                     30
                      A                      A                      A
 Frequencies --   1268.4337              1297.5598              1323.1651
 Red. masses --      1.2747                 1.6852                 1.2134
 Frc consts  --      1.2084                 1.6717                 1.2517
 IR Inten    --      0.9383                 6.1532                 2.5135

                     31                     32                     33
                      A                      A                      A
 Frequencies --   1337.3053              1380.1453              1406.8833
 Red. masses --      1.6233                 1.3615                 1.2666
 Frc consts  --      1.7104                 1.5279                 1.4771
 IR Inten    --      6.1993                 5.3917                 2.5591

                     34                     35                     36
                      A                      A                      A
 Frequencies --   1418.2601              1424.4542              1477.4332
 Red. masses --      1.2800                 1.2886                 1.0449
 Frc consts  --      1.5169                 1.5405                 1.3438
 IR Inten    --      3.5147                15.1541                 7.0699

                     37                     38                     39
                      A                      A                      A
 Frequencies --   1487.2698              1492.8479              1500.3109
 Red. masses --      1.0831                 1.0559                 1.0951
 Frc consts  --      1.4115                 1.3865                 1.4523
 IR Inten    --      1.1459                 4.6033                 3.5005

                     40                     41                     42
                      A                      A                      A
 Frequencies --   1737.2655              1819.4257              2902.6322
 Red. masses --      6.9877                10.2107                 1.0837
 Frc consts  --     12.4256                19.9148                 5.3795
 IR Inten    --      4.6334               198.6873                62.0859

                     43                     44                     45
                      A                      A                      A
 Frequencies --   2935.9224              2982.5847              3021.7099
 Red. masses --      1.0729                 1.0690                 1.0391
 Frc consts  --      5.4489                 5.6031                 5.5902
 IR Inten    --     65.3007                52.4890                20.7271

                     46                     47                     48
                      A                      A                      A
 Frequencies --   3046.7799              3052.1448              3075.7488
 Red. masses --      1.0836                 1.0868                 1.0960
 Frc consts  --      5.9263                 5.9648                 6.1088
 IR Inten    --     23.7650                24.6585                11.4034

                     49                     50                     51
                      A                      A                      A
 Frequencies --   3077.6272              3117.0424              3156.0119
 Red. masses --      1.0949                 1.1012                 1.0898
 Frc consts  --      6.1104                 6.3037                 6.3957
 IR Inten    --     28.5546                16.0745                15.3436

 - Thermochemistry -
 -------------------
 Temperature   298.150 Kelvin.  Pressure   1.00000 Atm.
 Atom     1 has atomic number  6 and mass  12.00000

 Molecular mass:   126.06808 amu.
 Principal axes and moments of inertia in atomic units:
                           1         2         3
     Eigenvalues --   783.122221195.272411695.90712
           X            0.99871  -0.04934  -0.01165
           Y            0.04917   0.99869  -0.01411
           Z            0.01233   0.01352   0.99983
 This molecule is an asymmetric top.
 Rotational symmetry number  1.
 Warning -- assumption of classical behavior for rotation
           may cause significant error
 Rotational temperatures (Kelvin)      0.11060     0.07246     0.05107
 Rotational constants (GHZ):           2.30455     1.50990     1.06417
 Zero-point vibrational energy     416631.5 (Joules/Mol)
                                   99.57732 (Kcal/Mol)
 Warning -- explicit consideration of  11 degrees of freedom as
           vibrations may cause significant error
 Vibrational temperatures:    113.08   143.20   273.56   307.50   317.82
          (Kelvin)            399.98   457.19   514.80   607.12   654.66
                              791.60   903.35  1020.96  1172.34  1218.22
                             1290.51  1322.93  1380.89  1463.16  1485.07
                             1506.15  1525.65  1573.46  1626.32  1671.24
                             1696.24  1779.41  1824.99  1866.90  1903.74
                             1924.08  1985.72  2024.19  2040.56  2049.47
                             2125.69  2139.85  2147.87  2158.61  2499.53
                             2617.74  4176.24  4224.13  4291.27  4347.56
                             4383.63  4391.35  4425.31  4428.01  4484.72
                             4540.79

 Zero-point correction=                           0.158687 (Hartree/Particle)
 Thermal correction to Energy=                    0.167478
 Thermal correction to Enthalpy=                  0.168422
 Thermal correction to Gibbs Free Energy=         0.125043
 Sum of electronic and zero-point Energies=           -423.044876
 Sum of electronic and thermal Energies=              -423.036084
 Sum of electronic and thermal Enthalpies=            -423.035140
 Sum of electronic and thermal Free Energies=         -423.078519

                     E (Thermal)             CV                S
                      KCal/Mol        Cal/Mol-Kelvin    Cal/Mol-Kelvin
 Total                  105.094             32.454             91.299
 Electronic               0.000              0.000              0.000
 Translational            0.889              2.981             40.409
 Rotational               0.889              2.981             28.853
 Vibrational            103.317             26.492             22.037
 Vibration     1          0.600              1.964              3.926
 Vibration     2          0.604              1.949              3.463
 Vibration     3          0.633              1.853              2.227
 Vibration     4          0.644              1.820              2.012
 Vibration     5          0.648              1.809              1.952
 Vibration     6          0.679              1.714              1.546
 Vibration     7          0.704              1.640              1.322
 Vibration     8          0.733              1.559              1.132
 Vibration     9          0.784              1.422              0.885
 Vibration    10          0.813              1.350              0.781
 Vibration    11          0.905              1.139              0.544

 Normal termination of Gaussian 09 at Mon Jan 27 22:47:34 2020.
