 Gaussian 09, Revision D.01,
 Gaussian 09:  ES64L-G09RevD.01 24-Apr-2013

 -----------------------------
 # b3lyp 6-31G(2df,p) opt Freq
 -----------------------------

 -----
 titel
 -----
 Symbolic Z-matrix:
 Charge =  0 Multiplicity = 1

 SCF Done:  E(RB3LYP) =  -423.154137544     A.U. after   14 cycles
 SCF Done:  E(RB3LYP) =  -423.154137511     A.U. after    7 cycles
 SCF Done:  E(RB3LYP) =  -423.154137563     A.U. after    7 cycles
 Optimization completed.
    -- Stationary point found.
 Normal termination of Gaussian 09 at Mon Jan 27 16:31:35 2020.

 ----------------------------------------------------------------------
 #N Geom=AllCheck Guess=TCheck SCRF=Check GenChk RB3LYP/6-31G(2df,p) Fr
 eq
 ----------------------------------------------------------------------

 Structure from the checkpoint file:  "/scratch/puck/g09_4aea6450-182f-49b3-a042-c0f8be3413fb/Gau-176968.chk"
 -----
 titel
 -----
 Charge =  0 Multiplicity = 1

                         Standard orientation:
 ---------------------------------------------------------------------
 Center     Atomic      Atomic             Coordinates (Angstroms)
 Number     Number       Type             X           Y           Z
 ---------------------------------------------------------------------
      1          6           0       -2.406785   -0.390807   -0.443190
      2          6           0       -1.092827    0.245071    0.013487
      3          6           0       -1.243500    1.735337    0.309017
      4          6           0       -0.442180   -0.537320    1.179894
      5          8           0        0.443214   -1.442711    0.531407
      6          6           0        0.938632   -0.720836   -0.572975
      7          8           0       -0.130616    0.065951   -1.056059
      8          6           0        2.100721    0.115546   -0.208477
      9          6           0        3.056814    0.784676    0.078506
     10          1           0       -2.730011    0.051232   -1.389733
     11          1           0       -2.275220   -1.466160   -0.592687
     12          1           0       -3.196690   -0.233400    0.298757
     13          1           0       -1.653669    2.258474   -0.559423
     14          1           0       -1.921618    1.895262    1.154424
     15          1           0       -0.273272    2.176952    0.550637
     16          1           0        0.111081    0.134292    1.850666
     17          1           0       -1.156203   -1.123236    1.761504
     18          1           0        1.225637   -1.444097   -1.343865
     19          1           0        3.903931    1.374765    0.329371
 ---------------------------------------------------------------------

 SCF Done:  E(RB3LYP) =  -423.154137563     A.U. after    1 cycles

 The electronic state is 1-A.
 Alpha  occ. eigenvalues --  -19.15623 -19.14571 -10.30164 -10.24624 -10.23379
 Alpha  occ. eigenvalues --  -10.18488 -10.18236 -10.17845 -10.17705  -1.09446
 Alpha  occ. eigenvalues --   -0.99716  -0.81249  -0.75550  -0.70293  -0.69549
 Alpha  occ. eigenvalues --   -0.65161  -0.57904  -0.54933  -0.51387  -0.50534
 Alpha  occ. eigenvalues --   -0.47487  -0.45174  -0.42733  -0.42554  -0.40644
 Alpha  occ. eigenvalues --   -0.38441  -0.37927  -0.35959  -0.33890  -0.32693
 Alpha  occ. eigenvalues --   -0.29508  -0.27898  -0.27271  -0.25862
 Alpha virt. eigenvalues --    0.03344   0.03898   0.08965   0.11558   0.12062
 Alpha virt. eigenvalues --    0.12684   0.14000   0.14599   0.15054   0.16035
 Alpha virt. eigenvalues --    0.16761   0.18711   0.19340   0.19843   0.20553

 Mulliken charges:
               1
     1  C   -0.417770
     2  C    0.373190
     3  C   -0.426721
     4  C   -0.154286
     5  O   -0.233757
     6  C   -0.022932
     7  O   -0.288280
     8  C    0.346808
     9  C   -0.453209
    10  H    0.125640
    11  H    0.126952
    12  H    0.111519
    13  H    0.126082
    14  H    0.114440
    15  H    0.130300
    16  H    0.104559
    17  H    0.118777
    18  H    0.117791
    19  H    0.200898
 Sum of Mulliken charges =   0.00000

 Dipole moment (field-independent basis, Debye):
    X=             -0.7396    Y=              0.8629    Z=              0.9249  Tot=              1.4653
 Quadrupole moment (field-independent basis, Debye-Ang):
   XX=            -47.8021   YY=            -53.9612   ZZ=            -53.6635
   XY=              2.4324   XZ=             -0.9965   YZ=              2.4915

  Exact polarizability:  95.436   8.138  70.014   0.650   3.588  63.448
 Approx polarizability: 128.389  17.226 106.020   3.424   5.904  97.493

                      1                      2                      3
                      A                      A                      A
 Frequencies --     38.3769               120.5667               185.3232
 Red. masses --      3.9176                 3.2306                 4.2444
 Frc consts  --      0.0034                 0.0277                 0.0859
 IR Inten    --      0.5264                 1.5397                 0.4161

                      4                      5                      6
                      A                      A                      A
 Frequencies --    219.8264               260.3669               265.1414
 Red. masses --      1.0632                 1.1410                 3.1695
 Frc consts  --      0.0303                 0.0456                 0.1313
 IR Inten    --      0.0521                 0.3735                 2.1872

                      7                      8                      9
                      A                      A                      A
 Frequencies --    326.1648               337.8514               384.6804
 Red. masses --      2.5807                 2.3844                 2.4245
 Frc consts  --      0.1618                 0.1604                 0.2114
 IR Inten    --      1.2801                 3.0775                 0.4507

                     10                     11                     12
                      A                      A                      A
 Frequencies --    439.7360               525.8328               553.2729
 Red. masses --      2.5364                 6.6334                 6.4174
 Frc consts  --      0.2890                 1.0806                 1.1574
 IR Inten    --      0.9730                 7.9050                 6.6151

                     13                     14                     15
                      A                      A                      A
 Frequencies --    622.0141               656.6367               667.8919
 Red. masses --      4.4799                 1.2528                 1.2616
 Frc consts  --      1.0212                 0.3183                 0.3316
 IR Inten    --      0.6668                36.1116                34.1169

                     16                     17                     18
                      A                      A                      A
 Frequencies --    792.4494               796.0128               874.4663
 Red. masses --      4.2043                 9.3749                 2.5021
 Frc consts  --      1.5556                 3.4999                 1.1273
 IR Inten    --     13.2105                 0.5926                 9.0678

                     19                     20                     21
                      A                      A                      A
 Frequencies --    924.2292               943.5556               961.6104
 Red. masses --      2.0037                 2.3505                 1.9996
 Frc consts  --      1.0084                 1.2329                 1.0894
 IR Inten    --      7.1017                22.9800                27.8266

                     22                     23                     24
                      A                      A                      A
 Frequencies --    977.8971               990.3022              1037.0401
 Red. masses --      2.9521                 1.8317                 1.8292
 Frc consts  --      1.6633                 1.0584                 1.1590
 IR Inten    --     69.4439                18.7137                21.1577

                     25                     26                     27
                      A                      A                      A
 Frequencies --   1047.7970              1123.5469              1187.4890
 Red. masses --      2.9216                 8.2310                 2.2772
 Frc consts  --      1.8899                 6.1219                 1.8920
 IR Inten    --     30.7256               281.5144                45.8939

                     28                     29                     30
                      A                      A                      A
 Frequencies --   1220.2386              1256.0528              1290.1830
 Red. masses --      1.5668                 2.0279                 2.1222
 Frc consts  --      1.3745                 1.8850                 2.0813
 IR Inten    --      2.2739                10.3121                17.0648

                     31                     32                     33
                      A                      A                      A
 Frequencies --   1325.5063              1372.0261              1382.0085
 Red. masses --      1.3203                 1.2453                 1.3223
 Frc consts  --      1.3667                 1.3811                 1.4880
 IR Inten    --      7.4371                33.8228                 9.5970

                     34                     35                     36
                      A                      A                      A
 Frequencies --   1399.9530              1417.7258              1476.5475
 Red. masses --      1.3175                 1.2379                 1.0508
 Frc consts  --      1.5213                 1.4659                 1.3498
 IR Inten    --      6.4693                 7.9993                 0.4482

                     37                     38                     39
                      A                      A                      A
 Frequencies --   1486.3244              1496.0025              1504.5940
 Red. masses --      1.0487                 1.0650                 1.0532
 Frc consts  --      1.3650                 1.4043                 1.4047
 IR Inten    --      1.1236                 1.7203                 6.2418

                     40                     41                     42
                      A                      A                      A
 Frequencies --   1515.2448              2231.3325              3012.8360
 Red. masses --      1.0900                 5.8576                 1.0676
 Frc consts  --      1.4745                17.1829                 5.7097
 IR Inten    --      0.3796                10.4066                35.1144

                     43                     44                     45
                      A                      A                      A
 Frequencies --   3035.6048              3040.8875              3056.7331
 Red. masses --      1.0352                 1.0362                 1.0859
 Frc consts  --      5.6204                 5.6455                 5.9782
 IR Inten    --     13.7300                19.1694                28.5033

                     46                     47                     48
                      A                      A                      A
 Frequencies --   3107.0311              3112.2812              3114.9183
 Red. masses --      1.1003                 1.0999                 1.0987
 Frc consts  --      6.2581                 6.2769                 6.2812
 IR Inten    --      4.7453                15.3793                28.3679

                     49                     50                     51
                      A                      A                      A
 Frequencies --   3121.7794              3125.7691              3499.1178
 Red. masses --      1.1022                 1.1025                 1.1634
 Frc consts  --      6.3288                 6.3466                 8.3928
 IR Inten    --     23.2007                24.5277                56.7902

 - Thermochemistry -
 -------------------
 Temperature   298.150 Kelvin.  Pressure   1.00000 Atm.
 Atom     1 has atomic number  6 and mass  12.00000

 Molecular mass:   126.06808 amu.
 Principal axes and moments of inertia in atomic units:
                           1         2         3
     Eigenvalues --   607.738871395.646001577.12462
           X            0.99999   0.00279   0.00171
           Y           -0.00290   0.99755   0.06987
           Z           -0.00151  -0.06987   0.99755
 This molecule is an asymmetric top.
 Rotational symmetry number  1.
 Warning -- assumption of classical behavior for rotation
           may cause significant error
 Rotational temperatures (Kelvin)      0.14252     0.06206     0.05492
 Rotational constants (GHZ):           2.96960     1.29312     1.14432
 Zero-point vibrational energy     411878.9 (Joules/Mol)
                                   98.44142 (Kcal/Mol)
 Warning -- explicit consideration of  12 degrees of freedom as
           vibrations may cause significant error
 Vibrational temperatures:     55.22   173.47   266.64   316.28   374.61
          (Kelvin)            381.48   469.28   486.09   553.47   632.68
                              756.56   796.04   894.94   944.75   960.95
                             1140.16  1145.28  1258.16  1329.76  1357.56
                             1383.54  1406.97  1424.82  1492.07  1507.54
                             1616.53  1708.53  1755.65  1807.18  1856.28
                             1907.11  1974.04  1988.40  2014.22  2039.79
                             2124.42  2138.49  2152.41  2164.77  2180.10
                             3210.39  4334.79  4367.55  4375.15  4397.95
                             4470.32  4477.87  4481.67  4491.54  4497.28
                             5034.44

 Zero-point correction=                           0.156876 (Hartree/Particle)
 Thermal correction to Energy=                    0.166121
 Thermal correction to Enthalpy=                  0.167066
 Thermal correction to Gibbs Free Energy=         0.122736
 Sum of electronic and zero-point Energies=           -422.997261
 Sum of electronic and thermal Energies=              -422.988016
 Sum of electronic and thermal Enthalpies=            -422.987072
 Sum of electronic and thermal Free Energies=         -423.031401

                     E (Thermal)             CV                S
                      KCal/Mol        Cal/Mol-Kelvin    Cal/Mol-Kelvin
 Total                  104.243             34.846             93.298
 Electronic               0.000              0.000              0.000
 Translational            0.889              2.981             40.409
 Rotational               0.889              2.981             28.683
 Vibrational            102.465             28.885             24.207
 Vibration     1          0.594              1.982              5.341
 Vibration     2          0.609              1.932              3.091
 Vibration     3          0.631              1.860              2.274
 Vibration     4          0.647              1.811              1.961
 Vibration     5          0.668              1.745              1.659
 Vibration     6          0.671              1.737              1.628
 Vibration     7          0.710              1.623              1.279
 Vibration     8          0.718              1.600              1.222
 Vibration     9          0.754              1.503              1.021
 Vibration    10          0.800              1.384              0.827
 Vibration    11          0.881              1.193              0.597
 Vibration    12          0.909              1.133              0.537

 Optimization completed.
    -- Stationary point found.
 Normal termination of Gaussian 09 at Mon Jan 27 17:13:25 2020.
