 Gaussian 09, Revision D.01,
 Gaussian 09:  ES64L-G09RevD.01 24-Apr-2013

 -----------------------------
 # b3lyp 6-31G(2df,p) opt Freq
 -----------------------------

 -----
 titel
 -----
 Symbolic Z-matrix:
 Charge =  0 Multiplicity = 1

 SCF Done:  E(RB3LYP) =  -423.153436355     A.U. after   13 cycles
 Optimization completed.
    -- Stationary point found.
 Normal termination of Gaussian 09 at Mon Jan 27 11:24:06 2020.

 ----------------------------------------------------------------------
 #N Geom=AllCheck Guess=TCheck SCRF=Check GenChk RB3LYP/6-31G(2df,p) Fr
 eq
 ----------------------------------------------------------------------

 Structure from the checkpoint file:  "/scratch/puck/g09_c0e3b27c-9552-4f01-a62b-bac81319ae0d/Gau-22521.chk"
 -----
 titel
 -----
 Charge =  0 Multiplicity = 1

                         Standard orientation:
 ---------------------------------------------------------------------
 Center     Atomic      Atomic             Coordinates (Angstroms)
 Number     Number       Type             X           Y           Z
 ---------------------------------------------------------------------
      1          6           0       -2.407829   -0.100933   -0.613077
      2          6           0       -1.566582    0.743455    0.322728
      3          6           0       -0.293275    1.415052   -0.182165
      4          6           0        0.913753    0.766145    0.505152
      5          8           0        2.113622    0.732639   -0.305093
      6          6           0        2.090009   -0.711633   -0.370131
      7          6           0        0.834182   -0.779192    0.508096
      8          8           0       -0.296668   -1.295057   -0.169754
      9          6           0       -1.482980   -0.765727    0.358035
     10          1           0       -3.473818   -0.169686   -0.426110
     11          1           0       -2.123124   -0.129425   -1.659356
     12          1           0       -2.081017    1.234706    1.142315
     13          1           0       -0.179388    1.269808   -1.259843
     14          1           0       -0.315439    2.493331   -0.003876
     15          1           0        1.115417    1.221599    1.482488
     16          1           0        1.935400   -1.085285   -1.388778
     17          1           0        2.998128   -1.155815    0.053207
     18          1           0        0.957096   -1.262401    1.485424
     19          1           0       -1.892560   -1.320481    1.201472
 ---------------------------------------------------------------------

 SCF Done:  E(RB3LYP) =  -423.153436355     A.U. after    1 cycles

 The electronic state is 1-A.
 Alpha  occ. eigenvalues --  -19.14998 -19.12940 -10.23547 -10.23473 -10.23053
 Alpha  occ. eigenvalues --  -10.22710 -10.19563 -10.18845 -10.18541  -1.05597
 Alpha  occ. eigenvalues --   -1.02453  -0.85645  -0.76218  -0.72046  -0.65186
 Alpha  occ. eigenvalues --   -0.60294  -0.58912  -0.53055  -0.52108  -0.50990
 Alpha  occ. eigenvalues --   -0.48437  -0.46941  -0.42643  -0.41538  -0.40338
 Alpha  occ. eigenvalues --   -0.38354  -0.38269  -0.36200  -0.34434  -0.31165
 Alpha  occ. eigenvalues --   -0.29698  -0.27328  -0.25550  -0.24228
 Alpha virt. eigenvalues --    0.07986   0.08578   0.10576   0.11225   0.12932
 Alpha virt. eigenvalues --    0.13305   0.13643   0.14511   0.14840   0.17008
 Alpha virt. eigenvalues --    0.17825   0.18909   0.20860   0.21863   0.23005

 Mulliken charges:
               1
     1  C   -0.312879
     2  C   -0.052780
     3  C   -0.264679
     4  C    0.121304
     5  O   -0.297261
     6  C   -0.100030
     7  C    0.067523
     8  O   -0.261163
     9  C    0.100282
    10  H    0.113679
    11  H    0.124499
    12  H    0.090116
    13  H    0.117834
    14  H    0.106370
    15  H    0.074457
    16  H    0.112228
    17  H    0.102610
    18  H    0.073005
    19  H    0.084886
 Sum of Mulliken charges =   0.00000

 Dipole moment (field-independent basis, Debye):
    X=             -1.2727    Y=             -0.1215    Z=              1.3235  Tot=              1.8401
 Quadrupole moment (field-independent basis, Debye-Ang):
   XX=            -53.3279   YY=            -54.8212   ZZ=            -51.2044
   XY=             -3.9832   XZ=              0.3272   YZ=              0.1209

  Exact polarizability:  86.637  -3.028  69.525   0.749   0.984  65.833
 Approx polarizability: 111.368  -1.663 104.620   0.183   2.829 101.291

                      1                      2                      3
                      A                      A                      A
 Frequencies --     95.4317               149.9974               300.4834
 Red. masses --      3.1607                 2.9080                 2.6086
 Frc consts  --      0.0170                 0.0385                 0.1388
 IR Inten    --      3.7038                 0.7719                 1.5049

                      4                      5                      6
                      A                      A                      A
 Frequencies --    362.3733               380.5623               443.7882
 Red. masses --      2.9438                 3.5414                 4.8571
 Frc consts  --      0.2278                 0.3022                 0.5636
 IR Inten    --      4.5930                 7.2660                 0.5552

                      7                      8                      9
                      A                      A                      A
 Frequencies --    458.2262               519.6963               693.2381
 Red. masses --      2.4486                 4.4213                 2.3629
 Frc consts  --      0.3029                 0.7036                 0.6691
 IR Inten    --      1.3275                 1.1441                 0.1878

                     10                     11                     12
                      A                      A                      A
 Frequencies --    773.2259               794.3346               810.5336
 Red. masses --      2.8685                 2.2525                 1.6386
 Frc consts  --      1.0105                 0.8374                 0.6343
 IR Inten    --      5.4179                10.4617                12.8309

                     13                     14                     15
                      A                      A                      A
 Frequencies --    826.3825               881.0105               902.7873
 Red. masses --      3.0262                 1.9589                 1.8251
 Frc consts  --      1.2176                 0.8958                 0.8764
 IR Inten    --      5.4667                 0.4042                 8.0258

                     16                     17                     18
                      A                      A                      A
 Frequencies --    950.3354               971.5514               999.4213
 Red. masses --      2.2881                 2.5755                 3.0293
 Frc consts  --      1.2175                 1.4324                 1.7828
 IR Inten    --     14.7409                 8.4692                 7.4895

                     19                     20                     21
                      A                      A                      A
 Frequencies --   1019.9652              1029.8226              1058.1818
 Red. masses --      2.0353                 4.3715                 1.4267
 Frc consts  --      1.2475                 2.7316                 0.9412
 IR Inten    --     19.0840                82.9080                11.3783

                     22                     23                     24
                      A                      A                      A
 Frequencies --   1084.9285              1093.7319              1121.1248
 Red. masses --      2.0956                 2.2947                 1.4622
 Frc consts  --      1.4533                 1.6173                 1.0829
 IR Inten    --     20.0162                 4.3862                 5.1758

                     25                     26                     27
                      A                      A                      A
 Frequencies --   1128.3507              1145.7286              1170.4515
 Red. masses --      2.0793                 1.7711                 1.8396
 Frc consts  --      1.5597                 1.3698                 1.4848
 IR Inten    --     25.0025                14.9424                18.9671

                     28                     29                     30
                      A                      A                      A
 Frequencies --   1178.7169              1216.6538              1232.0914
 Red. masses --      1.5989                 1.6683                 1.5815
 Frc consts  --      1.3088                 1.4550                 1.4145
 IR Inten    --     40.5657                11.1604                19.5171

                     31                     32                     33
                      A                      A                      A
 Frequencies --   1261.9627              1280.4461              1312.0368
 Red. masses --      1.3483                 1.4527                 1.4037
 Frc consts  --      1.2651                 1.4033                 1.4237
 IR Inten    --      3.2840                 0.0543                 3.8776

                     34                     35                     36
                      A                      A                      A
 Frequencies --   1332.3600              1367.2774              1370.8201
 Red. masses --      1.2775                 1.3252                 1.5393
 Frc consts  --      1.3362                 1.4596                 1.7043
 IR Inten    --     13.0158                 8.0582                11.4541

                     37                     38                     39
                      A                      A                      A
 Frequencies --   1385.5450              1412.0488              1473.3857
 Red. masses --      1.5776                 1.5208                 1.3032
 Frc consts  --      1.7844                 1.7866                 1.6668
 IR Inten    --      2.6402                 7.3800                 3.7913

                     40                     41                     42
                      A                      A                      A
 Frequencies --   1493.3874              1513.7202              3014.7253
 Red. masses --      1.1235                 1.1049                 1.0850
 Frc consts  --      1.4763                 1.4917                 5.8101
 IR Inten    --      7.8365                 1.5000                17.6405

                     43                     44                     45
                      A                      A                      A
 Frequencies --   3023.0404              3034.7052              3061.1638
 Red. masses --      1.0624                 1.0808                 1.0595
 Frc consts  --      5.7204                 5.8644                 5.8497
 IR Inten    --     78.9932                55.7471                18.4349

                     46                     47                     48
                      A                      A                      A
 Frequencies --   3076.6778              3104.7051              3105.6044
 Red. masses --      1.1108                 1.0886                 1.1036
 Frc consts  --      6.1953                 6.1823                 6.2711
 IR Inten    --     43.2716                38.4332                16.6135

                     49                     50                     51
                      A                      A                      A
 Frequencies --   3134.2975              3157.4966              3224.2841
 Red. masses --      1.0550                 1.0904                 1.1169
 Frc consts  --      6.1064                 6.4053                 6.8409
 IR Inten    --     12.0091                20.6779                 9.1111

 - Thermochemistry -
 -------------------
 Temperature   298.150 Kelvin.  Pressure   1.00000 Atm.
 Atom     1 has atomic number  6 and mass  12.00000

 Molecular mass:   126.06808 amu.
 Principal axes and moments of inertia in atomic units:
                           1         2         3
     Eigenvalues --   505.307321218.316701501.10522
           X            0.99960  -0.02807   0.00398
           Y            0.02808   0.99960  -0.00168
           Z           -0.00393   0.00179   0.99999
 This molecule is an asymmetric top.
 Rotational symmetry number  1.
 Warning -- assumption of classical behavior for rotation
           may cause significant error
 Rotational temperatures (Kelvin)      0.17141     0.07109     0.05770
 Rotational constants (GHZ):           3.57157     1.48134     1.20227
 Zero-point vibrational energy     424272.5 (Joules/Mol)
                                  101.40355 (Kcal/Mol)
 Warning -- explicit consideration of   8 degrees of freedom as
           vibrations may cause significant error
 Vibrational temperatures:    137.30   215.81   432.33   521.37   547.54
          (Kelvin)            638.51   659.28   747.73   997.41  1112.50
                             1142.87  1166.18  1188.98  1267.58  1298.91
                             1367.32  1397.84  1437.94  1467.50  1481.68
                             1522.49  1560.97  1573.63  1613.05  1623.44
                             1648.45  1684.02  1695.91  1750.49  1772.70
                             1815.68  1842.27  1887.73  1916.97  1967.20
                             1972.30  1993.49  2031.62  2119.87  2148.65
                             2177.90  4337.51  4349.48  4366.26  4404.33
                             4426.65  4466.97  4468.27  4509.55  4542.93
                             4639.02

 Zero-point correction=                           0.161597 (Hartree/Particle)
 Thermal correction to Energy=                    0.168685
 Thermal correction to Enthalpy=                  0.169630
 Thermal correction to Gibbs Free Energy=         0.130016
 Sum of electronic and zero-point Energies=           -422.991840
 Sum of electronic and thermal Energies=              -422.984751
 Sum of electronic and thermal Enthalpies=            -422.983807
 Sum of electronic and thermal Free Energies=         -423.023421

                     E (Thermal)             CV                S
                      KCal/Mol        Cal/Mol-Kelvin    Cal/Mol-Kelvin
 Total                  105.852             28.623             83.375
 Electronic               0.000              0.000              0.000
 Translational            0.889              2.981             40.409
 Rotational               0.889              2.981             28.315
 Vibrational            104.074             22.661             14.651
 Vibration     1          0.603              1.952              3.546
 Vibration     2          0.618              1.903              2.672
 Vibration     3          0.693              1.673              1.414
 Vibration     4          0.736              1.550              1.112
 Vibration     5          0.750              1.512              1.037
 Vibration     6          0.803              1.375              0.815
 Vibration     7          0.816              1.343              0.771
 Vibration     8          0.875              1.206              0.611

 Optimization completed.
    -- Stationary point found.
 Normal termination of Gaussian 09 at Mon Jan 27 12:55:37 2020.
