 Gaussian 09, Revision D.01,
 Gaussian 09:  ES64L-G09RevD.01 24-Apr-2013

 -----------------------------
 # b3lyp 6-31G(2df,p) opt Freq
 -----------------------------

 -----
 titel
 -----
 Symbolic Z-matrix:
 Charge =  0 Multiplicity = 1

 SCF Done:  E(RB3LYP) =  -423.174096472     A.U. after   14 cycles
 Optimization completed.
    -- Stationary point found.
 Normal termination of Gaussian 09 at Tue Jan 28 09:20:35 2020.

 ----------------------------------------------------------------------
 #N Geom=AllCheck Guess=TCheck SCRF=Check GenChk RB3LYP/6-31G(2df,p) Fr
 eq
 ----------------------------------------------------------------------

 Structure from the checkpoint file:  "/scratch/puck/g09_4ca5850f-95c2-4a10-ac59-45d555e499fb/Gau-84192.chk"
 -----
 titel
 -----
 Charge =  0 Multiplicity = 1

                         Standard orientation:
 ---------------------------------------------------------------------
 Center     Atomic      Atomic             Coordinates (Angstroms)
 Number     Number       Type             X           Y           Z
 ---------------------------------------------------------------------
      1          6           0       -2.968234   -0.349180   -0.663216
      2          6           0       -1.604523    0.070868   -0.217161
      3          6           0       -1.202041    1.278963    0.194177
      4          6           0        0.267585    1.320042    0.554008
      5          6           0        0.717794   -0.127478    0.350988
      6          6           0        2.156347   -0.471885    0.038658
      7          8           0        2.643682    0.187177   -1.121316
      8          8           0        0.051377   -1.056577    1.213954
      9          6           0       -0.449014   -0.881030   -0.137575
     10          1           0       -3.378329   -1.126767   -0.006893
     11          1           0       -3.664430    0.493732   -0.669980
     12          1           0       -2.942068   -0.774317   -1.674530
     13          1           0       -1.848099    2.144425    0.297523
     14          1           0        0.823461    2.000890   -0.105122
     15          1           0        0.440458    1.653914    1.584588
     16          1           0        2.785713   -0.258543    0.916381
     17          1           0        2.223624   -1.546836   -0.152143
     18          1           0        2.870299    1.089994   -0.881217
     19          1           0       -0.378577   -1.763082   -0.768986
 ---------------------------------------------------------------------

 SCF Done:  E(RB3LYP) =  -423.174096472     A.U. after    1 cycles

 The electronic state is 1-A.
 Alpha  occ. eigenvalues --  -19.14384 -19.14151 -10.23373 -10.23225 -10.22983
 Alpha  occ. eigenvalues --  -10.19117 -10.18879 -10.18489 -10.18152  -1.06467
 Alpha  occ. eigenvalues --   -1.02094  -0.82361  -0.75461  -0.71202  -0.67038
 Alpha  occ. eigenvalues --   -0.63953  -0.56400  -0.53779  -0.51970  -0.48127
 Alpha  occ. eigenvalues --   -0.44867  -0.43752  -0.43340  -0.41885  -0.41645
 Alpha  occ. eigenvalues --   -0.38660  -0.37890  -0.36152  -0.35648  -0.33783
 Alpha  occ. eigenvalues --   -0.30097  -0.28140  -0.25264  -0.23514
 Alpha virt. eigenvalues --    0.00878   0.06372   0.10357   0.11225   0.11845
 Alpha virt. eigenvalues --    0.12938   0.13942   0.14989   0.15073   0.16975
 Alpha virt. eigenvalues --    0.17691   0.19418   0.20772   0.21288   0.22875

 Mulliken charges:
               1
     1  C   -0.502265
     2  C    0.349262
     3  C   -0.179021
     4  C   -0.341643
     5  C    0.398304
     6  C   -0.182914
     7  O   -0.408316
     8  O   -0.301342
     9  C   -0.132667
    10  H    0.135184
    11  H    0.125441
    12  H    0.127911
    13  H    0.092919
    14  H    0.099328
    15  H    0.119941
    16  H    0.097011
    17  H    0.121941
    18  H    0.288563
    19  H    0.092363
 Sum of Mulliken charges =   0.00000

 Dipole moment (field-independent basis, Debye):
    X=             -0.2538    Y=              1.5552    Z=             -0.3115  Tot=              1.6063
 Quadrupole moment (field-independent basis, Debye-Ang):
   XX=            -49.8308   YY=            -49.7068   ZZ=            -57.7612
   XY=              3.2053   XZ=              4.1764   YZ=              2.6751

  Exact polarizability:  89.940   4.802  80.269   6.330   5.614  60.255
 Approx polarizability: 112.969  12.235 130.321   8.354   7.948  97.858

                      1                      2                      3
                      A                      A                      A
 Frequencies --     56.8049               134.4500               175.1427
 Red. masses --      3.1198                 3.6566                 1.1676
 Frc consts  --      0.0059                 0.0389                 0.0211
 IR Inten    --      2.5949                 7.7145                 1.2525

                      4                      5                      6
                      A                      A                      A
 Frequencies --    207.9765               225.5045               256.1624
 Red. masses --      2.9474                 1.4626                 1.5473
 Frc consts  --      0.0751                 0.0438                 0.0598
 IR Inten    --      4.3145                72.6425                58.6625

                      7                      8                      9
                      A                      A                      A
 Frequencies --    298.9131               364.2590               398.9381
 Red. masses --      2.0921                 2.5154                 3.8813
 Frc consts  --      0.1101                 0.1966                 0.3639
 IR Inten    --      1.0478                 0.2084                13.9047

                     10                     11                     12
                      A                      A                      A
 Frequencies --    489.6400               554.3215               594.2488
 Red. masses --      4.2248                 4.8399                 3.9433
 Frc consts  --      0.5968                 0.8762                 0.8204
 IR Inten    --      1.8930                 0.1309                 9.6442

                     13                     14                     15
                      A                      A                      A
 Frequencies --    659.1293               763.6424               811.7160
 Red. masses --      3.9089                 5.0570                 1.3717
 Frc consts  --      1.0006                 1.7375                 0.5325
 IR Inten    --      8.1684                 6.7447                 3.2627

                     16                     17                     18
                      A                      A                      A
 Frequencies --    859.0391               890.2605               917.2950
 Red. masses --      2.3123                 3.2983                 2.9159
 Frc consts  --      1.0054                 1.5402                 1.4456
 IR Inten    --     26.2798                 9.3531                 7.8407

                     19                     20                     21
                      A                      A                      A
 Frequencies --    953.0425               969.2981              1026.4441
 Red. masses --      2.1688                 1.5496                 1.8221
 Frc consts  --      1.1606                 0.8578                 1.1311
 IR Inten    --     14.2452                11.9051                25.7772

                     22                     23                     24
                      A                      A                      A
 Frequencies --   1032.6378              1060.0584              1068.5309
 Red. masses --      1.9676                 1.9596                 2.6791
 Frc consts  --      1.2362                 1.2974                 1.8023
 IR Inten    --     21.7256                10.6492                40.9798

                     25                     26                     27
                      A                      A                      A
 Frequencies --   1076.9747              1158.1426              1186.2219
 Red. masses --      1.6629                 1.3821                 1.2898
 Frc consts  --      1.1364                 1.0922                 1.0693
 IR Inten    --     31.5516                 4.3762                 3.6707

                     28                     29                     30
                      A                      A                      A
 Frequencies --   1193.8828              1240.1335              1269.6239
 Red. masses --      2.2284                 1.6891                 1.3554
 Frc consts  --      1.8714                 1.5305                 1.2873
 IR Inten    --      4.9639                 0.9646                 3.5187

                     31                     32                     33
                      A                      A                      A
 Frequencies --   1332.7330              1348.8968              1389.1538
 Red. masses --      2.1894                 2.2538                 1.2918
 Frc consts  --      2.2911                 2.4161                 1.4688
 IR Inten    --     15.5525                 6.5949                44.2153

                     34                     35                     36
                      A                      A                      A
 Frequencies --   1389.8211              1415.7732              1446.2842
 Red. masses --      1.2545                 1.3026                 1.9754
 Frc consts  --      1.4277                 1.5383                 2.4345
 IR Inten    --      8.2248                 0.2477                 1.8512

                     37                     38                     39
                      A                      A                      A
 Frequencies --   1462.9943              1479.3863              1489.4872
 Red. masses --      1.5369                 1.0441                 1.0623
 Frc consts  --      1.9381                 1.3464                 1.3886
 IR Inten    --      1.1792                 5.9131                 7.4908

                     40                     41                     42
                      A                      A                      A
 Frequencies --   1496.3215              1706.7745              2989.1347
 Red. masses --      1.0815                 6.8344                 1.0696
 Frc consts  --      1.4267                11.7301                 5.6306
 IR Inten    --      1.0523                 0.6170                54.2379

                     43                     44                     45
                      A                      A                      A
 Frequencies --   3014.7728              3019.6795              3055.5506
 Red. masses --      1.0624                 1.0379                 1.0977
 Frc consts  --      5.6891                 5.5758                 6.0382
 IR Inten    --     39.3508                27.1171                17.1878

                     46                     47                     48
                      A                      A                      A
 Frequencies --   3067.1031              3089.0311              3112.0448
 Red. masses --      1.0987                 1.0938                 1.0993
 Frc consts  --      6.0895                 6.1494                 6.2727
 IR Inten    --     16.5787                17.5211                17.9330

                     49                     50                     51
                      A                      A                      A
 Frequencies --   3149.6592              3187.4595              3835.9036
 Red. masses --      1.0910                 1.0935                 1.0665
 Frc consts  --      6.3769                 6.5459                 9.2459
 IR Inten    --     23.3814                16.4946                21.2272

 - Thermochemistry -
 -------------------
 Temperature   298.150 Kelvin.  Pressure   1.00000 Atm.
 Atom     1 has atomic number  6 and mass  12.00000

 Molecular mass:   126.06808 amu.
 Principal axes and moments of inertia in atomic units:
                           1         2         3
     Eigenvalues --   558.300381618.441181728.79631
           X            0.99972   0.00395   0.02336
           Y           -0.00728   0.98956   0.14394
           Z           -0.02254  -0.14407   0.98931
 This molecule is an asymmetric top.
 Rotational symmetry number  1.
 Warning -- assumption of classical behavior for rotation
           may cause significant error
 Rotational temperatures (Kelvin)      0.15514     0.05352     0.05010
 Rotational constants (GHZ):           3.23256     1.11511     1.04393
 Zero-point vibrational energy     414927.1 (Joules/Mol)
                                   99.16996 (Kcal/Mol)
 Warning -- explicit consideration of  12 degrees of freedom as
           vibrations may cause significant error
 Vibrational temperatures:     81.73   193.44   251.99   299.23   324.45
          (Kelvin)            368.56   430.07   524.09   573.98   704.48
                              797.54   854.99   948.34  1098.71  1167.88
                             1235.96  1280.88  1319.78  1371.21  1394.60
                             1476.82  1485.73  1525.19  1537.38  1549.52
                             1666.31  1706.71  1717.73  1784.27  1826.70
                             1917.50  1940.76  1998.68  1999.64  2036.98
                             2080.88  2104.92  2128.50  2143.04  2152.87
                             2455.66  4300.69  4337.58  4344.64  4396.25
                             4412.87  4444.42  4477.53  4531.65  4586.04
                             5519.00

 Zero-point correction=                           0.158037 (Hartree/Particle)
 Thermal correction to Energy=                    0.167023
 Thermal correction to Enthalpy=                  0.167967
 Thermal correction to Gibbs Free Energy=         0.124201
 Sum of electronic and zero-point Energies=           -423.016059
 Sum of electronic and thermal Energies=              -423.007074
 Sum of electronic and thermal Enthalpies=            -423.006129
 Sum of electronic and thermal Free Energies=         -423.049895

                     E (Thermal)             CV                S
                      KCal/Mol        Cal/Mol-Kelvin    Cal/Mol-Kelvin
 Total                  104.808             33.540             92.113
 Electronic               0.000              0.000              0.000
 Translational            0.889              2.981             40.409
 Rotational               0.889              2.981             28.837
 Vibrational            103.031             27.579             22.868
 Vibration     1          0.596              1.975              4.565
 Vibration     2          0.613              1.919              2.881
 Vibration     3          0.627              1.873              2.380
 Vibration     4          0.641              1.828              2.061
 Vibration     5          0.650              1.802              1.914
 Vibration     6          0.666              1.752              1.688
 Vibration     7          0.692              1.676              1.423
 Vibration     8          0.738              1.546              1.104
 Vibration     9          0.765              1.472              0.967
 Vibration    10          0.845              1.273              0.685
 Vibration    11          0.910              1.130              0.535
 Vibration    12          0.952              1.044              0.460

 Normal termination of Gaussian 09 at Tue Jan 28 10:07:45 2020.
