 Gaussian 09, Revision D.01,
 Gaussian 09:  ES64L-G09RevD.01 24-Apr-2013

 -----------------------------
 # b3lyp 6-31G(2df,p) opt Freq
 -----------------------------

 -----
 titel
 -----
 Symbolic Z-matrix:
 Charge =  0 Multiplicity = 1

 SCF Done:  E(RB3LYP) =  -423.164843963     A.U. after   12 cycles
 Optimization completed.
    -- Stationary point found.
 Normal termination of Gaussian 09 at Mon Jan 27 12:23:06 2020.

 ----------------------------------------------------------------------
 #N Geom=AllCheck Guess=TCheck SCRF=Check GenChk RB3LYP/6-31G(2df,p) Fr
 eq
 ----------------------------------------------------------------------

 Structure from the checkpoint file:  "/scratch/puck/g09_590a9266-b101-45e8-9e5a-dea1f394df1e/Gau-165744.chk"
 -----
 titel
 -----
 Charge =  0 Multiplicity = 1

                         Standard orientation:
 ---------------------------------------------------------------------
 Center     Atomic      Atomic             Coordinates (Angstroms)
 Number     Number       Type             X           Y           Z
 ---------------------------------------------------------------------
      1          6           0        2.090043    0.031810   -0.570487
      2          8           0        1.911077   -0.028403    0.869381
      3          6           0        0.488316   -0.011514    0.995915
      4          6           0        0.018278    1.085005   -0.006784
      5          6           0       -1.503364    1.197242   -0.142633
      6          6           0       -2.141185   -0.149332    0.218390
      7          8           0       -1.357709   -1.243589   -0.242253
      8          6           0        0.025448   -1.041208   -0.085297
      9          6           0        0.634721    0.061384   -1.021380
     10          1           0        2.657249    0.931481   -0.838289
     11          1           0        2.640810   -0.851941   -0.914335
     12          1           0        0.213880   -0.050612    2.049325
     13          1           0        0.512759    2.056876    0.076067
     14          1           0       -1.896936    1.971990    0.524916
     15          1           0       -1.760602    1.494505   -1.166231
     16          1           0       -2.253660   -0.217640    1.311328
     17          1           0       -3.133800   -0.269545   -0.223754
     18          1           0        0.505436   -2.022880   -0.074107
     19          1           0        0.414384    0.093380   -2.088279
 ---------------------------------------------------------------------

 SCF Done:  E(RB3LYP) =  -423.164843963     A.U. after    1 cycles

 The electronic state is 1-A.
 Alpha  occ. eigenvalues --  -19.14144 -19.13534 -10.23283 -10.23259 -10.23062
 Alpha  occ. eigenvalues --  -10.22642 -10.19431 -10.19164 -10.18958  -1.04971
 Alpha  occ. eigenvalues --   -1.02827  -0.83204  -0.77007  -0.72348  -0.64328
 Alpha  occ. eigenvalues --   -0.63279  -0.58076  -0.54139  -0.51227  -0.49792
 Alpha  occ. eigenvalues --   -0.47175  -0.45640  -0.42762  -0.41473  -0.39884
 Alpha  occ. eigenvalues --   -0.39113  -0.37458  -0.35344  -0.34637  -0.33521
 Alpha  occ. eigenvalues --   -0.32021  -0.28916  -0.24934  -0.22764
 Alpha virt. eigenvalues --    0.08245   0.10036   0.10987   0.12268   0.12871
 Alpha virt. eigenvalues --    0.13244   0.14029   0.15363   0.15561   0.16831
 Alpha virt. eigenvalues --    0.18059   0.18903   0.18953   0.21213   0.22286

 Mulliken charges:
               1
     1  C   -0.098040
     2  O   -0.284978
     3  C    0.054680
     4  C   -0.024660
     5  C   -0.260531
     6  C   -0.067454
     7  O   -0.281603
     8  C    0.134802
     9  C   -0.101486
    10  H    0.101662
    11  H    0.102949
    12  H    0.082949
    13  H    0.070185
    14  H    0.103233
    15  H    0.106301
    16  H    0.097190
    17  H    0.108827
    18  H    0.083517
    19  H    0.072459
 Sum of Mulliken charges =   0.00000

 Dipole moment (field-independent basis, Debye):
    X=             -0.8270    Y=              1.3070    Z=             -0.6997  Tot=              1.6976
 Quadrupole moment (field-independent basis, Debye-Ang):
   XX=            -54.1735   YY=            -54.0903   ZZ=            -52.4772
   XY=             -2.7316   XZ=             -4.5058   YZ=             -0.4784

  Exact polarizability:  85.067  -2.755  68.727  -4.473  -0.214  67.058
 Approx polarizability: 113.450  -1.994 104.012  -3.049   0.815 105.690

                      1                      2                      3
                      A                      A                      A
 Frequencies --    212.4893               255.3691               315.2119
 Red. masses --      2.2598                 2.4094                 2.2402
 Frc consts  --      0.0601                 0.0926                 0.1311
 IR Inten    --      1.9715                 1.7491                 0.7313

                      4                      5                      6
                      A                      A                      A
 Frequencies --    359.8571               368.9050               461.5470
 Red. masses --      4.3280                 3.5834                 4.5123
 Frc consts  --      0.3302                 0.2873                 0.5663
 IR Inten    --      5.8877                 2.9919                 0.3808

                      7                      8                      9
                      A                      A                      A
 Frequencies --    529.2683               648.3286               671.6466
 Red. masses --      5.4666                 3.8405                 3.0257
 Frc consts  --      0.9022                 0.9511                 0.8042
 IR Inten    --      2.1669                 2.3415                 3.6625

                     10                     11                     12
                      A                      A                      A
 Frequencies --    792.6960               847.7638               889.1803
 Red. masses --      2.4555                 2.1928                 2.4723
 Frc consts  --      0.9091                 0.9285                 1.1517
 IR Inten    --      1.8978                 2.0306                 5.0104

                     13                     14                     15
                      A                      A                      A
 Frequencies --    902.0126               925.6314               943.4427
 Red. masses --      3.0906                 2.7864                 1.8604
 Frc consts  --      1.4816                 1.4066                 0.9756
 IR Inten    --     13.6737                 9.9295                10.0349

                     16                     17                     18
                      A                      A                      A
 Frequencies --    957.9662               963.9742               992.4542
 Red. masses --      2.1879                 2.7196                 4.4344
 Frc consts  --      1.1830                 1.4890                 2.5734
 IR Inten    --     16.4487                12.6911                28.1064

                     19                     20                     21
                      A                      A                      A
 Frequencies --   1012.3199              1029.7124              1059.0347
 Red. masses --      3.1913                 1.3467                 1.3813
 Frc consts  --      1.9269                 0.8413                 0.9128
 IR Inten    --     30.4437                 2.9490                 7.7680

                     22                     23                     24
                      A                      A                      A
 Frequencies --   1085.8807              1103.5646              1124.8114
 Red. masses --      2.0218                 2.4360                 2.7783
 Frc consts  --      1.4046                 1.7479                 2.0710
 IR Inten    --      5.0864                 1.8738                24.3992

                     25                     26                     27
                      A                      A                      A
 Frequencies --   1148.9096              1174.9000              1207.2307
 Red. masses --      3.3606                 1.4226                 1.3645
 Frc consts  --      2.6136                 1.1570                 1.1716
 IR Inten    --     87.7682                19.7276                 0.7221

                     28                     29                     30
                      A                      A                      A
 Frequencies --   1217.8684              1237.0651              1255.9213
 Red. masses --      1.4413                 1.7522                 1.6241
 Frc consts  --      1.2595                 1.5798                 1.5094
 IR Inten    --      7.6231                 5.0987                 7.4059

                     31                     32                     33
                      A                      A                      A
 Frequencies --   1262.9806              1271.0923              1294.4940
 Red. masses --      1.2872                 1.4135                 1.4343
 Frc consts  --      1.2098                 1.3456                 1.4161
 IR Inten    --      5.1533                24.0520                 6.9251

                     34                     35                     36
                      A                      A                      A
 Frequencies --   1331.1514              1355.0078              1360.4861
 Red. masses --      1.4018                 1.3582                 1.4122
 Frc consts  --      1.4635                 1.4693                 1.5401
 IR Inten    --      0.5908                 7.4150                 3.6729

                     37                     38                     39
                      A                      A                      A
 Frequencies --   1403.7474              1416.4246              1489.3327
 Red. masses --      1.4587                 1.3580                 1.0871
 Frc consts  --      1.6935                 1.6053                 1.4207
 IR Inten    --      4.3164                 8.1852                 2.0808

                     40                     41                     42
                      A                      A                      A
 Frequencies --   1514.9642              1527.7099              2984.0250
 Red. masses --      1.0910                 1.0987                 1.0718
 Frc consts  --      1.4753                 1.5108                 5.6232
 IR Inten    --      0.5890                 0.2308                48.9494

                     43                     44                     45
                      A                      A                      A
 Frequencies --   3018.5095              3029.7689              3057.2626
 Red. masses --      1.0558                 1.0604                 1.1101
 Frc consts  --      5.6679                 5.7351                 6.1136
 IR Inten    --     73.9527                29.5448                24.2173

                     46                     47                     48
                      A                      A                      A
 Frequencies --   3066.7423              3073.7335              3084.3501
 Red. masses --      1.0942                 1.0929                 1.0880
 Frc consts  --      6.0632                 6.0835                 6.0980
 IR Inten    --     37.2369                51.3031                45.4336

                     49                     50                     51
                      A                      A                      A
 Frequencies --   3089.9862              3122.8173              3131.5314
 Red. masses --      1.0947                 1.0893                 1.0922
 Frc consts  --      6.1585                 6.2589                 6.3108
 IR Inten    --     33.6977                40.6170                19.1748

 - Thermochemistry -
 -------------------
 Temperature   298.150 Kelvin.  Pressure   1.00000 Atm.
 Atom     1 has atomic number  6 and mass  12.00000

 Molecular mass:   126.06808 amu.
 Principal axes and moments of inertia in atomic units:
                           1         2         3
     Eigenvalues --   504.204521152.578241259.22992
           X            0.99922  -0.02713  -0.02865
           Y            0.02635   0.99928  -0.02717
           Z            0.02937   0.02639   0.99922
 This molecule is an asymmetric top.
 Rotational symmetry number  1.
 Warning -- assumption of classical behavior for rotation
           may cause significant error
 Rotational temperatures (Kelvin)      0.17178     0.07515     0.06878
 Rotational constants (GHZ):           3.57938     1.56583     1.43321
 Zero-point vibrational energy     428149.9 (Joules/Mol)
                                  102.33029 (Kcal/Mol)
 Warning -- explicit consideration of   7 degrees of freedom as
           vibrations may cause significant error
 Vibrational temperatures:    305.72   367.42   453.52   517.75   530.77
          (Kelvin)            664.06   761.50   932.80   966.35  1140.51
                             1219.74  1279.33  1297.79  1331.78  1357.40
                             1378.30  1386.94  1427.92  1456.50  1481.52
                             1523.71  1562.34  1587.78  1618.35  1653.02
                             1690.42  1736.93  1752.24  1779.86  1806.99
                             1817.15  1828.82  1862.49  1915.23  1949.55
                             1957.43  2019.68  2037.92  2142.81  2179.69
                             2198.03  4293.34  4342.96  4359.16  4398.71
                             4412.35  4422.41  4437.69  4445.80  4493.03
                             4505.57

 Zero-point correction=                           0.163074 (Hartree/Particle)
 Thermal correction to Energy=                    0.169574
 Thermal correction to Enthalpy=                  0.170518
 Thermal correction to Gibbs Free Energy=         0.132535
 Sum of electronic and zero-point Energies=           -423.001770
 Sum of electronic and thermal Energies=              -422.995270
 Sum of electronic and thermal Enthalpies=            -422.994326
 Sum of electronic and thermal Free Energies=         -423.032309

                     E (Thermal)             CV                S
                      KCal/Mol        Cal/Mol-Kelvin    Cal/Mol-Kelvin
 Total                  106.409             27.344             79.942
 Electronic               0.000              0.000              0.000
 Translational            0.889              2.981             40.409
 Rotational               0.889              2.981             28.083
 Vibrational            104.632             21.383             11.450
 Vibration     1          0.644              1.822              2.022
 Vibration     2          0.666              1.754              1.693
 Vibration     3          0.703              1.645              1.335
 Vibration     4          0.734              1.555              1.123
 Vibration     5          0.741              1.536              1.084
 Vibration     6          0.819              1.335              0.762
 Vibration     7          0.884              1.185              0.589

 Optimization completed.
    -- Stationary point found.
 Normal termination of Gaussian 09 at Mon Jan 27 13:13:54 2020.
