 Gaussian 09, Revision D.01,
 Gaussian 09:  ES64L-G09RevD.01 24-Apr-2013

 -----------------------------
 # b3lyp 6-31G(2df,p) opt Freq
 -----------------------------

 -----
 titel
 -----
 Symbolic Z-matrix:
 Charge =  0 Multiplicity = 1

 SCF Done:  E(RB3LYP) =  -423.136414031     A.U. after   13 cycles
 Optimization completed.
    -- Stationary point found.
 Normal termination of Gaussian 09 at Tue Jan 28 11:43:20 2020.

 ----------------------------------------------------------------------
 #N Geom=AllCheck Guess=TCheck SCRF=Check GenChk RB3LYP/6-31G(2df,p) Fr
 eq
 ----------------------------------------------------------------------

 Structure from the checkpoint file:  "/scratch/puck/g09_097e79fd-e34f-4561-aa5c-9fbaa44e27fe/Gau-138279.chk"
 -----
 titel
 -----
 Charge =  0 Multiplicity = 1

                         Standard orientation:
 ---------------------------------------------------------------------
 Center     Atomic      Atomic             Coordinates (Angstroms)
 Number     Number       Type             X           Y           Z
 ---------------------------------------------------------------------
      1          6           0       -2.742273    0.853200   -0.273903
      2          8           0       -1.501884    0.748493    0.386230
      3          6           0       -0.962757   -0.559441    0.379487
      4          6           0       -0.362056   -0.961479   -0.998622
      5          8           0        0.996379   -1.323678   -0.774294
      6          6           0        1.459456   -0.585377    0.355640
      7          6           0        0.254300   -0.600659    1.320588
      8          6           0        1.897426    0.767685   -0.006910
      9          6           0        2.271964    1.868888   -0.309243
     10          1           0       -3.492146    0.175642    0.165357
     11          1           0       -3.084924    1.883941   -0.156256
     12          1           0       -2.668206    0.631223   -1.349265
     13          1           0       -1.738172   -1.271172    0.698616
     14          1           0       -0.851484   -1.821291   -1.463588
     15          1           0       -0.430524   -0.098521   -1.676016
     16          1           0        2.312869   -1.140614    0.757298
     17          1           0        0.267474   -1.536376    1.884334
     18          1           0        0.234884    0.237712    2.016820
     19          1           0        2.597915    2.844036   -0.575015
 ---------------------------------------------------------------------

 SCF Done:  E(RB3LYP) =  -423.136414031     A.U. after    1 cycles

 The electronic state is 1-A.
 Alpha  occ. eigenvalues --  -19.14268 -19.14262 -10.25405 -10.23825 -10.22714
 Alpha  occ. eigenvalues --  -10.22503 -10.18911 -10.17711 -10.17279  -1.04706
 Alpha  occ. eigenvalues --   -1.03027  -0.79051  -0.76447  -0.71927  -0.67998
 Alpha  occ. eigenvalues --   -0.62423  -0.58659  -0.53277  -0.51733  -0.50087
 Alpha  occ. eigenvalues --   -0.48054  -0.45412  -0.44751  -0.43467  -0.40948
 Alpha  occ. eigenvalues --   -0.38248  -0.36619  -0.35827  -0.34026  -0.31468
 Alpha  occ. eigenvalues --   -0.27807  -0.26422  -0.26021  -0.25067
 Alpha virt. eigenvalues --    0.04009   0.05069   0.08776   0.10425   0.11396
 Alpha virt. eigenvalues --    0.12819   0.13901   0.14285   0.15264   0.16038
 Alpha virt. eigenvalues --    0.17209   0.17691   0.18689   0.19713   0.21028

 Mulliken charges:
               1
     1  C   -0.240958
     2  O   -0.238161
     3  C    0.107902
     4  C   -0.097860
     5  O   -0.246626
     6  C   -0.090404
     7  C   -0.252067
     8  C    0.369423
     9  C   -0.491109
    10  H    0.103957
    11  H    0.130676
    12  H    0.107913
    13  H    0.069406
    14  H    0.107694
    15  H    0.110117
    16  H    0.110706
    17  H    0.109138
    18  H    0.131055
    19  H    0.199199
 Sum of Mulliken charges =   0.00000

 Dipole moment (field-independent basis, Debye):
    X=             -1.5838    Y=             -0.1310    Z=              0.4679  Tot=              1.6567
 Quadrupole moment (field-independent basis, Debye-Ang):
   XX=            -50.2389   YY=            -50.9494   ZZ=            -53.1688
   XY=              2.7728   XZ=              3.1935   YZ=             -3.5587

  Exact polarizability:  81.751   7.254  83.382   1.695  -5.562  64.676
 Approx polarizability: 103.479  12.608 133.259   0.636  -9.268  95.020

                      1                      2                      3
                      A                      A                      A
 Frequencies --     28.3571                97.9173               128.4397
 Red. masses --      3.5836                 2.6072                 2.9564
 Frc consts  --      0.0017                 0.0147                 0.0287
 IR Inten    --      0.7538                 4.8456                 1.0301

                      4                      5                      6
                      A                      A                      A
 Frequencies --    174.0973               202.3717               259.4650
 Red. masses --      3.5103                 1.1962                 3.6629
 Frc consts  --      0.0627                 0.0289                 0.1453
 IR Inten    --      1.2783                 1.0619                 5.4283

                      7                      8                      9
                      A                      A                      A
 Frequencies --    292.2199               401.7260               450.5435
 Red. masses --      2.8069                 2.5558                 3.2275
 Frc consts  --      0.1412                 0.2430                 0.3860
 IR Inten    --      1.5416                 0.8564                 3.0568

                     10                     11                     12
                      A                      A                      A
 Frequencies --    473.5040               549.1773               623.3074
 Red. masses --      4.8663                 6.8861                 1.2329
 Frc consts  --      0.6428                 1.2236                 0.2822
 IR Inten    --      2.1625                10.2103                41.7027

                     13                     14                     15
                      A                      A                      A
 Frequencies --    668.6891               682.3415               763.9096
 Red. masses --      1.2873                 3.5194                 3.6421
 Frc consts  --      0.3391                 0.9654                 1.2522
 IR Inten    --     33.8302                 5.4984                 1.2288

                     16                     17                     18
                      A                      A                      A
 Frequencies --    819.5172               849.5506               935.3191
 Red. masses --      2.9802                 2.8152                 3.6012
 Frc consts  --      1.1793                 1.1971                 1.8562
 IR Inten    --     16.1271                 4.0906                13.1232

                     19                     20                     21
                      A                      A                      A
 Frequencies --    950.7273               986.4449              1002.4217
 Red. masses --      2.7166                 2.6209                 2.3597
 Frc consts  --      1.4467                 1.5026                 1.3971
 IR Inten    --      3.0021                14.9699                24.0232

                     22                     23                     24
                      A                      A                      A
 Frequencies --   1071.0173              1093.5212              1098.2172
 Red. masses --      2.6107                 2.2330                 6.7101
 Frc consts  --      1.7644                 1.5733                 4.7682
 IR Inten    --      8.7099                 4.1407               139.3167

                     25                     26                     27
                      A                      A                      A
 Frequencies --   1151.0057              1182.6003              1202.0285
 Red. masses --      3.9405                 1.3042                 1.2171
 Frc consts  --      3.0758                 1.0747                 1.0361
 IR Inten    --    102.5484                 6.9505                 5.2422

                     28                     29                     30
                      A                      A                      A
 Frequencies --   1223.8416              1254.6479              1260.6608
 Red. masses --      1.3616                 1.5390                 1.3632
 Frc consts  --      1.2015                 1.4273                 1.2765
 IR Inten    --     37.6699                 2.1798                19.3475

                     31                     32                     33
                      A                      A                      A
 Frequencies --   1314.3181              1326.8110              1355.2665
 Red. masses --      1.3896                 1.3680                 1.2434
 Frc consts  --      1.4142                 1.4189                 1.3455
 IR Inten    --      4.8839                 0.7461                22.4114

                     34                     35                     36
                      A                      A                      A
 Frequencies --   1368.7581              1406.9545              1472.3990
 Red. masses --      1.2812                 1.3290                 1.0948
 Frc consts  --      1.4142                 1.5500                 1.3984
 IR Inten    --     15.5171                15.7068                 6.3810

                     37                     38                     39
                      A                      A                      A
 Frequencies --   1479.1238              1490.1903              1501.2502
 Red. masses --      1.1185                 1.0788                 1.0892
 Frc consts  --      1.4417                 1.4115                 1.4464
 IR Inten    --      1.7437                 3.7352                 0.3034

                     40                     41                     42
                      A                      A                      A
 Frequencies --   1509.2666              2232.7480              2970.1189
 Red. masses --      1.0610                 5.8953                 1.0397
 Frc consts  --      1.4239                17.3154                 5.4039
 IR Inten    --      5.1029                 1.7817                44.9828

                     43                     44                     45
                      A                      A                      A
 Frequencies --   2990.3296              3007.0232              3019.6253
 Red. masses --      1.0833                 1.0679                 1.0990
 Frc consts  --      5.7074                 5.6894                 5.9043
 IR Inten    --     53.0937                30.5580                61.8911

                     46                     47                     48
                      A                      A                      A
 Frequencies --   3060.3058              3080.3858              3092.4693
 Red. masses --      1.0828                 1.0664                 1.0977
 Frc consts  --      5.9746                 5.9619                 6.1853
 IR Inten    --     12.5159                24.5205                36.4339

                     49                     50                     51
                      A                      A                      A
 Frequencies --   3116.1199              3146.4033              3503.7367
 Red. masses --      1.0958                 1.1029                 1.1625
 Frc consts  --      6.2690                 6.4328                 8.4085
 IR Inten    --     26.4993                 7.6641                57.4939

 - Thermochemistry -
 -------------------
 Temperature   298.150 Kelvin.  Pressure   1.00000 Atm.
 Atom     1 has atomic number  6 and mass  12.00000

 Molecular mass:   126.06808 amu.
 Principal axes and moments of inertia in atomic units:
                           1         2         3
     Eigenvalues --   731.700181418.590861680.43861
           X            0.99979   0.00198   0.02039
           Y           -0.00085   0.99847  -0.05529
           Z           -0.02046   0.05526   0.99826
 This molecule is an asymmetric top.
 Rotational symmetry number  1.
 Warning -- assumption of classical behavior for rotation
           may cause significant error
 Rotational temperatures (Kelvin)      0.11837     0.06106     0.05154
 Rotational constants (GHZ):           2.46650     1.27221     1.07397
 Zero-point vibrational energy     414632.8 (Joules/Mol)
                                   99.09962 (Kcal/Mol)
 Warning -- explicit consideration of  11 degrees of freedom as
           vibrations may cause significant error
 Vibrational temperatures:     40.80   140.88   184.80   250.49   291.17
          (Kelvin)            373.31   420.44   577.99   648.23   681.27
                              790.14   896.80   962.09   981.74  1099.09
                             1179.10  1222.31  1345.71  1367.88  1419.27
                             1442.26  1540.95  1573.33  1580.09  1656.04
                             1701.50  1729.45  1760.83  1805.16  1813.81
                             1891.01  1908.98  1949.92  1969.34  2024.29
                             2118.45  2128.13  2144.05  2159.96  2171.50
                             3212.42  4273.33  4302.41  4326.43  4344.56
                             4403.09  4431.98  4449.37  4483.40  4526.97
                             5041.09

 Zero-point correction=                           0.157925 (Hartree/Particle)
 Thermal correction to Energy=                    0.167162
 Thermal correction to Enthalpy=                  0.168106
 Thermal correction to Gibbs Free Energy=         0.122906
 Sum of electronic and zero-point Energies=           -422.978489
 Sum of electronic and thermal Energies=              -422.969252
 Sum of electronic and thermal Enthalpies=            -422.968308
 Sum of electronic and thermal Free Energies=         -423.013509

                     E (Thermal)             CV                S
                      KCal/Mol        Cal/Mol-Kelvin    Cal/Mol-Kelvin
 Total                  104.896             33.615             95.133
 Electronic               0.000              0.000              0.000
 Translational            0.889              2.981             40.409
 Rotational               0.889              2.981             28.946
 Vibrational            103.118             27.654             25.778
 Vibration     1          0.593              1.984              5.941
 Vibration     2          0.603              1.951              3.495
 Vibration     3          0.611              1.925              2.969
 Vibration     4          0.627              1.874              2.391
 Vibration     5          0.639              1.837              2.111
 Vibration     6          0.668              1.747              1.665
 Vibration     7          0.688              1.688              1.461
 Vibration     8          0.767              1.466              0.956
 Vibration     9          0.809              1.360              0.794
 Vibration    10          0.830              1.309              0.728
 Vibration    11          0.904              1.141              0.546

 Normal termination of Gaussian 09 at Tue Jan 28 12:23:14 2020.
