 Gaussian 09, Revision D.01,
 Gaussian 09:  ES64L-G09RevD.01 24-Apr-2013

 -----------------------------
 # b3lyp 6-31G(2df,p) opt Freq
 -----------------------------

 -----
 titel
 -----
 Symbolic Z-matrix:
 Charge =  0 Multiplicity = 1

 SCF Done:  E(RB3LYP) =  -423.128055011     A.U. after   14 cycles
 Optimization completed.
    -- Stationary point found.
 Normal termination of Gaussian 09 at Mon Jan 27 12:07:25 2020.

 ----------------------------------------------------------------------
 #N Geom=AllCheck Guess=TCheck SCRF=Check GenChk RB3LYP/6-31G(2df,p) Fr
 eq
 ----------------------------------------------------------------------

 Structure from the checkpoint file:  "/scratch/puck/g09_bebfa322-5b23-4cc0-b297-815154882c51/Gau-18725.chk"
 -----
 titel
 -----
 Charge =  0 Multiplicity = 1

                         Standard orientation:
 ---------------------------------------------------------------------
 Center     Atomic      Atomic             Coordinates (Angstroms)
 Number     Number       Type             X           Y           Z
 ---------------------------------------------------------------------
      1          6           0       -2.514030   -1.009523    0.446587
      2          8           0       -2.930003    0.268348   -0.027610
      3          6           0       -1.601871   -0.165621   -0.339162
      4          6           0       -0.490401    0.582244    0.311416
      5          8           0        0.224458    1.514724   -0.520660
      6          6           0        0.915644    0.372537   -0.054974
      7          6           0        2.148815    0.401749    0.851943
      8          6           0        2.585917   -0.942331    0.193875
      9          6           0        1.541218   -0.712533   -0.940242
     10          1           0       -2.381513   -1.087922    1.525377
     11          1           0       -2.989758   -1.868448   -0.024583
     12          1           0       -1.440232   -0.404229   -1.389786
     13          1           0       -0.722950    0.954035    1.310772
     14          1           0        2.810425    1.231397    0.585815
     15          1           0        1.984345    0.413610    1.931918
     16          1           0        3.629957   -1.019722   -0.112604
     17          1           0        2.338279   -1.806514    0.814336
     18          1           0        1.988052   -0.276660   -1.838604
     19          1           0        0.916014   -1.559248   -1.233134
 ---------------------------------------------------------------------

 SCF Done:  E(RB3LYP) =  -423.128055011     A.U. after    1 cycles

 The electronic state is 1-A.
 Alpha  occ. eigenvalues --  -19.15535 -19.15100 -10.24384 -10.24349 -10.24035
 Alpha  occ. eigenvalues --  -10.23939 -10.19239 -10.18999 -10.18848  -1.08023
 Alpha  occ. eigenvalues --   -1.06924  -0.84094  -0.72329  -0.67427  -0.66062
 Alpha  occ. eigenvalues --   -0.63954  -0.59963  -0.54819  -0.51308  -0.49676
 Alpha  occ. eigenvalues --   -0.48564  -0.47514  -0.43430  -0.41175  -0.39940
 Alpha  occ. eigenvalues --   -0.39409  -0.36198  -0.35881  -0.33830  -0.32782
 Alpha  occ. eigenvalues --   -0.32060  -0.29015  -0.26813  -0.26211
 Alpha virt. eigenvalues --    0.05736   0.08692   0.09716   0.10692   0.11210
 Alpha virt. eigenvalues --    0.11764   0.13049   0.13613   0.16367   0.17072
 Alpha virt. eigenvalues --    0.17324   0.17873   0.19035   0.19576   0.20739

 Mulliken charges:
               1
     1  C   -0.183970
     2  O   -0.230030
     3  C    0.068384
     4  C   -0.083315
     5  O   -0.290882
     6  C    0.452173
     7  C   -0.312318
     8  C   -0.211481
     9  C   -0.313012
    10  H    0.114447
    11  H    0.119093
    12  H    0.105102
    13  H    0.100309
    14  H    0.118747
    15  H    0.106511
    16  H    0.107860
    17  H    0.108601
    18  H    0.118615
    19  H    0.105166
 Sum of Mulliken charges =   0.00000

 Dipole moment (field-independent basis, Debye):
    X=              1.6143    Y=             -2.7122    Z=              0.9489  Tot=              3.2958
 Quadrupole moment (field-independent basis, Debye-Ang):
   XX=            -55.8426   YY=            -55.2039   ZZ=            -51.0853
   XY=              4.0800   XZ=             -1.1207   YZ=              1.5056

  Exact polarizability:  92.174   3.502  68.259  -2.776   0.893  68.596
 Approx polarizability: 117.662   2.242 105.295  -5.787  -3.558 102.537

                      1                      2                      3
                      A                      A                      A
 Frequencies --     58.2866               104.6919               137.9449
 Red. masses --      3.4643                 2.4065                 3.3749
 Frc consts  --      0.0069                 0.0155                 0.0378
 IR Inten    --      1.0385                 0.8817                 1.9052

                      4                      5                      6
                      A                      A                      A
 Frequencies --    157.0672               305.8821               342.5223
 Red. masses --      2.5475                 3.7001                 3.0006
 Frc consts  --      0.0370                 0.2040                 0.2074
 IR Inten    --      0.5809                 2.4297                 4.2504

                      7                      8                      9
                      A                      A                      A
 Frequencies --    385.8522               424.5965               513.9207
 Red. masses --      3.2530                 3.5469                 4.7034
 Frc consts  --      0.2853                 0.3768                 0.7319
 IR Inten    --      3.1141                 1.9532                18.6624

                     10                     11                     12
                      A                      A                      A
 Frequencies --    581.1978               716.5495               780.3488
 Red. masses --      4.1889                 1.4114                 1.2425
 Frc consts  --      0.8337                 0.4270                 0.4458
 IR Inten    --      1.3104                 0.7315                 0.5353

                     13                     14                     15
                      A                      A                      A
 Frequencies --    839.4540               854.8115               855.5228
 Red. masses --      1.7623                 6.8908                 2.2710
 Frc consts  --      0.7317                 2.9666                 0.9793
 IR Inten    --     27.3041                21.1070                13.7205

                     16                     17                     18
                      A                      A                      A
 Frequencies --    889.1966               913.6545               924.9859
 Red. masses --      3.0663                 2.7057                 2.7809
 Frc consts  --      1.4284                 1.3308                 1.4019
 IR Inten    --      1.5563                11.3575                 0.5840

                     19                     20                     21
                      A                      A                      A
 Frequencies --    958.9444               999.1151              1028.0303
 Red. masses --      2.9606                 3.1967                 1.1663
 Frc consts  --      1.6040                 1.8801                 0.7262
 IR Inten    --     40.1849                14.3052                 1.3725

                     22                     23                     24
                      A                      A                      A
 Frequencies --   1058.9059              1099.3180              1141.1210
 Red. masses --      1.8370                 1.4333                 2.3839
 Frc consts  --      1.2136                 1.0205                 1.8289
 IR Inten    --      5.6972                 3.2098                11.3299

                     25                     26                     27
                      A                      A                      A
 Frequencies --   1150.7052              1159.0466              1161.5904
 Red. masses --      1.7395                 1.4245                 1.6356
 Frc consts  --      1.3571                 1.1275                 1.3003
 IR Inten    --      0.9335                 1.0013                 6.8000

                     28                     29                     30
                      A                      A                      A
 Frequencies --   1183.1005              1206.2403              1225.3866
 Red. masses --      1.9247                 1.4531                 1.3466
 Frc consts  --      1.5873                 1.2457                 1.1913
 IR Inten    --      1.3830                 0.0933                 2.5228

                     31                     32                     33
                      A                      A                      A
 Frequencies --   1245.2811              1267.5646              1276.9290
 Red. masses --      1.1729                 1.4602                 1.5194
 Frc consts  --      1.0716                 1.3823                 1.4597
 IR Inten    --      0.3542                 1.2422                 1.1299

                     34                     35                     36
                      A                      A                      A
 Frequencies --   1285.2827              1309.1291              1408.9307
 Red. masses --      1.5045                 1.3420                 2.3856
 Frc consts  --      1.4644                 1.3551                 2.7902
 IR Inten    --      6.2318                20.1762                 4.1235

                     37                     38                     39
                      A                      A                      A
 Frequencies --   1467.8396              1480.6306              1493.7375
 Red. masses --      1.0934                 1.0894                 1.3340
 Frc consts  --      1.3880                 1.4071                 1.7537
 IR Inten    --      2.6970                 1.4490                 4.1253

                     40                     41                     42
                      A                      A                      A
 Frequencies --   1517.4585              1537.0901              3057.5653
 Red. masses --      1.4821                 2.0232                 1.0574
 Frc consts  --      2.0108                 2.8163                 5.8244
 IR Inten    --      6.8276                16.1330                41.1988

                     43                     44                     45
                      A                      A                      A
 Frequencies --   3061.3067              3075.3243              3080.5963
 Red. masses --      1.0588                 1.0616                 1.0501
 Frc consts  --      5.8462                 5.9157                 5.8715
 IR Inten    --      5.1939                30.6286                24.7338

                     46                     47                     48
                      A                      A                      A
 Frequencies --   3101.0597              3107.2431              3112.1708
 Red. masses --      1.0876                 1.1060                 1.1071
 Frc consts  --      6.1623                 6.2915                 6.3180
 IR Inten    --      9.7199                12.1474                 7.8894

                     49                     50                     51
                      A                      A                      A
 Frequencies --   3124.2520              3133.7186              3166.9482
 Red. masses --      1.0894                 1.1079                 1.1190
 Frc consts  --      6.2652                 6.4100                 6.6126
 IR Inten    --     17.8964                38.1104                26.2902

 - Thermochemistry -
 -------------------
 Temperature   298.150 Kelvin.  Pressure   1.00000 Atm.
 Atom     1 has atomic number  6 and mass  12.00000

 Molecular mass:   126.06808 amu.
 Principal axes and moments of inertia in atomic units:
                           1         2         3
     Eigenvalues --   477.696411853.842782012.57920
           X            0.99998   0.00565  -0.00024
           Y           -0.00563   0.99813   0.06087
           Z            0.00059  -0.06087   0.99815
 This molecule is an asymmetric top.
 Rotational symmetry number  1.
 Warning -- assumption of classical behavior for rotation
           may cause significant error
 Rotational temperatures (Kelvin)      0.18132     0.04672     0.04304
 Rotational constants (GHZ):           3.77801     0.97351     0.89673
 Zero-point vibrational energy     415511.2 (Joules/Mol)
                                   99.30956 (Kcal/Mol)
 Warning -- explicit consideration of  10 degrees of freedom as
           vibrations may cause significant error
 Vibrational temperatures:     83.86   150.63   198.47   225.98   440.10
          (Kelvin)            492.81   555.15   610.90   739.42   836.21
                             1030.95  1122.75  1207.79  1229.88  1230.90
                             1279.35  1314.54  1330.85  1379.71  1437.50
                             1479.10  1523.53  1581.67  1641.82  1655.61
                             1667.61  1671.27  1702.22  1735.51  1763.06
                             1791.68  1823.74  1837.21  1849.23  1883.54
                             2027.13  2111.89  2130.29  2149.15  2183.28
                             2211.53  4399.15  4404.53  4424.70  4432.29
                             4461.73  4470.62  4477.71  4495.10  4508.72
                             4556.53

 Zero-point correction=                           0.158260 (Hartree/Particle)
 Thermal correction to Energy=                    0.166642
 Thermal correction to Enthalpy=                  0.167586
 Thermal correction to Gibbs Free Energy=         0.124512
 Sum of electronic and zero-point Energies=           -422.969795
 Sum of electronic and thermal Energies=              -422.961413
 Sum of electronic and thermal Enthalpies=            -422.960469
 Sum of electronic and thermal Free Energies=         -423.003543

                     E (Thermal)             CV                S
                      KCal/Mol        Cal/Mol-Kelvin    Cal/Mol-Kelvin
 Total                  104.569             31.399             90.658
 Electronic               0.000              0.000              0.000
 Translational            0.889              2.981             40.409
 Rotational               0.889              2.981             28.968
 Vibrational            102.792             25.438             21.282
 Vibration     1          0.596              1.974              4.514
 Vibration     2          0.605              1.945              3.365
 Vibration     3          0.614              1.915              2.832
 Vibration     4          0.621              1.895              2.585
 Vibration     5          0.696              1.663              1.385
 Vibration     6          0.722              1.590              1.200
 Vibration     7          0.755              1.500              1.016
 Vibration     8          0.787              1.417              0.876
 Vibration     9          0.869              1.219              0.624
 Vibration    10          0.938              1.072              0.483

 Optimization completed.
    -- Stationary point found.
 Normal termination of Gaussian 09 at Mon Jan 27 12:52:32 2020.
