 Gaussian 09, Revision D.01,
 Gaussian 09:  ES64L-G09RevD.01 24-Apr-2013

 -----------------------------
 # b3lyp 6-31G(2df,p) opt Freq
 -----------------------------

 -----
 titel
 -----
 Symbolic Z-matrix:
 Charge =  0 Multiplicity = 1

 SCF Done:  E(RB3LYP) =  -423.162854139     A.U. after   14 cycles
 Optimization completed.
    -- Stationary point found.
 Normal termination of Gaussian 09 at Tue Jan 28 02:54:45 2020.

 ----------------------------------------------------------------------
 #N Geom=AllCheck Guess=TCheck SCRF=Check GenChk RB3LYP/6-31G(2df,p) Fr
 eq
 ----------------------------------------------------------------------

 Structure from the checkpoint file:  "/scratch/puck/g09_a48d1f15-fb7e-4282-99b1-eceb50f5ab50/Gau-6233.chk"
 -----
 titel
 -----
 Charge =  0 Multiplicity = 1

                         Standard orientation:
 ---------------------------------------------------------------------
 Center     Atomic      Atomic             Coordinates (Angstroms)
 Number     Number       Type             X           Y           Z
 ---------------------------------------------------------------------
      1          6           0        2.957194   -0.122344   -0.690920
      2          6           0        1.523634   -0.489807   -0.325065
      3          6           0        1.225273   -0.438970    1.216207
      4          6           0        0.244219    0.711455    0.973863
      5          6           0        0.523172    0.660120   -0.524742
      6          6           0       -0.873322    0.358017    0.000733
      7          8           0       -1.774485    1.398042   -0.203177
      8          6           0       -1.516105   -0.970264   -0.069190
      9          8           0       -2.706770   -1.076000   -0.284524
     10          1           0        3.074308   -0.017431   -1.774852
     11          1           0        3.248254    0.827667   -0.229123
     12          1           0        3.655603   -0.893462   -0.348645
     13          1           0        1.255084   -1.429717   -0.819142
     14          1           0        0.834492   -1.342727    1.692759
     15          1           0        2.104463   -0.112872    1.778073
     16          1           0        0.072970    1.572383    1.608376
     17          1           0        0.608097    1.475774   -1.233678
     18          1           0       -2.627364    0.954639   -0.339922
     19          1           0       -0.880265   -1.859832    0.082460
 ---------------------------------------------------------------------

 SCF Done:  E(RB3LYP) =  -423.162854139     A.U. after    1 cycles

 The electronic state is 1-A.
 Alpha  occ. eigenvalues --  -19.14897 -19.14082 -10.27603 -10.25288 -10.20683
 Alpha  occ. eigenvalues --  -10.20592 -10.20462 -10.19759 -10.18521  -1.06449
 Alpha  occ. eigenvalues --   -1.02401  -0.90242  -0.76934  -0.70319  -0.66967
 Alpha  occ. eigenvalues --   -0.63455  -0.55653  -0.54362  -0.53110  -0.50721
 Alpha  occ. eigenvalues --   -0.48136  -0.44150  -0.43879  -0.42352  -0.40144
 Alpha  occ. eigenvalues --   -0.39582  -0.36870  -0.36533  -0.35015  -0.34172
 Alpha  occ. eigenvalues --   -0.32952  -0.29615  -0.25495  -0.24303
 Alpha virt. eigenvalues --   -0.03376   0.08021   0.09236   0.10082   0.11620
 Alpha virt. eigenvalues --    0.11985   0.14657   0.15375   0.16418   0.16563
 Alpha virt. eigenvalues --    0.16960   0.17871   0.19144   0.19710   0.21569

 Mulliken charges:
               1
     1  C   -0.404552
     2  C    0.001640
     3  C   -0.270875
     4  C   -0.110927
     5  C   -0.115274
     6  C    0.352608
     7  O   -0.484471
     8  C    0.072716
     9  O   -0.295400
    10  H    0.119833
    11  H    0.120107
    12  H    0.117739
    13  H    0.073800
    14  H    0.101844
    15  H    0.113089
    16  H    0.108585
    17  H    0.105669
    18  H    0.296087
    19  H    0.097784
 Sum of Mulliken charges =   0.00000

 Dipole moment (field-independent basis, Debye):
    X=              2.7950    Y=             -0.5410    Z=              0.4403  Tot=              2.8808
 Quadrupole moment (field-independent basis, Debye-Ang):
   XX=            -58.1592   YY=            -55.1632   ZZ=            -52.1667
   XY=             -1.6748   XZ=             -0.7039   YZ=             -0.2090

  Exact polarizability:  96.863   1.465  71.123   1.821  -0.293  65.257
 Approx polarizability: 135.565   6.584 109.805   5.770   0.634 101.233

                      1                      2                      3
                      A                      A                      A
 Frequencies --     91.8950               146.9783               200.0681
 Red. masses --      4.7036                 3.2125                 3.2248
 Frc consts  --      0.0234                 0.0409                 0.0761
 IR Inten    --      0.0402                 0.4182                 0.8689

                      4                      5                      6
                      A                      A                      A
 Frequencies --    225.9090               264.6932               276.2933
 Red. masses --      2.0604                 1.3594                 2.5064
 Frc consts  --      0.0620                 0.0561                 0.1127
 IR Inten    --      2.6712                 2.0331                 2.5803

                      7                      8                      9
                      A                      A                      A
 Frequencies --    334.9363               398.0837               444.0102
 Red. masses --      4.9369                 1.7856                 2.1949
 Frc consts  --      0.3263                 0.1667                 0.2549
 IR Inten    --     15.7647                27.7780                31.5978

                     10                     11                     12
                      A                      A                      A
 Frequencies --    454.6852               477.6393               553.2325
 Red. masses --      2.4355                 1.9369                 4.5766
 Frc consts  --      0.2967                 0.2603                 0.8253
 IR Inten    --     12.3306                13.6977                 4.6342

                     13                     14                     15
                      A                      A                      A
 Frequencies --    702.2058               805.7482               830.5529
 Red. masses --      2.7373                 3.0617                 2.6491
 Frc consts  --      0.7952                 1.1712                 1.0767
 IR Inten    --      3.3366                 2.4289                 4.6060

                     16                     17                     18
                      A                      A                      A
 Frequencies --    850.2373               889.3457               904.3088
 Red. masses --      2.1579                 1.8699                 1.9506
 Frc consts  --      0.9191                 0.8714                 0.9398
 IR Inten    --     12.9390                 9.6994                30.9986

                     19                     20                     21
                      A                      A                      A
 Frequencies --    930.4701               946.3581               998.5532
 Red. masses --      2.2125                 1.7343                 2.0153
 Frc consts  --      1.1286                 0.9151                 1.1839
 IR Inten    --     15.1291                18.5889                 9.0420

                     22                     23                     24
                      A                      A                      A
 Frequencies --   1014.9432              1049.0918              1061.3183
 Red. masses --      1.2074                 1.8312                 1.8936
 Frc consts  --      0.7328                 1.1874                 1.2567
 IR Inten    --      0.4995                 2.1918                 6.1737

                     25                     26                     27
                      A                      A                      A
 Frequencies --   1110.3657              1117.7952              1154.9867
 Red. masses --      1.7149                 1.9187                 1.9531
 Frc consts  --      1.2457                 1.4125                 1.5350
 IR Inten    --      5.3349                 1.8217                68.8030

                     28                     29                     30
                      A                      A                      A
 Frequencies --   1191.9658              1236.5374              1247.2090
 Red. masses --      1.5000                 1.4959                 1.6352
 Frc consts  --      1.2556                 1.3476                 1.4987
 IR Inten    --      8.2480                 4.2557                10.8607

                     31                     32                     33
                      A                      A                      A
 Frequencies --   1285.8817              1289.3429              1344.1494
 Red. masses --      1.8141                 1.8868                 2.3775
 Frc consts  --      1.7673                 1.8481                 2.5308
 IR Inten    --      8.1730                31.9714                29.4824

                     34                     35                     36
                      A                      A                      A
 Frequencies --   1368.0111              1389.7840              1410.0051
 Red. masses --      1.7144                 1.2292                 1.2427
 Frc consts  --      1.8903                 1.3988                 1.4557
 IR Inten    --     15.4048                70.3038                 1.6829

                     37                     38                     39
                      A                      A                      A
 Frequencies --   1479.5875              1492.3892              1494.9998
 Red. masses --      1.8536                 1.0524                 1.0829
 Frc consts  --      2.3909                 1.3810                 1.4260
 IR Inten    --     29.4305                 4.0462                 1.5904

                     40                     41                     42
                      A                      A                      A
 Frequencies --   1501.7197              1772.8216              2977.2549
 Red. masses --      1.0631                 9.7576                 1.0856
 Frc consts  --      1.4126                18.0686                 5.6695
 IR Inten    --      1.6983               243.0683                40.7750

                     43                     44                     45
                      A                      A                      A
 Frequencies --   3026.8463              3038.7564              3053.7258
 Red. masses --      1.0346                 1.0835                 1.0606
 Frc consts  --      5.5850                 5.8948                 5.8272
 IR Inten    --     26.1624                24.0049                41.5810

                     46                     47                     48
                      A                      A                      A
 Frequencies --   3095.7276              3099.2096              3103.2339
 Red. masses --      1.1037                 1.1018                 1.1047
 Frc consts  --      6.2317                 6.2353                 6.2680
 IR Inten    --     19.2869                23.6335                34.6277

                     49                     50                     51
                      A                      A                      A
 Frequencies --   3181.7033              3195.0913              3686.5705
 Red. masses --      1.0889                 1.0954                 1.0645
 Frc consts  --      6.4944                 6.5887                 8.5243
 IR Inten    --      8.2984                 7.4555                81.4939

 - Thermochemistry -
 -------------------
 Temperature   298.150 Kelvin.  Pressure   1.00000 Atm.
 Atom     1 has atomic number  6 and mass  12.00000

 Molecular mass:   126.06808 amu.
 Principal axes and moments of inertia in atomic units:
                           1         2         3
     Eigenvalues --   533.866301651.357021786.97944
           X            0.99989  -0.01200  -0.00857
           Y            0.01180   0.99966  -0.02323
           Z            0.00885   0.02312   0.99969
 This molecule is an asymmetric top.
 Rotational symmetry number  1.
 Warning -- assumption of classical behavior for rotation
           may cause significant error
 Rotational temperatures (Kelvin)      0.16224     0.05245     0.04847
 Rotational constants (GHZ):           3.38051     1.09288     1.00994
 Zero-point vibrational energy     413891.3 (Joules/Mol)
                                   98.92240 (Kcal/Mol)
 Warning -- explicit consideration of  12 degrees of freedom as
           vibrations may cause significant error
 Vibrational temperatures:    132.22   211.47   287.85   325.03   380.83
          (Kelvin)            397.52   481.90   572.75   638.83   654.19
                              687.22   795.98  1010.32  1159.29  1194.98
                             1223.30  1279.57  1301.10  1338.74  1361.60
                             1436.69  1460.28  1509.41  1527.00  1597.57
                             1608.26  1661.77  1714.97  1779.10  1794.45
                             1850.09  1855.07  1933.93  1968.26  1999.59
                             2028.68  2128.79  2147.21  2150.97  2160.64
                             2550.69  4283.60  4354.95  4372.09  4393.62
                             4454.06  4459.07  4464.86  4577.76  4597.02
                             5304.15

 Zero-point correction=                           0.157643 (Hartree/Particle)
 Thermal correction to Energy=                    0.166369
 Thermal correction to Enthalpy=                  0.167313
 Thermal correction to Gibbs Free Energy=         0.124525
 Sum of electronic and zero-point Energies=           -423.005211
 Sum of electronic and thermal Energies=              -422.996485
 Sum of electronic and thermal Enthalpies=            -422.995541
 Sum of electronic and thermal Free Energies=         -423.038329

                     E (Thermal)             CV                S
                      KCal/Mol        Cal/Mol-Kelvin    Cal/Mol-Kelvin
 Total                  104.398             33.529             90.054
 Electronic               0.000              0.000              0.000
 Translational            0.889              2.981             40.409
 Rotational               0.889              2.981             28.845
 Vibrational            102.621             27.568             20.800
 Vibration     1          0.602              1.955              3.619
 Vibration     2          0.617              1.906              2.711
 Vibration     3          0.638              1.840              2.132
 Vibration     4          0.650              1.802              1.911
 Vibration     5          0.671              1.738              1.631
 Vibration     6          0.678              1.717              1.557
 Vibration     7          0.716              1.606              1.236
 Vibration     8          0.764              1.474              0.970
 Vibration     9          0.804              1.374              0.814
 Vibration    10          0.813              1.351              0.782
 Vibration    11          0.834              1.300              0.716
 Vibration    12          0.909              1.133              0.538

 Optimization completed.
    -- Stationary point found.
 Normal termination of Gaussian 09 at Tue Jan 28 03:36:14 2020.
