 Gaussian 09, Revision D.01,
 Gaussian 09:  ES64L-G09RevD.01 24-Apr-2013

 -----------------------------
 # b3lyp 6-31G(2df,p) opt Freq
 -----------------------------

 -----
 titel
 -----
 Symbolic Z-matrix:
 Charge =  0 Multiplicity = 1

 SCF Done:  E(RB3LYP) =  -423.131492972     A.U. after   14 cycles
 Optimization completed.
    -- Stationary point found.
 Normal termination of Gaussian 09 at Tue Jan 28 13:24:35 2020.

 ----------------------------------------------------------------------
 #N Geom=AllCheck Guess=TCheck SCRF=Check GenChk RB3LYP/6-31G(2df,p) Fr
 eq
 ----------------------------------------------------------------------

 Structure from the checkpoint file:  "/scratch/puck/g09_6a528931-d9d9-4618-962f-63e07edb0d54/Gau-144790.chk"
 -----
 titel
 -----
 Charge =  0 Multiplicity = 1

                         Standard orientation:
 ---------------------------------------------------------------------
 Center     Atomic      Atomic             Coordinates (Angstroms)
 Number     Number       Type             X           Y           Z
 ---------------------------------------------------------------------
      1          6           0       -3.961808    1.048247    0.088084
      2          6           0       -2.806042    0.165054    0.019257
      3          6           0       -1.861247   -0.579252   -0.035497
      4          6           0       -0.691738   -1.448867   -0.113883
      5          6           0        0.582900   -0.668413   -0.391777
      6          8           0        1.809353   -1.364347   -0.180165
      7          6           0        1.499493   -0.262412    0.680317
      8          6           0        2.397377    0.956379    0.592806
      9          8           0        2.481019    1.535447   -0.694363
     10          1           0       -4.153286    1.377559    1.115345
     11          1           0       -3.815485    1.944731   -0.524635
     12          1           0       -4.866718    0.547016   -0.272826
     13          1           0       -0.564812   -2.016456    0.815852
     14          1           0       -0.827672   -2.191484   -0.911534
     15          1           0        0.568056   -0.071032   -1.302526
     16          1           0        1.248311   -0.555875    1.702674
     17          1           0        2.065870    1.684934    1.349728
     18          1           0        3.418243    0.657959    0.857550
     19          1           0        1.650902    1.989438   -0.869247
 ---------------------------------------------------------------------

 SCF Done:  E(RB3LYP) =  -423.131492972     A.U. after    1 cycles

 The electronic state is 1-A.
 Alpha  occ. eigenvalues --  -19.14812 -19.14287 -10.24075 -10.23624 -10.23568
 Alpha  occ. eigenvalues --  -10.21029 -10.20659 -10.17658 -10.17264  -1.07236
 Alpha  occ. eigenvalues --   -1.02245  -0.79589  -0.76085  -0.73041  -0.68348
 Alpha  occ. eigenvalues --   -0.62937  -0.59224  -0.51693  -0.51214  -0.47588
 Alpha  occ. eigenvalues --   -0.47025  -0.44367  -0.43310  -0.43150  -0.42830
 Alpha  occ. eigenvalues --   -0.41973  -0.39340  -0.37795  -0.33893  -0.29777
 Alpha  occ. eigenvalues --   -0.29312  -0.26393  -0.25187  -0.24875
 Alpha virt. eigenvalues --    0.05027   0.05798   0.07100   0.10359   0.10777
 Alpha virt. eigenvalues --    0.11180   0.12242   0.13705   0.15061   0.16928
 Alpha virt. eigenvalues --    0.17317   0.17667   0.18078   0.20320   0.21145

 Mulliken charges:
               1
     1  C   -0.495947
     2  C    0.056212
     3  C    0.059365
     4  C   -0.384011
     5  C    0.074973
     6  O   -0.254234
     7  C    0.045231
     8  C   -0.110612
     9  O   -0.403230
    10  H    0.147588
    11  H    0.146448
    12  H    0.150292
    13  H    0.132745
    14  H    0.137306
    15  H    0.099044
    16  H    0.089853
    17  H    0.093500
    18  H    0.127642
    19  H    0.287832
 Sum of Mulliken charges =   0.00000

 Dipole moment (field-independent basis, Debye):
    X=             -2.4526    Y=              1.6101    Z=              1.2240  Tot=              3.1790
 Quadrupole moment (field-independent basis, Debye-Ang):
   XX=            -55.2082   YY=            -51.9671   ZZ=            -51.7665
   XY=             -1.4866   XZ=              4.6402   YZ=              0.0620

  Exact polarizability: 101.201 -11.269  75.330   3.627   1.431  63.811
 Approx polarizability: 132.623 -26.773 113.260   2.714   3.264  96.420

                      1                      2                      3
                      A                      A                      A
 Frequencies --     10.5381                48.3751                53.4577
 Red. masses --      1.0189                 4.4186                 3.2942
 Frc consts  --      0.0001                 0.0061                 0.0055
 IR Inten    --      0.0119                 0.2769                 3.0803

                      4                      5                      6
                      A                      A                      A
 Frequencies --    114.0516               188.2304               202.5557
 Red. masses --      3.6266                 3.2163                 4.7499
 Frc consts  --      0.0278                 0.0671                 0.1148
 IR Inten    --      0.3919                10.1039                 7.2996

                      7                      8                      9
                      A                      A                      A
 Frequencies --    224.9980               295.1868               335.7987
 Red. masses --      2.5827                 2.7079                 1.2065
 Frc consts  --      0.0770                 0.1390                 0.0802
 IR Inten    --      8.8029                 7.4888               117.0836

                     10                     11                     12
                      A                      A                      A
 Frequencies --    344.8657               390.8188               432.9150
 Red. masses --      2.9733                 3.8687                 4.8426
 Frc consts  --      0.2083                 0.3482                 0.5347
 IR Inten    --      1.3110                 0.1943                13.6106

                     13                     14                     15
                      A                      A                      A
 Frequencies --    490.1325               642.3600               768.0055
 Red. masses --      5.5079                 4.0162                 4.0807
 Frc consts  --      0.7796                 0.9764                 1.4181
 IR Inten    --      5.6249                16.0300                 6.7968

                     16                     17                     18
                      A                      A                      A
 Frequencies --    808.5360               822.1789               948.9321
 Red. masses --      4.0984                 2.4072                 1.9350
 Frc consts  --      1.5786                 0.9587                 1.0266
 IR Inten    --     13.8959                11.5005                24.8896

                     19                     20                     21
                      A                      A                      A
 Frequencies --    955.9818              1004.7470              1053.1981
 Red. masses --      3.1721                 1.8573                 1.4248
 Frc consts  --      1.7080                 1.1047                 0.9311
 IR Inten    --     23.6146                18.6797                 2.2605

                     22                     23                     24
                      A                      A                      A
 Frequencies --   1053.9628              1066.3711              1116.4305
 Red. masses --      1.4067                 2.6575                 1.8204
 Frc consts  --      0.9207                 1.7805                 1.3369
 IR Inten    --      0.3988                29.5613                10.3965

                     25                     26                     27
                      A                      A                      A
 Frequencies --   1117.2342              1154.4611              1166.8272
 Red. masses --      2.2050                 1.4614                 3.0114
 Frc consts  --      1.6216                 1.1475                 2.4156
 IR Inten    --     36.4936                 0.0596                 0.8503

                     28                     29                     30
                      A                      A                      A
 Frequencies --   1225.9838              1236.6670              1275.7168
 Red. masses --      1.2174                 1.2701                 1.3444
 Frc consts  --      1.0781                 1.1445                 1.2891
 IR Inten    --      6.0425                17.1235                 3.0571

                     31                     32                     33
                      A                      A                      A
 Frequencies --   1324.3374              1354.4729              1398.2634
 Red. masses --      1.4648                 1.3126                 1.2864
 Frc consts  --      1.5136                 1.4189                 1.4818
 IR Inten    --     17.2637                 3.2724                 2.2754

                     34                     35                     36
                      A                      A                      A
 Frequencies --   1413.6250              1416.1360              1470.8886
 Red. masses --      1.2718                 1.2575                 1.1042
 Frc consts  --      1.4974                 1.4859                 1.4076
 IR Inten    --     35.3987                 6.8341                 5.1861

                     37                     38                     39
                      A                      A                      A
 Frequencies --   1478.4371              1479.4824              1487.0717
 Red. masses --      1.0396                 1.0398                 1.0818
 Frc consts  --      1.3388                 1.3410                 1.4095
 IR Inten    --      5.3914                 5.5295                 2.7908

                     40                     41                     42
                      A                      A                      A
 Frequencies --   1499.3536              2374.8908              2982.6839
 Red. masses --      2.9502                11.8191                 1.0687
 Frc consts  --      3.9075                39.2755                 5.6018
 IR Inten    --     12.4018                 0.7407                49.0852

                     43                     44                     45
                      A                      A                      A
 Frequencies --   3019.1423              3026.9605              3056.0802
 Red. masses --      1.0607                 1.0348                 1.0987
 Frc consts  --      5.6967                 5.5865                 6.0460
 IR Inten    --     19.5668                32.2721                 6.9622

                     46                     47                     48
                      A                      A                      A
 Frequencies --   3067.2719              3082.1165              3086.9533
 Red. masses --      1.0933                 1.0873                 1.1001
 Frc consts  --      6.0603                 6.0853                 6.1765
 IR Inten    --     22.6801                30.5370                11.2935

                     49                     50                     51
                      A                      A                      A
 Frequencies --   3087.9294              3122.2954              3823.6533
 Red. masses --      1.1002                 1.0872                 1.0663
 Frc consts  --      6.1809                 6.2445                 9.1855
 IR Inten    --     10.3783                21.0799                16.7169

 - Thermochemistry -
 -------------------
 Temperature   298.150 Kelvin.  Pressure   1.00000 Atm.
 Atom     1 has atomic number  6 and mass  12.00000

 Molecular mass:   126.06808 amu.
 Principal axes and moments of inertia in atomic units:
                           1         2         3
     Eigenvalues --   646.169212462.757622886.62042
           X            0.99993  -0.00925   0.00717
           Y            0.00919   0.99992   0.00826
           Z           -0.00724  -0.00819   0.99994
 This molecule is an asymmetric top.
 Rotational symmetry number  1.
 Warning -- assumption of classical behavior for rotation
           may cause significant error
 Rotational temperatures (Kelvin)      0.13404     0.03517     0.03001
 Rotational constants (GHZ):           2.79299     0.73281     0.62521
 Zero-point vibrational energy     410328.5 (Joules/Mol)
                                   98.07086 (Kcal/Mol)
 Warning -- explicit consideration of  13 degrees of freedom as
           vibrations may cause significant error
 Vibrational temperatures:     15.16    69.60    76.91   164.09   270.82
          (Kelvin)            291.43   323.72   424.71   483.14   496.18
                              562.30   622.87   705.19   924.21  1104.99
                             1163.30  1182.93  1365.30  1375.44  1445.61
                             1515.32  1516.42  1534.27  1606.29  1607.45
                             1661.01  1678.80  1763.92  1779.29  1835.47
                             1905.42  1948.78  2011.79  2033.89  2037.50
                             2116.28  2127.14  2128.64  2139.56  2157.23
                             3416.93  4291.41  4343.87  4355.12  4397.01
                             4413.11  4434.47  4441.43  4442.84  4492.28
                             5501.38

 Zero-point correction=                           0.156286 (Hartree/Particle)
 Thermal correction to Energy=                    0.166853
 Thermal correction to Enthalpy=                  0.167797
 Thermal correction to Gibbs Free Energy=         0.117582
 Sum of electronic and zero-point Energies=           -422.975207
 Sum of electronic and thermal Energies=              -422.964640
 Sum of electronic and thermal Enthalpies=            -422.963696
 Sum of electronic and thermal Free Energies=         -423.013911

                     E (Thermal)             CV                S
                      KCal/Mol        Cal/Mol-Kelvin    Cal/Mol-Kelvin
 Total                  104.702             35.956            105.686
 Electronic               0.000              0.000              0.000
 Translational            0.889              2.981             40.409
 Rotational               0.889              2.981             29.909
 Vibrational            102.924             29.994             35.369
 Vibration     1          0.593              1.987              7.907
 Vibration     2          0.595              1.978              4.883
 Vibration     3          0.596              1.976              4.685
 Vibration     4          0.607              1.938              3.199
 Vibration     5          0.633              1.856              2.245
 Vibration     6          0.639              1.836              2.110
 Vibration     7          0.650              1.803              1.919
 Vibration     8          0.689              1.683              1.444
 Vibration     9          0.717              1.604              1.232
 Vibration    10          0.723              1.586              1.190
 Vibration    11          0.759              1.490              0.997
 Vibration    12          0.794              1.399              0.849
 Vibration    13          0.846              1.272              0.683

 Normal termination of Gaussian 09 at Tue Jan 28 13:57:59 2020.
