 Gaussian 09, Revision D.01,
 Gaussian 09:  ES64L-G09RevD.01 24-Apr-2013

 -----------------------------
 # b3lyp 6-31G(2df,p) opt Freq
 -----------------------------

 -----
 titel
 -----
 Symbolic Z-matrix:
 Charge =  0 Multiplicity = 1

 SCF Done:  E(RB3LYP) =  -423.201066681     A.U. after   14 cycles
 Optimization completed.
    -- Stationary point found.
 Normal termination of Gaussian 09 at Tue Jan 28 03:58:49 2020.

 ----------------------------------------------------------------------
 #N Geom=AllCheck Guess=TCheck SCRF=Check GenChk RB3LYP/6-31G(2df,p) Fr
 eq
 ----------------------------------------------------------------------

 Structure from the checkpoint file:  "/scratch/puck/g09_2e6352a7-bcd9-4663-a5aa-79a376ba485b/Gau-69804.chk"
 -----
 titel
 -----
 Charge =  0 Multiplicity = 1

                         Standard orientation:
 ---------------------------------------------------------------------
 Center     Atomic      Atomic             Coordinates (Angstroms)
 Number     Number       Type             X           Y           Z
 ---------------------------------------------------------------------
      1          6           0        2.176164   -0.673443    0.828511
      2          6           0        1.300229   -0.401845   -0.391319
      3          8           0        0.313410   -1.409827   -0.581165
      4          6           0       -0.998966   -0.854873   -0.613430
      5          6           0       -1.763321   -0.784877    0.744260
      6          6           0       -1.875757    0.760071    0.586314
      7          6           0       -0.908224    0.683076   -0.632719
      8          6           0        0.554797    0.938936   -0.297006
      9          8           0        1.056053    1.989641    0.008502
     10          1           0        1.571851   -0.728500    1.738802
     11          1           0        2.709528   -1.619750    0.710237
     12          1           0        2.902493    0.136128    0.940840
     13          1           0        1.938656   -0.359836   -1.288557
     14          1           0       -1.553211   -1.338488   -1.421355
     15          1           0       -2.705604   -1.334276    0.793786
     16          1           0       -1.130314   -1.101331    1.576529
     17          1           0       -2.874432    1.090499    0.294734
     18          1           0       -1.536734    1.377753    1.420582
     19          1           0       -1.187465    1.237027   -1.531968
 ---------------------------------------------------------------------

 SCF Done:  E(RB3LYP) =  -423.201066681     A.U. after    1 cycles

 The electronic state is 1-A.
 Alpha  occ. eigenvalues --  -19.14389 -19.13962 -10.27235 -10.24031 -10.23829
 Alpha  occ. eigenvalues --  -10.19775 -10.19708 -10.18770 -10.18170  -1.05486
 Alpha  occ. eigenvalues --   -1.03603  -0.84780  -0.77033  -0.70824  -0.66326
 Alpha  occ. eigenvalues --   -0.63613  -0.56421  -0.54994  -0.51701  -0.46716
 Alpha  occ. eigenvalues --   -0.46073  -0.44710  -0.44094  -0.41119  -0.40670
 Alpha  occ. eigenvalues --   -0.38485  -0.37326  -0.36847  -0.36392  -0.34697
 Alpha  occ. eigenvalues --   -0.32354  -0.31338  -0.25254  -0.24234
 Alpha virt. eigenvalues --   -0.02877   0.08126   0.08490   0.10825   0.11607
 Alpha virt. eigenvalues --    0.13456   0.14356   0.14929   0.17005   0.17229
 Alpha virt. eigenvalues --    0.17983   0.18558   0.19762   0.21157   0.21812

 Mulliken charges:
               1
     1  C   -0.392106
     2  C    0.021677
     3  O   -0.282925
     4  C    0.118790
     5  C   -0.246482
     6  C   -0.233943
     7  C   -0.166890
     8  C    0.363954
     9  O   -0.316007
    10  H    0.121101
    11  H    0.127459
    12  H    0.137869
    13  H    0.105839
    14  H    0.083437
    15  H    0.107105
    16  H    0.114333
    17  H    0.113767
    18  H    0.119460
    19  H    0.103561
 Sum of Mulliken charges =   0.00000

 Dipole moment (field-independent basis, Debye):
    X=             -1.4619    Y=             -0.9291    Z=             -0.2728  Tot=              1.7535
 Quadrupole moment (field-independent basis, Debye-Ang):
   XX=            -49.5449   YY=            -61.2895   ZZ=            -51.1025
   XY=             -2.6782   XZ=              0.4507   YZ=             -1.6349

  Exact polarizability:  86.550   0.810  72.418   0.451  -0.033  64.818
 Approx polarizability: 114.634   5.653 112.094   1.125   3.120  97.171

                      1                      2                      3
                      A                      A                      A
 Frequencies --     40.9744                54.2383               199.1022
 Red. masses --      3.8309                 2.5758                 3.1015
 Frc consts  --      0.0038                 0.0045                 0.0724
 IR Inten    --      4.0107                 0.2874                 3.0112

                      4                      5                      6
                      A                      A                      A
 Frequencies --    209.1010               252.1340               368.6963
 Red. masses --      1.0299                 3.2887                 2.8368
 Frc consts  --      0.0265                 0.1232                 0.2272
 IR Inten    --      0.5748                 3.2976                 0.1472

                      7                      8                      9
                      A                      A                      A
 Frequencies --    394.8890               494.9158               573.2030
 Red. masses --      3.5594                 3.7259                 5.2937
 Frc consts  --      0.3270                 0.5377                 1.0248
 IR Inten    --      8.0334                 6.4646                 0.6077

                     10                     11                     12
                      A                      A                      A
 Frequencies --    597.9827               664.5584               702.8489
 Red. masses --      5.0284                 4.9506                 1.6744
 Frc consts  --      1.0594                 1.2882                 0.4874
 IR Inten    --      3.6970                 5.3583                 0.3679

                     13                     14                     15
                      A                      A                      A
 Frequencies --    779.3206               790.4919               872.6488
 Red. masses --      1.7957                 2.1641                 2.7336
 Frc consts  --      0.6426                 0.7968                 1.2265
 IR Inten    --      6.3329                 0.5454                 6.7554

                     16                     17                     18
                      A                      A                      A
 Frequencies --    890.6430               925.7434               936.0046
 Red. masses --      2.1076                 1.9921                 2.5369
 Frc consts  --      0.9850                 1.0059                 1.3095
 IR Inten    --      2.5363                12.0798                 0.9417

                     19                     20                     21
                      A                      A                      A
 Frequencies --    958.3441               994.8734              1042.7338
 Red. masses --      2.1086                 1.6759                 3.1366
 Frc consts  --      1.1410                 0.9773                 2.0094
 IR Inten    --      2.1582                24.5056                 9.3772

                     22                     23                     24
                      A                      A                      A
 Frequencies --   1073.1427              1101.8738              1109.5813
 Red. masses --      1.9070                 1.9955                 2.4197
 Frc consts  --      1.2939                 1.4275                 1.7552
 IR Inten    --     20.7915                23.2720                16.5116

                     25                     26                     27
                      A                      A                      A
 Frequencies --   1126.5103              1177.8107              1183.3274
 Red. masses --      2.4618                 2.5757                 1.5272
 Frc consts  --      1.8407                 2.1052                 1.2600
 IR Inten    --     32.9517               112.3358                 1.3624

                     28                     29                     30
                      A                      A                      A
 Frequencies --   1223.2566              1245.1137              1254.5986
 Red. masses --      1.2878                 1.4407                 1.6131
 Frc consts  --      1.1354                 1.3159                 1.4960
 IR Inten    --      0.3287                16.6497                16.6102

                     31                     32                     33
                      A                      A                      A
 Frequencies --   1268.1851              1299.9977              1317.4339
 Red. masses --      1.6601                 1.5839                 1.4646
 Frc consts  --      1.5731                 1.5772                 1.4977
 IR Inten    --      6.2837                 3.9315                 0.8337

                     34                     35                     36
                      A                      A                      A
 Frequencies --   1350.4689              1366.9160              1396.3559
 Red. masses --      1.2673                 1.3498                 1.2323
 Frc consts  --      1.3618                 1.4859                 1.4157
 IR Inten    --      4.6618                13.4307                 7.0710

                     37                     38                     39
                      A                      A                      A
 Frequencies --   1471.7640              1484.9049              1493.4901
 Red. masses --      1.0861                 1.0534                 1.0720
 Frc consts  --      1.3862                 1.3684                 1.4088
 IR Inten    --      2.0149                 4.5178                 1.8905

                     40                     41                     42
                      A                      A                      A
 Frequencies --   1496.6256              1844.3365              2974.8288
 Red. masses --      1.0825                12.7448                 1.0814
 Frc consts  --      1.4286                25.5426                 5.6386
 IR Inten    --      4.5212               166.3037                33.5390

                     43                     44                     45
                      A                      A                      A
 Frequencies --   3046.2303              3069.2428              3073.3921
 Red. masses --      1.0340                 1.0583                 1.0659
 Frc consts  --      5.6533                 5.8737                 5.9322
 IR Inten    --     13.3263                22.2157                40.1792

                     46                     47                     48
                      A                      A                      A
 Frequencies --   3074.6597              3089.4064              3116.7841
 Red. masses --      1.0820                 1.0865                 1.1088
 Frc consts  --      6.0266                 6.1099                 6.3463
 IR Inten    --     31.1550                11.5504                 5.4055

                     49                     50                     51
                      A                      A                      A
 Frequencies --   3122.3211              3131.9245              3134.1280
 Red. masses --      1.1021                 1.1027                 1.1075
 Frc consts  --      6.3306                 6.3727                 6.4095
 IR Inten    --     23.6201                10.5978                34.3837

 - Thermochemistry -
 -------------------
 Temperature   298.150 Kelvin.  Pressure   1.00000 Atm.
 Atom     1 has atomic number  6 and mass  12.00000

 Molecular mass:   126.06808 amu.
 Principal axes and moments of inertia in atomic units:
                           1         2         3
     Eigenvalues --   737.418411069.855381434.06679
           X            0.99820  -0.05903   0.01040
           Y            0.05927   0.99796  -0.02382
           Z           -0.00897   0.02439   0.99966
 This molecule is an asymmetric top.
 Rotational symmetry number  1.
 Warning -- assumption of classical behavior for rotation
           may cause significant error
 Rotational temperatures (Kelvin)      0.11746     0.08096     0.06040
 Rotational constants (GHZ):           2.44738     1.68690     1.25848
 Zero-point vibrational energy     417867.9 (Joules/Mol)
                                   99.87283 (Kcal/Mol)
 Warning -- explicit consideration of  10 degrees of freedom as
           vibrations may cause significant error
 Vibrational temperatures:     58.95    78.04   286.46   300.85   362.76
          (Kelvin)            530.47   568.16   712.07   824.71   860.36
                              956.15  1011.24  1121.27  1137.34  1255.55
                             1281.44  1331.94  1346.70  1378.84  1431.40
                             1500.26  1544.01  1585.35  1596.44  1620.80
                             1694.60  1702.54  1759.99  1791.44  1805.09
                             1824.63  1870.40  1895.49  1943.02  1966.68
                             2009.04  2117.54  2136.44  2148.80  2153.31
                             2653.59  4280.11  4382.84  4415.95  4421.92
                             4423.74  4444.96  4484.35  4492.32  4506.14
                             4509.31

 Zero-point correction=                           0.159157 (Hartree/Particle)
 Thermal correction to Energy=                    0.167470
 Thermal correction to Enthalpy=                  0.168414
 Thermal correction to Gibbs Free Energy=         0.125198
 Sum of electronic and zero-point Energies=           -423.041909
 Sum of electronic and thermal Energies=              -423.033596
 Sum of electronic and thermal Enthalpies=            -423.032652
 Sum of electronic and thermal Free Energies=         -423.075868

                     E (Thermal)             CV                S
                      KCal/Mol        Cal/Mol-Kelvin    Cal/Mol-Kelvin
 Total                  105.089             31.162             90.956
 Electronic               0.000              0.000              0.000
 Translational            0.889              2.981             40.409
 Rotational               0.889              2.981             28.516
 Vibrational            103.312             25.200             22.031
 Vibration     1          0.594              1.981              5.211
 Vibration     2          0.596              1.976              4.657
 Vibration     3          0.637              1.841              2.141
 Vibration     4          0.642              1.827              2.052
 Vibration     5          0.664              1.759              1.716
 Vibration     6          0.741              1.537              1.085
 Vibration     7          0.762              1.481              0.982
 Vibration     8          0.851              1.261              0.671
 Vibration     9          0.929              1.089              0.498
 Vibration    10          0.956              1.036              0.453

 Optimization completed.
    -- Stationary point found.
 Normal termination of Gaussian 09 at Tue Jan 28 04:46:42 2020.
