 Gaussian 09, Revision D.01,
 Gaussian 09:  ES64L-G09RevD.01 24-Apr-2013

 -----------------------------
 # b3lyp 6-31G(2df,p) opt Freq
 -----------------------------

 -----
 titel
 -----
 Symbolic Z-matrix:
 Charge =  0 Multiplicity = 1

 SCF Done:  E(RB3LYP) =  -423.186301819     A.U. after   14 cycles
 Optimization completed.
    -- Stationary point found.
 Normal termination of Gaussian 09 at Mon Jan 27 13:16:38 2020.

 ----------------------------------------------------------------------
 #N Geom=AllCheck Guess=TCheck SCRF=Check GenChk RB3LYP/6-31G(2df,p) Fr
 eq
 ----------------------------------------------------------------------

 Structure from the checkpoint file:  "/scratch/puck/g09_81f60f0b-0ee5-4616-ab3f-bb9bb2389b14/Gau-100880.chk"
 -----
 titel
 -----
 Charge =  0 Multiplicity = 1

                         Standard orientation:
 ---------------------------------------------------------------------
 Center     Atomic      Atomic             Coordinates (Angstroms)
 Number     Number       Type             X           Y           Z
 ---------------------------------------------------------------------
      1          8           0        3.142280    0.000004    0.135327
      2          6           0        1.965487   -0.000001    0.388933
      3          6           0        0.855332    0.000003   -0.649219
      4          6           0        0.015064   -1.308574   -0.469672
      5          6           0       -1.306856   -1.010315    0.235461
      6          6           0       -2.153892    0.000016   -0.559139
      7          6           0       -1.306845    1.010311    0.235489
      8          6           0        0.015065    1.308578   -0.469657
      9          8           0       -1.068046   -0.000020    1.262619
     10          1           0        1.591630   -0.000053    1.437123
     11          1           0        1.347761    0.000011   -1.623897
     12          1           0       -0.179012   -1.776330   -1.440777
     13          1           0        0.588758   -2.037152    0.115205
     14          1           0       -1.789086   -1.903165    0.641067
     15          1           0       -2.074029    0.000031   -1.648896
     16          1           0       -3.200706    0.000028   -0.252157
     17          1           0       -1.789065    1.903157    0.641116
     18          1           0       -0.179013    1.776348   -1.440756
     19          1           0        0.588760    2.037146    0.115229
 ---------------------------------------------------------------------

 SCF Done:  E(RB3LYP) =  -423.186301819     A.U. after    1 cycles

 The electronic state is 1-A.
 Alpha  occ. eigenvalues --  -19.13880 -19.13336 -10.26209 -10.24397 -10.24397
 Alpha  occ. eigenvalues --  -10.20191 -10.19809 -10.19809 -10.19348  -1.04742
 Alpha  occ. eigenvalues --   -1.04013  -0.81738  -0.75849  -0.74952  -0.64967
 Alpha  occ. eigenvalues --   -0.62429  -0.57639  -0.52983  -0.52710  -0.46829
 Alpha  occ. eigenvalues --   -0.46650  -0.45672  -0.44745  -0.40769  -0.40629
 Alpha  occ. eigenvalues --   -0.39923  -0.39015  -0.36881  -0.35410  -0.34925
 Alpha  occ. eigenvalues --   -0.31502  -0.30960  -0.25267  -0.24298
 Alpha virt. eigenvalues --   -0.01332   0.07265   0.08724   0.10204   0.11331
 Alpha virt. eigenvalues --    0.13243   0.14132   0.14354   0.14896   0.15401
 Alpha virt. eigenvalues --    0.15615   0.16720   0.19840   0.20850   0.20850

 Mulliken charges:
               1
     1  O   -0.255153
     2  C    0.147494
     3  C   -0.050494
     4  C   -0.260771
     5  C    0.103046
     6  C   -0.242576
     7  C    0.103047
     8  C   -0.260772
     9  O   -0.298310
    10  H    0.095831
    11  H    0.093145
    12  H    0.111142
    13  H    0.114677
    14  H    0.081688
    15  H    0.098169
    16  H    0.112330
    17  H    0.081688
    18  H    0.111143
    19  H    0.114676
 Sum of Mulliken charges =   0.00000

 Dipole moment (field-independent basis, Debye):
    X=             -3.1707    Y=              0.0000    Z=             -1.5974  Tot=              3.5503
 Quadrupole moment (field-independent basis, Debye-Ang):
   XX=            -63.5381   YY=            -49.2538   ZZ=            -54.5904
   XY=             -0.0001   XZ=              1.6934   YZ=              0.0000

  Exact polarizability:  85.913   0.000  71.337   0.139   0.000  65.751
 Approx polarizability: 118.767   0.000 103.988  -1.443   0.000 105.323

                      1                      2                      3
                      A                      A                      A
 Frequencies --     48.7690                69.8952               249.3595
 Red. masses --      3.5890                 4.5139                 2.3323
 Frc consts  --      0.0050                 0.0130                 0.0854
 IR Inten    --      1.3259                 4.5359                 1.8661

                      4                      5                      6
                      A                      A                      A
 Frequencies --    290.1884               346.1430               362.7737
 Red. masses --      3.1362                 1.7432                 2.5259
 Frc consts  --      0.1556                 0.1231                 0.1959
 IR Inten    --      2.1383                 0.2291                 4.6469

                      7                      8                      9
                      A                      A                      A
 Frequencies --    399.3037               488.5725               543.0866
 Red. masses --      3.4308                 3.7685                 4.8718
 Frc consts  --      0.3223                 0.5300                 0.8466
 IR Inten    --      7.1737                 7.6243                 1.7558

                     10                     11                     12
                      A                      A                      A
 Frequencies --    686.0943               812.7469               827.3888
 Red. masses --      3.6875                 2.4843                 2.5319
 Frc consts  --      1.0227                 0.9669                 1.0212
 IR Inten    --      0.0262                 7.4552                 0.5268

                     13                     14                     15
                      A                      A                      A
 Frequencies --    844.7399               856.5574               905.9049
 Red. masses --      2.5498                 1.9228                 2.5506
 Frc consts  --      1.0720                 0.8312                 1.2333
 IR Inten    --      7.9408                 4.5657                28.3392

                     16                     17                     18
                      A                      A                      A
 Frequencies --    919.2754               945.5481               953.7544
 Red. masses --      2.3860                 3.5916                 4.4927
 Frc consts  --      1.1880                 1.8919                 2.4079
 IR Inten    --     29.6455                44.7213                 9.2025

                     19                     20                     21
                      A                      A                      A
 Frequencies --    973.5434              1022.4197              1046.7651
 Red. masses --      2.1061                 1.9065                 2.1605
 Frc consts  --      1.1761                 1.1742                 1.3948
 IR Inten    --      7.7266                 3.8524                 2.4937

                     22                     23                     24
                      A                      A                      A
 Frequencies --   1071.4995              1090.7107              1129.4162
 Red. masses --      1.5754                 1.8658                 2.3250
 Frc consts  --      1.0657                 1.3077                 1.7473
 IR Inten    --      0.1389                 5.2608                 4.5812

                     25                     26                     27
                      A                      A                      A
 Frequencies --   1140.1136              1174.0336              1214.6576
 Red. masses --      1.3165                 1.1498                 1.3061
 Frc consts  --      1.0082                 0.9338                 1.1353
 IR Inten    --      0.7509                 4.1249                 9.5148

                     28                     29                     30
                      A                      A                      A
 Frequencies --   1237.9389              1270.1006              1272.6722
 Red. masses --      1.5977                 1.3531                 1.3139
 Frc consts  --      1.4426                 1.2861                 1.2538
 IR Inten    --      5.3977                 0.2118                 3.6816

                     31                     32                     33
                      A                      A                      A
 Frequencies --   1298.8868              1336.3114              1344.2655
 Red. masses --      1.4819                 1.7206                 1.3155
 Frc consts  --      1.4731                 1.8102                 1.4006
 IR Inten    --      1.2561                 9.0301                 2.7112

                     34                     35                     36
                      A                      A                      A
 Frequencies --   1353.1707              1353.8396              1384.8065
 Red. masses --      1.5292                 1.4708                 1.4050
 Frc consts  --      1.6498                 1.5883                 1.5875
 IR Inten    --      0.4906                 0.2030                 6.7021

                     37                     38                     39
                      A                      A                      A
 Frequencies --   1409.8697              1483.0600              1484.0176
 Red. masses --      1.1961                 1.1210                 1.0813
 Frc consts  --      1.4008                 1.4527                 1.4031
 IR Inten    --      6.3095                 2.3241                 4.7365

                     40                     41                     42
                      A                      A                      A
 Frequencies --   1495.8714              1831.5475              2893.7586
 Red. masses --      1.1033                10.0123                 1.0835
 Frc consts  --      1.4545                19.7888                 5.3456
 IR Inten    --      3.6847               199.8870                55.9812

                     43                     44                     45
                      A                      A                      A
 Frequencies --   3032.9202              3033.1825              3065.4490
 Red. masses --      1.0630                 1.0616                 1.0694
 Frc consts  --      5.7609                 5.7547                 5.9210
 IR Inten    --      7.2737                28.7546                 5.7600

                     46                     47                     48
                      A                      A                      A
 Frequencies --   3072.0041              3073.9650              3079.5492
 Red. masses --      1.0900                 1.1002                 1.0880
 Frc consts  --      6.0607                 6.1250                 6.0793
 IR Inten    --     38.7815                10.5848                77.6691

                     49                     50                     51
                      A                      A                      A
 Frequencies --   3083.4161              3092.7205              3133.5066
 Red. masses --      1.0900                 1.0881                 1.1079
 Frc consts  --      6.1060                 6.1319                 6.4093
 IR Inten    --     23.4342                24.0727                24.6379

 - Thermochemistry -
 -------------------
 Temperature   298.150 Kelvin.  Pressure   1.00000 Atm.
 Atom     1 has atomic number  8 and mass  15.99491

 Molecular mass:   126.06808 amu.
 Principal axes and moments of inertia in atomic units:
                           1         2         3
     Eigenvalues --   511.110341462.595221577.28004
           X            0.99996   0.00000   0.00936
           Y            0.00000   1.00000   0.00000
           Z           -0.00936   0.00000   0.99996
 This molecule is an asymmetric top.
 Rotational symmetry number  1.
 Warning -- assumption of classical behavior for rotation
           may cause significant error
 Rotational temperatures (Kelvin)      0.16946     0.05922     0.05491
 Rotational constants (GHZ):           3.53102     1.23393     1.14421
 Zero-point vibrational energy     421863.6 (Joules/Mol)
                                  100.82783 (Kcal/Mol)
 Warning -- explicit consideration of   9 degrees of freedom as
           vibrations may cause significant error
 Vibrational temperatures:     70.17   100.56   358.77   417.52   498.02
          (Kelvin)            521.95   574.51   702.95   781.38   987.14
                             1169.36  1190.43  1215.39  1232.39  1303.39
                             1322.63  1360.43  1372.24  1400.71  1471.03
                             1506.06  1541.65  1569.29  1624.98  1640.37
                             1689.17  1747.62  1781.12  1827.39  1831.09
                             1868.81  1922.65  1934.10  1946.91  1947.87
                             1992.43  2028.49  2133.79  2135.17  2152.22
                             2635.19  4163.47  4363.69  4364.07  4410.49
                             4419.92  4422.74  4430.78  4436.34  4449.73
                             4508.41

 Zero-point correction=                           0.160679 (Hartree/Particle)
 Thermal correction to Energy=                    0.168456
 Thermal correction to Enthalpy=                  0.169400
 Thermal correction to Gibbs Free Energy=         0.127528
 Sum of electronic and zero-point Energies=           -423.025622
 Sum of electronic and thermal Energies=              -423.017846
 Sum of electronic and thermal Enthalpies=            -423.016902
 Sum of electronic and thermal Free Energies=         -423.058774

                     E (Thermal)             CV                S
                      KCal/Mol        Cal/Mol-Kelvin    Cal/Mol-Kelvin
 Total                  105.708             29.708             88.128
 Electronic               0.000              0.000              0.000
 Translational            0.889              2.981             40.409
 Rotational               0.889              2.981             28.557
 Vibrational            103.930             23.747             19.162
 Vibration     1          0.595              1.978              4.867
 Vibration     2          0.598              1.968              4.156
 Vibration     3          0.662              1.764              1.735
 Vibration     4          0.686              1.692              1.473
 Vibration     5          0.724              1.583              1.184
 Vibration     6          0.737              1.549              1.110
 Vibration     7          0.765              1.472              0.965
 Vibration     8          0.844              1.275              0.687
 Vibration     9          0.898              1.155              0.559

 Normal termination of Gaussian 09 at Mon Jan 27 14:00:20 2020.
