 Gaussian 09, Revision D.01,
 Gaussian 09:  ES64L-G09RevD.01 24-Apr-2013

 -----------------------------
 # b3lyp 6-31G(2df,p) opt Freq
 -----------------------------

 -----
 titel
 -----
 Symbolic Z-matrix:
 Charge =  0 Multiplicity = 1

 SCF Done:  E(RB3LYP) =  -423.199175401     A.U. after   14 cycles
 Optimization completed.
    -- Stationary point found.
 Normal termination of Gaussian 09 at Tue Jan 28 03:58:32 2020.

 ----------------------------------------------------------------------
 #N Geom=AllCheck Guess=TCheck SCRF=Check GenChk RB3LYP/6-31G(2df,p) Fr
 eq
 ----------------------------------------------------------------------

 Structure from the checkpoint file:  "/scratch/puck/g09_40ccc39e-f5e8-4bbc-ae5f-41729c04a936/Gau-92371.chk"
 -----
 titel
 -----
 Charge =  0 Multiplicity = 1

                         Standard orientation:
 ---------------------------------------------------------------------
 Center     Atomic      Atomic             Coordinates (Angstroms)
 Number     Number       Type             X           Y           Z
 ---------------------------------------------------------------------
      1          6           0        3.150948    0.281826    0.075984
      2          6           0        1.720907    0.061079   -0.435950
      3          6           0        1.089766   -1.183238    0.199286
      4          8           0       -0.291787   -1.288542   -0.109561
      5          6           0       -1.065181   -0.235076    0.422319
      6          6           0       -2.413670   -0.272052   -0.298933
      7          8           0       -3.323647    0.469495   -0.042642
      8          6           0       -0.421897    1.119603    0.262960
      9          6           0        0.832782    1.250131   -0.158657
     10          1           0        3.785458   -0.584776   -0.137528
     11          1           0        3.606086    1.154848   -0.402074
     12          1           0        3.159991    0.450819    1.158294
     13          1           0        1.768370   -0.096455   -1.523574
     14          1           0        1.553220   -2.100221   -0.175379
     15          1           0        1.233915   -1.151646    1.292054
     16          1           0       -1.282427   -0.412037    1.493613
     17          1           0       -2.470767   -1.051762   -1.088879
     18          1           0       -1.055634    1.970029    0.492944
     19          1           0        1.263330    2.239948   -0.293909
 ---------------------------------------------------------------------

 SCF Done:  E(RB3LYP) =  -423.199175401     A.U. after    1 cycles

 The electronic state is 1-A.
 Alpha  occ. eigenvalues --  -19.15167 -19.14576 -10.27431 -10.24763 -10.23496
 Alpha  occ. eigenvalues --  -10.19933 -10.19186 -10.19094 -10.18623  -1.05760
 Alpha  occ. eigenvalues --   -1.04475  -0.82031  -0.78976  -0.71631  -0.66033
 Alpha  occ. eigenvalues --   -0.62716  -0.58394  -0.53698  -0.51737  -0.48790
 Alpha  occ. eigenvalues --   -0.46691  -0.45149  -0.44121  -0.42927  -0.40547
 Alpha  occ. eigenvalues --   -0.40525  -0.38885  -0.37390  -0.36570  -0.35090
 Alpha  occ. eigenvalues --   -0.31504  -0.27347  -0.26349  -0.24420
 Alpha virt. eigenvalues --   -0.03039   0.01506   0.08963   0.09914   0.12284
 Alpha virt. eigenvalues --    0.12879   0.14194   0.14399   0.15823   0.16074
 Alpha virt. eigenvalues --    0.16841   0.18187   0.19111   0.22060   0.22451

 Mulliken charges:
               1
     1  C   -0.401875
     2  C   -0.039422
     3  C   -0.082411
     4  O   -0.274377
     5  C    0.002307
     6  C    0.132228
     7  O   -0.246942
     8  C   -0.101755
     9  C   -0.060423
    10  H    0.117553
    11  H    0.120382
    12  H    0.122210
    13  H    0.093830
    14  H    0.110245
    15  H    0.091774
    16  H    0.105443
    17  H    0.100051
    18  H    0.117311
    19  H    0.093871
 Sum of Mulliken charges =   0.00000

 Dipole moment (field-independent basis, Debye):
    X=              2.9735    Y=             -0.2978    Z=              0.1952  Tot=              2.9948
 Quadrupole moment (field-independent basis, Debye-Ang):
   XX=            -60.0460   YY=            -53.1887   ZZ=            -52.4553
   XY=              2.4625   XZ=             -0.5996   YZ=             -0.3605

  Exact polarizability: 104.013  -1.555  72.281  -4.494   2.218  59.832
 Approx polarizability: 140.703  -4.748 107.089 -11.705   4.754  94.947

                      1                      2                      3
                      A                      A                      A
 Frequencies --     37.2583                65.3643               166.1177
 Red. masses --      2.5563                 4.5137                 3.4386
 Frc consts  --      0.0021                 0.0114                 0.0559
 IR Inten    --     11.9922                 0.9414                 1.2061

                      4                      5                      6
                      A                      A                      A
 Frequencies --    212.7179               229.5248               298.2434
 Red. masses --      3.0620                 1.0591                 3.0283
 Frc consts  --      0.0816                 0.0329                 0.1587
 IR Inten    --      2.5736                 0.3361                 3.9166

                      7                      8                      9
                      A                      A                      A
 Frequencies --    320.1553               392.4691               412.6717
 Red. masses --      2.7172                 3.9639                 2.6198
 Frc consts  --      0.1641                 0.3597                 0.2629
 IR Inten    --      2.7020                 0.4763                 1.2012

                     10                     11                     12
                      A                      A                      A
 Frequencies --    528.9970               564.6202               579.5278
 Red. masses --      5.2812                 5.3251                 2.8327
 Frc consts  --      0.8707                 1.0002                 0.5605
 IR Inten    --      9.3534                 2.4136                 7.0898

                     13                     14                     15
                      A                      A                      A
 Frequencies --    729.1700               767.1888               828.8447
 Red. masses --      2.0677                 1.8654                 3.3271
 Frc consts  --      0.6477                 0.6469                 1.3467
 IR Inten    --     34.7625                11.5976                11.5838

                     16                     17                     18
                      A                      A                      A
 Frequencies --    865.6238               934.3437               965.5257
 Red. masses --      2.0471                 1.8127                 1.5809
 Frc consts  --      0.9037                 0.9324                 0.8683
 IR Inten    --      7.3445                 5.9794                14.3184

                     19                     20                     21
                      A                      A                      A
 Frequencies --    994.4602              1011.9852              1047.8784
 Red. masses --      1.5442                 1.7281                 2.3497
 Frc consts  --      0.8997                 1.0427                 1.5201
 IR Inten    --      7.6021                 9.2594                 7.9712

                     22                     23                     24
                      A                      A                      A
 Frequencies --   1074.7171              1100.0409              1115.5758
 Red. masses --      2.4653                 2.8091                 1.9842
 Frc consts  --      1.6776                 2.0028                 1.4549
 IR Inten    --      8.9887                 9.7343                16.6935

                     25                     26                     27
                      A                      A                      A
 Frequencies --   1135.2053              1169.0953              1219.7639
 Red. masses --      2.0240                 2.2265                 1.3557
 Frc consts  --      1.5368                 1.7930                 1.1884
 IR Inten    --     49.8019                43.2060                16.6854

                     28                     29                     30
                      A                      A                      A
 Frequencies --   1266.8756              1290.0347              1314.1353
 Red. masses --      1.4038                 1.4061                 1.3012
 Frc consts  --      1.3275                 1.3787                 1.3240
 IR Inten    --      4.9245                 7.5787                 7.5758

                     31                     32                     33
                      A                      A                      A
 Frequencies --   1328.1808              1353.1340              1378.4458
 Red. masses --      1.2913                 1.3789                 1.4175
 Frc consts  --      1.3421                 1.4875                 1.5869
 IR Inten    --      4.6669                13.0119                 1.1790

                     34                     35                     36
                      A                      A                      A
 Frequencies --   1396.0930              1405.4092              1426.8729
 Red. masses --      1.3688                 1.2750                 1.3503
 Frc consts  --      1.5718                 1.4837                 1.6197
 IR Inten    --      7.4261                 1.1503                 5.6058

                     37                     38                     39
                      A                      A                      A
 Frequencies --   1494.7306              1499.4115              1501.0341
 Red. masses --      1.0682                 1.0603                 1.0638
 Frc consts  --      1.4062                 1.4045                 1.4122
 IR Inten    --      0.8457                 5.2364                 4.5170

                     40                     41                     42
                      A                      A                      A
 Frequencies --   1717.3664              1839.6362              2908.0437
 Red. masses --      7.3798                10.8528                 1.0855
 Frc consts  --     12.8239                21.6399                 5.4085
 IR Inten    --      0.1418               174.9883                84.3789

                     43                     44                     45
                      A                      A                      A
 Frequencies --   2917.4257              2970.3301              2997.4472
 Red. masses --      1.0789                 1.0703                 1.0809
 Frc consts  --      5.4106                 5.5638                 5.7216
 IR Inten    --     42.9360                37.1973                30.0629

                     46                     47                     48
                      A                      A                      A
 Frequencies --   3031.1218              3087.4215              3101.1810
 Red. masses --      1.0349                 1.0940                 1.1016
 Frc consts  --      5.6023                 6.1439                 6.2418
 IR Inten    --     28.6175                25.0303                37.5342

                     49                     50                     51
                      A                      A                      A
 Frequencies --   3104.4782              3148.3085              3190.5072
 Red. masses --      1.1015                 1.0867                 1.0950
 Frc consts  --      6.2549                 6.3462                 6.5670
 IR Inten    --     22.5930                11.7375                 6.7973

 - Thermochemistry -
 -------------------
 Temperature   298.150 Kelvin.  Pressure   1.00000 Atm.
 Atom     1 has atomic number  6 and mass  12.00000

 Molecular mass:   126.06808 amu.
 Principal axes and moments of inertia in atomic units:
                           1         2         3
     Eigenvalues --   421.029981828.240422129.64750
           X            0.99998   0.00612   0.00057
           Y           -0.00612   0.99998   0.00015
           Z           -0.00057  -0.00015   1.00000
 This molecule is an asymmetric top.
 Rotational symmetry number  1.
 Rotational temperatures (Kelvin)      0.20572     0.04738     0.04067
 Rotational constants (GHZ):           4.28649     0.98715     0.84744
 Zero-point vibrational energy     415311.8 (Joules/Mol)
                                   99.26190 (Kcal/Mol)
 Warning -- explicit consideration of  12 degrees of freedom as
           vibrations may cause significant error
 Vibrational temperatures:     53.61    94.04   239.01   306.05   330.23
          (Kelvin)            429.11   460.63   564.67   593.74   761.11
                              812.36   833.81  1049.11  1103.81  1192.52
                             1245.44  1344.31  1389.17  1430.80  1456.02
                             1507.66  1546.28  1582.71  1605.06  1633.31
                             1682.07  1754.97  1822.75  1856.07  1890.75
                             1910.95  1946.86  1983.27  2008.66  2022.07
                             2052.95  2150.58  2157.32  2159.65  2470.90
                             2646.82  4184.02  4197.52  4273.64  4312.65
                             4361.10  4442.11  4461.90  4466.65  4529.71
                             4590.42

 Zero-point correction=                           0.158184 (Hartree/Particle)
 Thermal correction to Energy=                    0.167090
 Thermal correction to Enthalpy=                  0.168034
 Thermal correction to Gibbs Free Energy=         0.123601
 Sum of electronic and zero-point Energies=           -423.040991
 Sum of electronic and thermal Energies=              -423.032085
 Sum of electronic and thermal Enthalpies=            -423.031141
 Sum of electronic and thermal Free Energies=         -423.075575

                     E (Thermal)             CV                S
                      KCal/Mol        Cal/Mol-Kelvin    Cal/Mol-Kelvin
 Total                  104.851             32.549             93.518
 Electronic               0.000              0.000              0.000
 Translational            0.889              2.981             40.409
 Rotational               0.889              2.981             28.885
 Vibrational            103.073             26.587             24.225
 Vibration     1          0.594              1.982              5.400
 Vibration     2          0.597              1.971              4.288
 Vibration     3          0.624              1.884              2.479
 Vibration     4          0.644              1.822              2.020
 Vibration     5          0.652              1.796              1.883
 Vibration     6          0.691              1.677              1.427
 Vibration     7          0.706              1.635              1.309
 Vibration     8          0.760              1.486              0.991
 Vibration     9          0.776              1.443              0.917
 Vibration    10          0.884              1.186              0.589
 Vibration    11          0.920              1.108              0.515
 Vibration    12          0.936              1.076              0.486

 Optimization completed.
    -- Stationary point found.
 Normal termination of Gaussian 09 at Tue Jan 28 04:45:51 2020.
