 Gaussian 09, Revision D.01,
 Gaussian 09:  ES64L-G09RevD.01 24-Apr-2013

 -----------------------------
 # b3lyp 6-31G(2df,p) opt Freq
 -----------------------------

 -----
 titel
 -----
 Symbolic Z-matrix:
 Charge =  0 Multiplicity = 1

 SCF Done:  E(RB3LYP) =  -423.149236314     A.U. after   12 cycles
 Optimization completed.
    -- Stationary point found.
 Normal termination of Gaussian 09 at Tue Jan 28 03:28:41 2020.

 ----------------------------------------------------------------------
 #N Geom=AllCheck Guess=TCheck SCRF=Check GenChk RB3LYP/6-31G(2df,p) Fr
 eq
 ----------------------------------------------------------------------

 Structure from the checkpoint file:  "/scratch/puck/g09_a7e39c75-5c88-4180-a632-60026ba3dc12/Gau-174038.chk"
 -----
 titel
 -----
 Charge =  0 Multiplicity = 1

                         Standard orientation:
 ---------------------------------------------------------------------
 Center     Atomic      Atomic             Coordinates (Angstroms)
 Number     Number       Type             X           Y           Z
 ---------------------------------------------------------------------
      1          6           0        2.591147    0.685643    0.060230
      2          6           0        1.383517   -0.220257    0.310916
      3          6           0        0.828100   -0.883377   -0.987959
      4          6           0       -0.681583   -0.809383   -0.809586
      5          8           0       -1.038193   -1.520255    0.424536
      6          6           0       -1.107180   -0.274621    1.118727
      7          6           0        0.169070    0.538908    0.859612
      8          6           0       -0.970131    0.555997   -0.119805
      9          8           0       -1.557583    1.689545   -0.630688
     10          1           0        2.963720    1.121971    0.993122
     11          1           0        3.413641    0.124589   -0.396532
     12          1           0        2.331707    1.508960   -0.614825
     13          1           0        1.672280   -1.005830    1.017635
     14          1           0        1.120459   -0.306318   -1.875068
     15          1           0        1.178135   -1.910896   -1.121558
     16          1           0       -1.301600   -1.130782   -1.649589
     17          1           0       -1.706267   -0.217014    2.019819
     18          1           0        0.300678    1.406876    1.497964
     19          1           0       -2.484185    1.496663   -0.814559
 ---------------------------------------------------------------------

 SCF Done:  E(RB3LYP) =  -423.149236314     A.U. after    1 cycles

 The electronic state is 1-A.
 Alpha  occ. eigenvalues --  -19.15831 -19.13290 -10.23624 -10.23253 -10.23186
 Alpha  occ. eigenvalues --  -10.18776 -10.18569 -10.17946 -10.17249  -1.05792
 Alpha  occ. eigenvalues --   -1.03117  -0.84298  -0.77669  -0.72581  -0.64772
 Alpha  occ. eigenvalues --   -0.60524  -0.57052  -0.55427  -0.52944  -0.48990
 Alpha  occ. eigenvalues --   -0.46251  -0.43201  -0.41633  -0.40079  -0.39470
 Alpha  occ. eigenvalues --   -0.38732  -0.36563  -0.35803  -0.34656  -0.33585
 Alpha  occ. eigenvalues --   -0.31722  -0.27500  -0.25871  -0.22095
 Alpha virt. eigenvalues --    0.06997   0.09172   0.10303   0.10926   0.13372
 Alpha virt. eigenvalues --    0.13922   0.14269   0.16017   0.16339   0.17134
 Alpha virt. eigenvalues --    0.17940   0.18502   0.19862   0.21742   0.22658

 Mulliken charges:
               1
     1  C   -0.410537
     2  C    0.032345
     3  C   -0.230935
     4  C    0.013948
     5  O   -0.306984
     6  C   -0.015885
     7  C   -0.123776
     8  C    0.302581
     9  O   -0.454174
    10  H    0.112393
    11  H    0.112754
    12  H    0.119141
    13  H    0.083050
    14  H    0.098719
    15  H    0.106544
    16  H    0.075827
    17  H    0.105691
    18  H    0.089243
    19  H    0.290056
 Sum of Mulliken charges =   0.00000

 Dipole moment (field-independent basis, Debye):
    X=             -0.4587    Y=              0.5585    Z=             -0.3741  Tot=              0.8138
 Quadrupole moment (field-independent basis, Debye-Ang):
   XX=            -47.8359   YY=            -58.8820   ZZ=            -50.5490
   XY=             -2.5244   XZ=              1.2366   YZ=              2.7141

  Exact polarizability:  81.666   0.341  68.695   0.038   2.684  71.413
 Approx polarizability: 108.295   1.230 106.853   0.938  -0.740 109.352

                      1                      2                      3
                      A                      A                      A
 Frequencies --    106.2335               209.1059               248.9419
 Red. masses --      3.1182                 2.2826                 1.1667
 Frc consts  --      0.0207                 0.0588                 0.0426
 IR Inten    --      0.3527                 3.4663                 1.2153

                      4                      5                      6
                      A                      A                      A
 Frequencies --    297.7965               334.9047               362.0658
 Red. masses --      2.0728                 4.2186                 1.2572
 Frc consts  --      0.1083                 0.2788                 0.0971
 IR Inten    --      9.1177                 9.4627                67.4592

                      7                      8                      9
                      A                      A                      A
 Frequencies --    376.9329               425.6652               544.7266
 Red. masses --      4.5210                 2.1790                 2.9603
 Frc consts  --      0.3785                 0.2326                 0.5175
 IR Inten    --      4.5673                21.1728                 2.5407

                     10                     11                     12
                      A                      A                      A
 Frequencies --    596.0266               683.6138               687.1159
 Red. masses --      4.5672                 4.2221                 3.5636
 Frc consts  --      0.9559                 1.1625                 0.9913
 IR Inten    --      6.7375                 4.8045                 5.2061

                     13                     14                     15
                      A                      A                      A
 Frequencies --    768.1165               838.5696               853.6376
 Red. masses --      4.3900                 3.1975                 2.8494
 Frc consts  --      1.5261                 1.3248                 1.2234
 IR Inten    --      2.2987                10.4952                 9.7555

                     16                     17                     18
                      A                      A                      A
 Frequencies --    893.8455               921.1670               942.5951
 Red. masses --      1.8967                 1.5531                 1.9527
 Frc consts  --      0.8928                 0.7765                 1.0222
 IR Inten    --      5.1950                 6.5369                10.0193

                     19                     20                     21
                      A                      A                      A
 Frequencies --    959.8959               977.1799              1002.1154
 Red. masses --      2.1393                 1.9008                 1.8031
 Frc consts  --      1.1614                 1.0694                 1.0669
 IR Inten    --      6.4036                 4.7627                12.8896

                     22                     23                     24
                      A                      A                      A
 Frequencies --   1021.8857              1035.1251              1078.0152
 Red. masses --      2.7834                 2.3603                 1.5489
 Frc consts  --      1.7125                 1.4901                 1.0605
 IR Inten    --     45.0811                 3.5223                10.8601

                     25                     26                     27
                      A                      A                      A
 Frequencies --   1113.3235              1146.5086              1154.2091
 Red. masses --      2.1273                 1.9250                 1.8184
 Frc consts  --      1.5535                 1.4909                 1.4273
 IR Inten    --      2.6628                 1.1384                 1.6736

                     28                     29                     30
                      A                      A                      A
 Frequencies --   1174.1200              1240.5206              1250.0848
 Red. masses --      1.7811                 2.0421                 1.4130
 Frc consts  --      1.4466                 1.8515                 1.3010
 IR Inten    --      6.6942                55.8096                 2.3124

                     31                     32                     33
                      A                      A                      A
 Frequencies --   1277.9488              1291.0288              1312.8119
 Red. masses --      1.7973                 1.7266                 1.3702
 Frc consts  --      1.7294                 1.6956                 1.3914
 IR Inten    --      6.1432                30.7845                18.9201

                     34                     35                     36
                      A                      A                      A
 Frequencies --   1328.1794              1332.6347              1371.0317
 Red. masses --      1.3815                 1.4949                 1.5472
 Frc consts  --      1.4359                 1.5641                 1.7135
 IR Inten    --     12.8891                57.5321                 6.7034

                     37                     38                     39
                      A                      A                      A
 Frequencies --   1409.7805              1473.6385              1491.3264
 Red. masses --      1.2343                 1.1004                 3.1886
 Frc consts  --      1.4454                 1.4080                 4.1783
 IR Inten    --      1.2113                 1.9010                51.1388

                     40                     41                     42
                      A                      A                      A
 Frequencies --   1498.0640              1499.5555              3024.5924
 Red. masses --      1.1143                 1.0625                 1.0430
 Frc consts  --      1.4733                 1.4077                 5.6217
 IR Inten    --      0.5186                 3.7384                14.9863

                     43                     44                     45
                      A                      A                      A
 Frequencies --   3028.5325              3040.8621              3089.6291
 Red. masses --      1.0567                 1.0834                 1.0945
 Frc consts  --      5.7106                 5.9023                 6.1557
 IR Inten    --     35.5788                14.5915                17.2790

                     46                     47                     48
                      A                      A                      A
 Frequencies --   3093.6485              3095.7102              3098.8890
 Red. masses --      1.0963                 1.1009                 1.0999
 Frc consts  --      6.1819                 6.2160                 6.2232
 IR Inten    --     43.4117                38.2540                35.8016

                     49                     50                     51
                      A                      A                      A
 Frequencies --   3171.7530              3187.3411              3786.5263
 Red. masses --      1.0892                 1.0948                 1.0660
 Frc consts  --      6.4560                 6.5531                 9.0052
 IR Inten    --      4.1373                21.9136                23.7622

 - Thermochemistry -
 -------------------
 Temperature   298.150 Kelvin.  Pressure   1.00000 Atm.
 Atom     1 has atomic number  6 and mass  12.00000

 Molecular mass:   126.06808 amu.
 Principal axes and moments of inertia in atomic units:
                           1         2         3
     Eigenvalues --   711.902701116.982271322.10967
           X            0.99990   0.01422  -0.00190
           Y           -0.01405   0.99735   0.07143
           Z            0.00291  -0.07140   0.99744
 This molecule is an asymmetric top.
 Rotational symmetry number  1.
 Warning -- assumption of classical behavior for rotation
           may cause significant error
 Rotational temperatures (Kelvin)      0.12167     0.07754     0.06551
 Rotational constants (GHZ):           2.53510     1.61573     1.36505
 Zero-point vibrational energy     419575.4 (Joules/Mol)
                                  100.28093 (Kcal/Mol)
 Warning -- explicit consideration of  10 degrees of freedom as
           vibrations may cause significant error
 Vibrational temperatures:    152.85   300.86   358.17   428.46   481.85
          (Kelvin)            520.93   542.32   612.44   783.74   857.55
                              983.57   988.61  1105.15  1206.51  1228.19
                             1286.04  1325.35  1356.18  1381.07  1405.94
                             1441.82  1470.26  1489.31  1551.02  1601.82
                             1649.57  1660.65  1689.29  1784.83  1798.59
                             1838.68  1857.50  1888.84  1910.95  1917.36
                             1972.61  2028.36  2120.23  2145.68  2155.38
                             2157.52  4351.71  4357.38  4375.12  4445.28
                             4451.06  4454.03  4458.60  4563.44  4585.87
                             5447.96

 Zero-point correction=                           0.159808 (Hartree/Particle)
 Thermal correction to Energy=                    0.167543
 Thermal correction to Enthalpy=                  0.168487
 Thermal correction to Gibbs Free Energy=         0.127937
 Sum of electronic and zero-point Energies=           -422.989428
 Sum of electronic and thermal Energies=              -422.981693
 Sum of electronic and thermal Enthalpies=            -422.980749
 Sum of electronic and thermal Free Energies=         -423.021299

                     E (Thermal)             CV                S
                      KCal/Mol        Cal/Mol-Kelvin    Cal/Mol-Kelvin
 Total                  105.135             31.227             85.345
 Electronic               0.000              0.000              0.000
 Translational            0.889              2.981             40.409
 Rotational               0.889              2.981             28.443
 Vibrational            103.357             25.266             16.493
 Vibration     1          0.605              1.944              3.337
 Vibration     2          0.642              1.827              2.051
 Vibration     3          0.662              1.765              1.738
 Vibration     4          0.691              1.678              1.429
 Vibration     5          0.716              1.606              1.236
 Vibration     6          0.736              1.550              1.113
 Vibration     7          0.747              1.519              1.051
 Vibration     8          0.787              1.414              0.873
 Vibration     9          0.900              1.151              0.555
 Vibration    10          0.954              1.040              0.457

 Optimization completed.
    -- Stationary point found.
 Normal termination of Gaussian 09 at Tue Jan 28 04:05:07 2020.
