 Gaussian 09, Revision D.01,
 Gaussian 09:  ES64L-G09RevD.01 24-Apr-2013

 -----------------------------
 # b3lyp 6-31G(2df,p) opt Freq
 -----------------------------

 -----
 titel
 -----
 Symbolic Z-matrix:
 Charge =  0 Multiplicity = 1

 SCF Done:  E(RB3LYP) =  -423.193494268     A.U. after   13 cycles
 Optimization completed.
    -- Stationary point found.
 Normal termination of Gaussian 09 at Tue Jan 28 03:56:00 2020.

 ----------------------------------------------------------------------
 #N Geom=AllCheck Guess=TCheck SCRF=Check GenChk RB3LYP/6-31G(2df,p) Fr
 eq
 ----------------------------------------------------------------------

 Structure from the checkpoint file:  "/scratch/puck/g09_b7bd2411-1621-40cf-af15-8205fbaf71fb/Gau-115530.chk"
 -----
 titel
 -----
 Charge =  0 Multiplicity = 1

                         Standard orientation:
 ---------------------------------------------------------------------
 Center     Atomic      Atomic             Coordinates (Angstroms)
 Number     Number       Type             X           Y           Z
 ---------------------------------------------------------------------
      1          6           0       -2.719179    0.043725   -0.235994
      2          6           0       -1.220278   -0.001116   -0.500037
      3          8           0       -0.685472   -1.205553    0.072698
      4          6           0        0.552974   -0.931903    0.693182
      5          8           0        1.627495   -1.022039   -0.221405
      6          6           0        1.766045    0.229909   -0.896905
      7          6           0        1.045967    1.261074   -0.036588
      8          6           0       -0.455501    1.141159    0.166023
      9          6           0        0.495524    0.530829    1.155000
     10          1           0       -3.193964   -0.864840   -0.615706
     11          1           0       -2.917356    0.112915    0.838040
     12          1           0       -3.174417    0.905554   -0.734765
     13          1           0       -1.042559   -0.020243   -1.585697
     14          1           0        0.713152   -1.689458    1.460856
     15          1           0        2.833980    0.458998   -0.980489
     16          1           0        1.352771    0.160729   -1.912859
     17          1           0        1.486003    2.246488    0.063173
     18          1           0       -1.001944    2.048228    0.399026
     19          1           0        0.614831    0.820303    2.189994
 ---------------------------------------------------------------------

 SCF Done:  E(RB3LYP) =  -423.193494268     A.U. after    1 cycles

 The electronic state is 1-A.
 Alpha  occ. eigenvalues --  -19.13390 -19.13301 -10.27195 -10.23422 -10.22925
 Alpha  occ. eigenvalues --  -10.19994 -10.19817 -10.19404 -10.17542  -1.06717
 Alpha  occ. eigenvalues --   -1.00068  -0.87064  -0.76577  -0.72068  -0.65480
 Alpha  occ. eigenvalues --   -0.59820  -0.58701  -0.57259  -0.53414  -0.48412
 Alpha  occ. eigenvalues --   -0.45908  -0.45163  -0.43437  -0.42168  -0.40589
 Alpha  occ. eigenvalues --   -0.38945  -0.38117  -0.36834  -0.32536  -0.31146
 Alpha  occ. eigenvalues --   -0.29138  -0.28872  -0.27194  -0.24945
 Alpha virt. eigenvalues --    0.07919   0.10510   0.10692   0.11750   0.13523
 Alpha virt. eigenvalues --    0.14313   0.15183   0.16160   0.16710   0.17264
 Alpha virt. eigenvalues --    0.17906   0.18288   0.18855   0.20817   0.22242

 Mulliken charges:
               1
     1  C   -0.406368
     2  C    0.124520
     3  O   -0.272604
     4  C    0.182628
     5  O   -0.256044
     6  C   -0.103910
     7  C   -0.101084
     8  C   -0.083222
     9  C   -0.106325
    10  H    0.128243
    11  H    0.120603
    12  H    0.112082
    13  H    0.079130
    14  H    0.094112
    15  H    0.106711
    16  H    0.102866
    17  H    0.093911
    18  H    0.090708
    19  H    0.094043
 Sum of Mulliken charges =   0.00000

 Dipole moment (field-independent basis, Debye):
    X=             -0.3356    Y=              2.6203    Z=              0.4291  Tot=              2.6764
 Quadrupole moment (field-independent basis, Debye-Ang):
   XX=            -53.0474   YY=            -54.6555   ZZ=            -50.4149
   XY=              1.3872   XZ=              0.7153   YZ=             -0.9956

  Exact polarizability:  83.579   0.795  68.022  -0.258  -2.160  68.155
 Approx polarizability: 110.676  -0.291 103.658  -0.198  -5.415 104.161

                      1                      2                      3
                      A                      A                      A
 Frequencies --     90.8776               173.8236               238.6649
 Red. masses --      4.5887                 2.4071                 1.0558
 Frc consts  --      0.0223                 0.0429                 0.0354
 IR Inten    --      1.1721                 1.2321                 0.1603

                      4                      5                      6
                      A                      A                      A
 Frequencies --    283.9516               353.8295               483.5056
 Red. masses --      2.5888                 3.0575                 3.3171
 Frc consts  --      0.1230                 0.2255                 0.4569
 IR Inten    --      0.9768                 0.6066                 3.0272

                      7                      8                      9
                      A                      A                      A
 Frequencies --    558.8119               627.9732               703.8490
 Red. masses --      4.6300                 8.0050                 3.9186
 Frc consts  --      0.8519                 1.8599                 1.1438
 IR Inten    --      4.7037                 2.1165                 1.7611

                     10                     11                     12
                      A                      A                      A
 Frequencies --    722.4073               772.1041               806.2520
 Red. masses --      3.8490                 3.4585                 1.7806
 Frc consts  --      1.1835                 1.2148                 0.6820
 IR Inten    --      2.3519                 1.5948                 1.7863

                     13                     14                     15
                      A                      A                      A
 Frequencies --    818.3603               851.3975               916.1432
 Red. masses --      2.1280                 2.6944                 2.0847
 Frc consts  --      0.8397                 1.1507                 1.0309
 IR Inten    --      2.4086                 9.0250                24.0112

                     16                     17                     18
                      A                      A                      A
 Frequencies --    933.0475               954.3298               966.1795
 Red. masses --      2.3102                 2.1107                 1.8097
 Frc consts  --      1.1850                 1.1326                 0.9953
 IR Inten    --     11.0106                49.8783                21.0217

                     19                     20                     21
                      A                      A                      A
 Frequencies --    998.0662              1008.5535              1033.7193
 Red. masses --      4.5476                 2.8911                 2.2230
 Frc consts  --      2.6690                 1.7327                 1.3996
 IR Inten    --    159.1313                 2.4242                21.3178

                     22                     23                     24
                      A                      A                      A
 Frequencies --   1052.8047              1082.2272              1096.9210
 Red. masses --      2.4738                 1.7897                 1.5804
 Frc consts  --      1.6155                 1.2350                 1.1204
 IR Inten    --     24.3010                21.2679                20.3038

                     25                     26                     27
                      A                      A                      A
 Frequencies --   1110.5868              1124.9445              1142.8252
 Red. masses --      2.2940                 1.7989                 2.4976
 Frc consts  --      1.6671                 1.3413                 1.9219
 IR Inten    --     40.8614                 2.6680                19.9572

                     28                     29                     30
                      A                      A                      A
 Frequencies --   1170.4192              1227.2297              1274.6354
 Red. masses --      1.7131                 1.0977                 1.3220
 Frc consts  --      1.3827                 0.9740                 1.2654
 IR Inten    --     14.0799                 0.7495                 0.1808

                     31                     32                     33
                      A                      A                      A
 Frequencies --   1310.7028              1321.3908              1332.5445
 Red. masses --      1.6261                 1.4484                 1.4294
 Frc consts  --      1.6459                 1.4901                 1.4955
 IR Inten    --     14.4186                12.0012                 7.1045

                     34                     35                     36
                      A                      A                      A
 Frequencies --   1358.6960              1369.2062              1395.6939
 Red. masses --      1.6552                 1.3887                 1.3106
 Frc consts  --      1.8003                 1.5339                 1.5042
 IR Inten    --      4.3448                15.6927                 3.5096

                     37                     38                     39
                      A                      A                      A
 Frequencies --   1405.1247              1416.3791              1486.0010
 Red. masses --      1.3295                 2.0975                 1.0554
 Frc consts  --      1.5466                 2.4792                 1.3731
 IR Inten    --      3.3266                 9.7657                 2.1220

                     40                     41                     42
                      A                      A                      A
 Frequencies --   1496.2119              1525.6900              2987.9395
 Red. masses --      1.0475                 1.0875                 1.0828
 Frc consts  --      1.3816                 1.4915                 5.6955
 IR Inten    --      2.6882                 1.0556                32.4131

                     43                     44                     45
                      A                      A                      A
 Frequencies --   3005.6769              3038.6966              3060.6517
 Red. masses --      1.0657                 1.0350                 1.0984
 Frc consts  --      5.6726                 5.6305                 6.0626
 IR Inten    --     64.5355                18.7442                40.3308

                     46                     47                     48
                      A                      A                      A
 Frequencies --   3111.8615              3121.5855              3122.0624
 Red. masses --      1.1017                 1.0904                 1.1015
 Frc consts  --      6.2856                 6.2601                 6.3259
 IR Inten    --     24.0805                29.9070                19.3266

                     49                     50                     51
                      A                      A                      A
 Frequencies --   3171.2412              3180.8404              3208.2742
 Red. masses --      1.0896                 1.0904                 1.0955
 Frc consts  --      6.4564                 6.5000                 6.6437
 IR Inten    --      7.5736                16.0725                 9.3920

 - Thermochemistry -
 -------------------
 Temperature   298.150 Kelvin.  Pressure   1.00000 Atm.
 Atom     1 has atomic number  6 and mass  12.00000

 Molecular mass:   126.06808 amu.
 Principal axes and moments of inertia in atomic units:
                           1         2         3
     Eigenvalues --   556.921761115.821801299.39500
           X            0.99995   0.00976   0.00113
           Y           -0.00975   0.99991  -0.00969
           Z           -0.00122   0.00968   0.99995
 This molecule is an asymmetric top.
 Rotational symmetry number  1.
 Warning -- assumption of classical behavior for rotation
           may cause significant error
 Rotational temperatures (Kelvin)      0.15552     0.07762     0.06666
 Rotational constants (GHZ):           3.24057     1.61741     1.38891
 Zero-point vibrational energy     424703.7 (Joules/Mol)
                                  101.50662 (Kcal/Mol)
 Warning -- explicit consideration of   7 degrees of freedom as
           vibrations may cause significant error
 Vibrational temperatures:    130.75   250.09   343.39   408.54   509.08
          (Kelvin)            695.66   804.00   903.51  1012.68  1039.38
                             1110.88  1160.02  1177.44  1224.97  1318.12
                             1342.45  1373.07  1390.12  1435.99  1451.08
                             1487.29  1514.75  1557.08  1578.22  1597.88
                             1618.54  1644.27  1683.97  1765.71  1833.91
                             1885.81  1901.18  1917.23  1954.86  1969.98
                             2008.09  2021.66  2037.85  2138.02  2152.71
                             2195.12  4298.97  4324.49  4372.00  4403.59
                             4477.27  4491.26  4491.95  4562.70  4576.51
                             4615.99

 Zero-point correction=                           0.161761 (Hartree/Particle)
 Thermal correction to Energy=                    0.168901
 Thermal correction to Enthalpy=                  0.169845
 Thermal correction to Gibbs Free Energy=         0.130155
 Sum of electronic and zero-point Energies=           -423.031733
 Sum of electronic and thermal Energies=              -423.024593
 Sum of electronic and thermal Enthalpies=            -423.023649
 Sum of electronic and thermal Free Energies=         -423.063340

                     E (Thermal)             CV                S
                      KCal/Mol        Cal/Mol-Kelvin    Cal/Mol-Kelvin
 Total                  105.987             28.671             83.537
 Electronic               0.000              0.000              0.000
 Translational            0.889              2.981             40.409
 Rotational               0.889              2.981             28.181
 Vibrational            104.210             22.709             14.947
 Vibration     1          0.602              1.956              3.641
 Vibration     2          0.627              1.875              2.394
 Vibration     3          0.657              1.781              1.813
 Vibration     4          0.682              1.703              1.510
 Vibration     5          0.730              1.567              1.149
 Vibration     6          0.840              1.287              0.701
 Vibration     7          0.914              1.120              0.526

 Optimization completed.
    -- Stationary point found.
 Normal termination of Gaussian 09 at Tue Jan 28 04:45:33 2020.
