 Gaussian 09, Revision D.01,
 Gaussian 09:  ES64L-G09RevD.01 24-Apr-2013

 -----------------------------
 # b3lyp 6-31G(2df,p) opt Freq
 -----------------------------

 -----
 titel
 -----
 Symbolic Z-matrix:
 Charge =  0 Multiplicity = 1

 SCF Done:  E(RB3LYP) =  -423.150612896     A.U. after   14 cycles
 Optimization completed.
    -- Stationary point found.
 Normal termination of Gaussian 09 at Mon Jan 27 15:49:24 2020.

 ----------------------------------------------------------------------
 #N Geom=AllCheck Guess=TCheck SCRF=Check GenChk RB3LYP/6-31G(2df,p) Fr
 eq
 ----------------------------------------------------------------------

 Structure from the checkpoint file:  "/scratch/puck/g09_ed41a94c-5807-4634-b576-3c4e3097000f/Gau-9968.chk"
 -----
 titel
 -----
 Charge =  0 Multiplicity = 1

                         Standard orientation:
 ---------------------------------------------------------------------
 Center     Atomic      Atomic             Coordinates (Angstroms)
 Number     Number       Type             X           Y           Z
 ---------------------------------------------------------------------
      1          6           0       -1.445244    1.931346   -0.076176
      2          6           0       -1.039344    0.460743   -0.259476
      3          6           0       -2.106125   -0.454517    0.311731
      4          8           0       -2.559787   -1.420993   -0.245017
      5          6           0        0.294172    0.144857    0.440987
      6          6           0        0.866275   -1.293768    0.150556
      7          6           0        2.069580   -0.629692   -0.528235
      8          8           0        2.685258    0.229740    0.440984
      9          6           0        1.543829    0.718462   -0.263482
     10          1           0       -2.364419    2.161195   -0.623482
     11          1           0       -1.615381    2.162233    0.981432
     12          1           0       -0.662637    2.603253   -0.439059
     13          1           0       -0.948805    0.218414   -1.324751
     14          1           0       -2.442141   -0.174590    1.339211
     15          1           0        0.242204    0.416191    1.500758
     16          1           0        1.105334   -1.915985    1.015797
     17          1           0        0.228970   -1.853838   -0.537828
     18          1           0        2.700163   -1.001125   -1.327307
     19          1           0        1.654078    1.649686   -0.807937
 ---------------------------------------------------------------------

 SCF Done:  E(RB3LYP) =  -423.150612896     A.U. after    1 cycles

 The electronic state is 1-A.
 Alpha  occ. eigenvalues --  -19.15526 -19.14411 -10.27366 -10.24307 -10.24194
 Alpha  occ. eigenvalues --  -10.20881 -10.20694 -10.19513 -10.19342  -1.08263
 Alpha  occ. eigenvalues --   -1.05067  -0.83703  -0.77441  -0.67767  -0.66377
 Alpha  occ. eigenvalues --   -0.62600  -0.58022  -0.55914  -0.53030  -0.47210
 Alpha  occ. eigenvalues --   -0.46027  -0.45818  -0.44067  -0.42627  -0.41099
 Alpha  occ. eigenvalues --   -0.39845  -0.38133  -0.37185  -0.35519  -0.34133
 Alpha  occ. eigenvalues --   -0.33751  -0.29708  -0.26214  -0.25040
 Alpha virt. eigenvalues --   -0.02690   0.08246   0.08903   0.10008   0.10962
 Alpha virt. eigenvalues --    0.12010   0.12755   0.13642   0.14281   0.16314
 Alpha virt. eigenvalues --    0.16883   0.17250   0.17686   0.19326   0.20501

 Mulliken charges:
               1
     1  C   -0.421404
     2  C   -0.089212
     3  C    0.170845
     4  O   -0.253788
     5  C   -0.019377
     6  C   -0.286837
     7  C    0.033229
     8  O   -0.247265
     9  C    0.019114
    10  H    0.129673
    11  H    0.126349
    12  H    0.129228
    13  H    0.094467
    14  H    0.073860
    15  H    0.085651
    16  H    0.114340
    17  H    0.129083
    18  H    0.107120
    19  H    0.104925
 Sum of Mulliken charges =   0.00000

 Dipole moment (field-independent basis, Debye):
    X=              0.0196    Y=              1.7420    Z=             -0.4442  Tot=              1.7979
 Quadrupole moment (field-independent basis, Debye-Ang):
   XX=            -62.9066   YY=            -53.7315   ZZ=            -51.9716
   XY=             -7.1486   XZ=             -5.4173   YZ=             -1.1691

  Exact polarizability:  83.967  -0.362  78.730  -3.432   1.923  64.248
 Approx polarizability: 113.712   5.124 119.149   1.284   8.563 103.117

                      1                      2                      3
                      A                      A                      A
 Frequencies --     56.7667                72.2460               144.8821
 Red. masses --      5.9038                 3.6039                 3.1332
 Frc consts  --      0.0112                 0.0111                 0.0387
 IR Inten    --      7.1876                 3.4949                 1.9753

                      4                      5                      6
                      A                      A                      A
 Frequencies --    174.7696               195.7844               276.4135
 Red. masses --      3.1416                 1.0380                 2.5067
 Frc consts  --      0.0565                 0.0234                 0.1128
 IR Inten    --      0.3069                 0.4408                 1.9435

                      7                      8                      9
                      A                      A                      A
 Frequencies --    331.1889               374.6503               429.6622
 Red. masses --      2.6391                 3.6281                 2.2471
 Frc consts  --      0.1706                 0.3000                 0.2444
 IR Inten    --      5.3930                 0.5813                 0.3652

                     10                     11                     12
                      A                      A                      A
 Frequencies --    460.7934               566.6181               749.1959
 Red. masses --      4.3777                 3.9305                 3.3972
 Frc consts  --      0.5477                 0.7435                 1.1235
 IR Inten    --      2.0994                17.8963                 1.8894

                     13                     14                     15
                      A                      A                      A
 Frequencies --    818.5777               848.9352               859.3576
 Red. masses --      2.3598                 3.4506                 1.7921
 Frc consts  --      0.9316                 1.4652                 0.7798
 IR Inten    --      4.1211                 1.7122                31.1213

                     16                     17                     18
                      A                      A                      A
 Frequencies --    887.2608               921.6404               942.7877
 Red. masses --      2.0428                 1.7381                 2.4077
 Frc consts  --      0.9475                 0.8698                 1.2609
 IR Inten    --     29.2491                 4.0318                 5.2693

                     19                     20                     21
                      A                      A                      A
 Frequencies --    961.1364               988.1345               993.3074
 Red. masses --      1.7861                 2.4633                 2.2001
 Frc consts  --      0.9721                 1.4171                 1.2789
 IR Inten    --      3.7432                11.8108                18.8026

                     22                     23                     24
                      A                      A                      A
 Frequencies --   1033.8373              1056.8714              1103.8611
 Red. masses --      1.4884                 1.5959                 2.4676
 Frc consts  --      0.9373                 1.0503                 1.7715
 IR Inten    --      0.7188                 3.3717                 0.3143

                     25                     26                     27
                      A                      A                      A
 Frequencies --   1123.8069              1155.1779              1192.7533
 Red. masses --      1.9192                 2.0156                 1.6492
 Frc consts  --      1.4281                 1.5847                 1.3824
 IR Inten    --      1.3227                13.2131                 0.0047

                     28                     29                     30
                      A                      A                      A
 Frequencies --   1219.6702              1235.4395              1240.1679
 Red. masses --      1.4143                 1.3346                 1.4107
 Frc consts  --      1.2396                 1.2001                 1.2783
 IR Inten    --      2.7215                11.0182                 7.8612

                     31                     32                     33
                      A                      A                      A
 Frequencies --   1262.9673              1278.7290              1320.6737
 Red. masses --      1.4068                 1.5101                 1.4380
 Frc consts  --      1.3221                 1.4549                 1.4777
 IR Inten    --      6.0678                 1.5620                 4.3974

                     34                     35                     36
                      A                      A                      A
 Frequencies --   1368.3092              1387.5921              1408.2813
 Red. masses --      1.4173                 3.5027                 1.2203
 Frc consts  --      1.5635                 3.9736                 1.4259
 IR Inten    --      1.3625                20.8318                 3.8956

                     37                     38                     39
                      A                      A                      A
 Frequencies --   1427.6913              1475.9367              1495.9189
 Red. masses --      1.1967                 1.1137                 1.0530
 Frc consts  --      1.4372                 1.4294                 1.3883
 IR Inten    --      1.9592                 2.4806                 4.3690

                     40                     41                     42
                      A                      A                      A
 Frequencies --   1499.3027              1829.3485              2844.4029
 Red. masses --      1.0441                10.4586                 1.0814
 Frc consts  --      1.3829                20.6213                 5.1550
 IR Inten    --      7.4993               158.8930               102.4492

                     43                     44                     45
                      A                      A                      A
 Frequencies --   3036.4412              3044.2351              3058.5016
 Red. masses --      1.0364                 1.0826                 1.0848
 Frc consts  --      5.6301                 5.9111                 5.9789
 IR Inten    --     16.3590                 0.1810                33.5733

                     46                     47                     48
                      A                      A                      A
 Frequencies --   3071.4473              3104.6242              3115.3251
 Red. masses --      1.0587                 1.1002                 1.1015
 Frc consts  --      5.8847                 6.2481                 6.2984
 IR Inten    --     17.4858                23.4205                18.3762

                     49                     50                     51
                      A                      A                      A
 Frequencies --   3129.3287              3177.0681              3195.1232
 Red. masses --      1.1083                 1.0877                 1.1003
 Frc consts  --      6.3947                 6.4684                 6.6181
 IR Inten    --     14.1628                17.1043                20.1996

 - Thermochemistry -
 -------------------
 Temperature   298.150 Kelvin.  Pressure   1.00000 Atm.
 Atom     1 has atomic number  6 and mass  12.00000

 Molecular mass:   126.06808 amu.
 Principal axes and moments of inertia in atomic units:
                           1         2         3
     Eigenvalues --   589.055491617.977082035.69983
           X            0.99897  -0.04350  -0.01291
           Y            0.04339   0.99902  -0.00897
           Z            0.01329   0.00840   0.99988
 This molecule is an asymmetric top.
 Rotational symmetry number  1.
 Warning -- assumption of classical behavior for rotation
           may cause significant error
 Rotational temperatures (Kelvin)      0.14704     0.05353     0.04255
 Rotational constants (GHZ):           3.06379     1.11543     0.88655
 Zero-point vibrational energy     412394.3 (Joules/Mol)
                                   98.56460 (Kcal/Mol)
 Warning -- explicit consideration of  11 degrees of freedom as
           vibrations may cause significant error
 Vibrational temperatures:     81.67   103.95   208.45   251.45   281.69
          (Kelvin)            397.70   476.51   539.04   618.19   662.98
                              815.24  1077.92  1177.75  1221.43  1236.42
                             1276.57  1326.03  1356.46  1382.86  1421.70
                             1429.15  1487.46  1520.60  1588.21  1616.91
                             1662.04  1716.10  1754.83  1777.52  1784.32
                             1817.13  1839.80  1900.15  1968.69  1996.43
                             2026.20  2054.13  2123.54  2152.29  2157.16
                             2632.02  4092.46  4368.76  4379.97  4400.50
                             4419.12  4466.86  4482.25  4502.40  4571.09
                             4597.06

 Zero-point correction=                           0.157073 (Hartree/Particle)
 Thermal correction to Energy=                    0.166060
 Thermal correction to Enthalpy=                  0.167004
 Thermal correction to Gibbs Free Energy=         0.122546
 Sum of electronic and zero-point Energies=           -422.993540
 Sum of electronic and thermal Energies=              -422.984553
 Sum of electronic and thermal Enthalpies=            -422.983609
 Sum of electronic and thermal Free Energies=         -423.028066

                     E (Thermal)             CV                S
                      KCal/Mol        Cal/Mol-Kelvin    Cal/Mol-Kelvin
 Total                  104.204             32.698             93.569
 Electronic               0.000              0.000              0.000
 Translational            0.889              2.981             40.409
 Rotational               0.889              2.981             29.052
 Vibrational            102.427             26.737             24.108
 Vibration     1          0.596              1.975              4.567
 Vibration     2          0.598              1.967              4.091
 Vibration     3          0.616              1.908              2.738
 Vibration     4          0.627              1.873              2.384
 Vibration     5          0.636              1.846              2.172
 Vibration     6          0.678              1.717              1.556
 Vibration     7          0.714              1.613              1.254
 Vibration     8          0.746              1.524              1.061
 Vibration     9          0.791              1.406              0.860
 Vibration    10          0.819              1.337              0.764
 Vibration    11          0.923              1.103              0.511

 Optimization completed.
    -- Stationary point found.
 Normal termination of Gaussian 09 at Mon Jan 27 17:34:39 2020.
