 Gaussian 09, Revision D.01,
 Gaussian 09:  ES64L-G09RevD.01 24-Apr-2013

 -----------------------------
 # b3lyp 6-31G(2df,p) opt Freq
 -----------------------------

 -----
 titel
 -----
 Symbolic Z-matrix:
 Charge =  0 Multiplicity = 1

 SCF Done:  E(RB3LYP) =  -423.226577340     A.U. after   14 cycles
 Optimization completed.
    -- Stationary point found.
 Normal termination of Gaussian 09 at Mon Jan 27 13:00:11 2020.

 ----------------------------------------------------------------------
 #N Geom=AllCheck Guess=TCheck SCRF=Check GenChk RB3LYP/6-31G(2df,p) Fr
 eq
 ----------------------------------------------------------------------

 Structure from the checkpoint file:  "/scratch/puck/g09_573f8cab-33f1-4607-a339-b9ac0af3439c/Gau-156767.chk"
 -----
 titel
 -----
 Charge =  0 Multiplicity = 1

                         Standard orientation:
 ---------------------------------------------------------------------
 Center     Atomic      Atomic             Coordinates (Angstroms)
 Number     Number       Type             X           Y           Z
 ---------------------------------------------------------------------
      1          8           0       -2.749381   -1.141861   -0.211581
      2          6           0       -1.815278   -0.410937   -0.054564
      3          6           0       -1.670165    1.046905   -0.481631
      4          6           0       -0.458229    1.539442    0.312438
      5          6           0        0.328071    0.235909    0.583837
      6          8           0       -0.671789   -0.811713    0.563404
      7          6           0        1.409033   -0.058004   -0.424564
      8          6           0        2.821604    0.397782   -0.146138
      9          6           0        2.477883   -1.068976   -0.106822
     10          1           0       -1.501185    1.066051   -1.563931
     11          1           0       -2.597328    1.587979   -0.289145
     12          1           0        0.152005    2.273557   -0.216636
     13          1           0       -0.778939    1.985971    1.257740
     14          1           0        0.759601    0.223255    1.589572
     15          1           0        1.080413   -0.009370   -1.459956
     16          1           0        3.410519    0.772061   -0.975604
     17          1           0        3.017713    0.898958    0.796452
     18          1           0        2.832223   -1.705303   -0.909397
     19          1           0        2.436821   -1.557292    0.860982
 ---------------------------------------------------------------------

 SCF Done:  E(RB3LYP) =  -423.226577340     A.U. after    1 cycles

 The electronic state is 1-A.
 Alpha  occ. eigenvalues --  -19.17447 -19.11576 -10.29856 -10.25353 -10.20356
 Alpha  occ. eigenvalues --  -10.20263 -10.20256 -10.19794 -10.19435  -1.09293
 Alpha  occ. eigenvalues --   -1.01457  -0.87043  -0.80329  -0.73349  -0.63611
 Alpha  occ. eigenvalues --   -0.61034  -0.59751  -0.55140  -0.52068  -0.50640
 Alpha  occ. eigenvalues --   -0.47424  -0.45725  -0.44894  -0.41746  -0.40210
 Alpha  occ. eigenvalues --   -0.39623  -0.37841  -0.37242  -0.35347  -0.34331
 Alpha  occ. eigenvalues --   -0.31112  -0.29732  -0.28547  -0.26042
 Alpha virt. eigenvalues --    0.01858   0.07439   0.08326   0.09420   0.11120
 Alpha virt. eigenvalues --    0.12480   0.13084   0.14567   0.16252   0.16413
 Alpha virt. eigenvalues --    0.18016   0.18623   0.20496   0.21213   0.21664

 Mulliken charges:
               1
     1  O   -0.336684
     2  C    0.425204
     3  C   -0.358153
     4  C   -0.248722
     5  C    0.090684
     6  O   -0.222789
     7  C    0.022917
     8  C   -0.273678
     9  C   -0.265597
    10  H    0.140063
    11  H    0.140005
    12  H    0.118371
    13  H    0.116872
    14  H    0.088890
    15  H    0.086432
    16  H    0.117944
    17  H    0.114828
    18  H    0.120279
    19  H    0.123132
 Sum of Mulliken charges =   0.00000

 Dipole moment (field-independent basis, Debye):
    X=              2.9885    Y=              3.2401    Z=             -0.1852  Tot=              4.4117
 Quadrupole moment (field-independent basis, Debye-Ang):
   XX=            -60.0112   YY=            -55.2695   ZZ=            -50.1292
   XY=             -7.0220   XZ=             -0.7589   YZ=              0.5294

  Exact polarizability:  92.033   1.276  71.943   2.730   0.314  62.812
 Approx polarizability: 121.305   7.371 105.932   6.262  -0.317  96.986

                      1                      2                      3
                      A                      A                      A
 Frequencies --     71.7035                85.4128               119.1386
 Red. masses --      3.1860                 4.8115                 2.4029
 Frc consts  --      0.0097                 0.0207                 0.0201
 IR Inten    --      0.8481                 0.3344                 3.1122

                      4                      5                      6
                      A                      A                      A
 Frequencies --    202.7012               292.8604               357.7932
 Red. masses --      2.5081                 2.8479                 3.2769
 Frc consts  --      0.0607                 0.1439                 0.2472
 IR Inten    --      0.0623                 0.6559                 1.3531

                      7                      8                      9
                      A                      A                      A
 Frequencies --    429.5359               508.5517               548.3170
 Red. masses --      4.0968                 4.0224                 2.3491
 Frc consts  --      0.4453                 0.6129                 0.4161
 IR Inten    --      4.2525                 2.0284                 3.8300

                     10                     11                     12
                      A                      A                      A
 Frequencies --    667.8317               732.4836               762.3476
 Red. masses --      4.7539                 3.5939                 1.2044
 Frc consts  --      1.2492                 1.1361                 0.4124
 IR Inten    --     12.1181                 0.6964                 0.0750

                     13                     14                     15
                      A                      A                      A
 Frequencies --    799.8922               831.1950               848.7446
 Red. masses --      2.2745                 1.2882                 1.8784
 Frc consts  --      0.8574                 0.5244                 0.7972
 IR Inten    --      1.4649                 4.4759                 4.0977

                     16                     17                     18
                      A                      A                      A
 Frequencies --    882.9282               924.5671               948.7342
 Red. masses --      2.6572                 3.2053                 3.4256
 Frc consts  --      1.2205                 1.6144                 1.8167
 IR Inten    --     27.4176                 0.2497                 7.6288

                     19                     20                     21
                      A                      A                      A
 Frequencies --    987.1909              1006.9095              1038.5040
 Red. masses --      2.0745                 3.0721                 1.5917
 Frc consts  --      1.1912                 1.8351                 1.0114
 IR Inten    --      7.5551                78.1418                 8.0236

                     22                     23                     24
                      A                      A                      A
 Frequencies --   1059.0833              1067.7268              1083.3100
 Red. masses --      1.7695                 2.0385                 1.3887
 Frc consts  --      1.1694                 1.3692                 0.9602
 IR Inten    --     16.8023                46.7841                 1.0028

                     25                     26                     27
                      A                      A                      A
 Frequencies --   1125.0995              1130.7799              1171.2074
 Red. masses --      1.3610                 1.1535                 3.4227
 Frc consts  --      1.0151                 0.8690                 2.7662
 IR Inten    --      1.9649                 2.8911               239.9258

                     28                     29                     30
                      A                      A                      A
 Frequencies --   1196.0138              1212.1525              1227.0625
 Red. masses --      1.3891                 1.4733                 2.0972
 Frc consts  --      1.1708                 1.2755                 1.8605
 IR Inten    --      2.2776                 4.3816                 1.6212

                     31                     32                     33
                      A                      A                      A
 Frequencies --   1241.2204              1295.7183              1316.4703
 Red. masses --      1.6517                 1.3563                 1.5267
 Frc consts  --      1.4993                 1.3416                 1.5589
 IR Inten    --     22.1067                13.1185                 3.6122

                     34                     35                     36
                      A                      A                      A
 Frequencies --   1337.6398              1365.3753              1438.5077
 Red. masses --      1.3207                 1.5265                 1.5480
 Frc consts  --      1.3923                 1.6767                 1.8873
 IR Inten    --      4.3173                29.8092                11.1201

                     37                     38                     39
                      A                      A                      A
 Frequencies --   1466.2154              1471.2772              1499.1695
 Red. masses --      1.0802                 1.0866                 1.1009
 Frc consts  --      1.3682                 1.3858                 1.4578
 IR Inten    --      6.0247                 1.7168                 5.2649

                     40                     41                     42
                      A                      A                      A
 Frequencies --   1507.5563              1881.1607              3054.6395
 Red. masses --      1.3971                12.8578                 1.0805
 Frc consts  --      1.8707                26.8082                 5.9399
 IR Inten    --      0.9655               405.5275                15.5980

                     43                     44                     45
                      A                      A                      A
 Frequencies --   3060.2395              3069.7533              3118.4467
 Red. masses --      1.0687                 1.0681                 1.1001
 Frc consts  --      5.8970                 5.9299                 6.3030
 IR Inten    --      2.4748                30.2715                 9.4534

                     46                     47                     48
                      A                      A                      A
 Frequencies --   3130.7167              3132.7780              3136.7544
 Red. masses --      1.0969                 1.0541                 1.0787
 Frc consts  --      6.3342                 6.0954                 6.2536
 IR Inten    --     16.0314                15.5868                17.2148

                     49                     50                     51
                      A                      A                      A
 Frequencies --   3140.8847              3212.5344              3228.0080
 Red. masses --      1.0671                 1.1173                 1.1154
 Frc consts  --      6.2024                 6.7940                 6.8478
 IR Inten    --      3.9782                 1.1644                14.6830

 - Thermochemistry -
 -------------------
 Temperature   298.150 Kelvin.  Pressure   1.00000 Atm.
 Atom     1 has atomic number  8 and mass  15.99491

 Molecular mass:   126.06808 amu.
 Principal axes and moments of inertia in atomic units:
                           1         2         3
     Eigenvalues --   496.440191687.627591980.60998
           X            0.99959  -0.02870   0.00050
           Y            0.02870   0.99958   0.00452
           Z           -0.00063  -0.00450   0.99999
 This molecule is an asymmetric top.
 Rotational symmetry number  1.
 Warning -- assumption of classical behavior for rotation
           may cause significant error
 Rotational temperatures (Kelvin)      0.17447     0.05132     0.04373
 Rotational constants (GHZ):           3.63536     1.06940     0.91120
 Zero-point vibrational energy     421234.1 (Joules/Mol)
                                  100.67737 (Kcal/Mol)
 Warning -- explicit consideration of   9 degrees of freedom as
           vibrations may cause significant error
 Vibrational temperatures:    103.17   122.89   171.41   291.64   421.36
          (Kelvin)            514.78   618.01   731.69   788.90   960.86
                             1053.88  1096.85  1150.87  1195.90  1221.15
                             1270.34  1330.24  1365.02  1420.35  1448.72
                             1494.17  1523.78  1536.22  1558.64  1618.77
                             1626.94  1685.10  1720.79  1744.01  1765.47
                             1785.84  1864.25  1894.10  1924.56  1964.47
                             2069.69  2109.55  2116.84  2156.97  2169.03
                             2706.57  4394.94  4403.00  4416.68  4486.74
                             4504.40  4507.36  4513.08  4519.03  4622.11
                             4644.38

 Zero-point correction=                           0.160440 (Hartree/Particle)
 Thermal correction to Energy=                    0.168619
 Thermal correction to Enthalpy=                  0.169563
 Thermal correction to Gibbs Free Energy=         0.126898
 Sum of electronic and zero-point Energies=           -423.066138
 Sum of electronic and thermal Energies=              -423.057958
 Sum of electronic and thermal Enthalpies=            -423.057014
 Sum of electronic and thermal Free Energies=         -423.099680

                     E (Thermal)             CV                S
                      KCal/Mol        Cal/Mol-Kelvin    Cal/Mol-Kelvin
 Total                  105.810             30.809             89.797
 Electronic               0.000              0.000              0.000
 Translational            0.889              2.981             40.409
 Rotational               0.889              2.981             28.897
 Vibrational            104.033             24.848             20.492
 Vibration     1          0.598              1.967              4.106
 Vibration     2          0.601              1.959              3.762
 Vibration     3          0.609              1.933              3.114
 Vibration     4          0.639              1.836              2.108
 Vibration     5          0.688              1.687              1.457
 Vibration     6          0.733              1.559              1.132
 Vibration     7          0.791              1.406              0.860
 Vibration     8          0.864              1.231              0.637
 Vibration     9          0.904              1.143              0.548

 Optimization completed.
    -- Stationary point found.
 Normal termination of Gaussian 09 at Mon Jan 27 13:43:54 2020.
