 Gaussian 09, Revision D.01,
 Gaussian 09:  ES64L-G09RevD.01 24-Apr-2013

 -----------------------------
 # b3lyp 6-31G(2df,p) opt Freq
 -----------------------------

 -----
 titel
 -----
 Symbolic Z-matrix:
 Charge =  0 Multiplicity = 1

 SCF Done:  E(RB3LYP) =  -423.103482543     A.U. after   13 cycles
 Optimization completed.
    -- Stationary point found.
 Normal termination of Gaussian 09 at Mon Jan 27 18:33:52 2020.

 ----------------------------------------------------------------------
 #N Geom=AllCheck Guess=TCheck SCRF=Check GenChk RB3LYP/6-31G(2df,p) Fr
 eq
 ----------------------------------------------------------------------

 Structure from the checkpoint file:  "/scratch/puck/g09_cb5fe823-7062-4039-99ea-09a124c2aa00/Gau-42630.chk"
 -----
 titel
 -----
 Charge =  0 Multiplicity = 1

                         Standard orientation:
 ---------------------------------------------------------------------
 Center     Atomic      Atomic             Coordinates (Angstroms)
 Number     Number       Type             X           Y           Z
 ---------------------------------------------------------------------
      1          6           0       -1.425384    1.486901    0.373209
      2          6           0       -0.594502    0.421444   -0.327836
      3          6           0       -1.504528   -0.829335   -0.622464
      4          8           0       -1.010398   -1.422037    0.636834
      5          6           0        0.157737   -0.599205    0.493845
      6          6           0        1.194026    0.288220    1.224375
      7          6           0        1.609892    0.454520   -0.310327
      8          6           0        1.307629   -1.039313   -0.465019
      9          8           0        0.488454    1.042847   -1.041569
     10          1           0       -0.796340    2.250103    0.834803
     11          1           0       -2.065093    1.987601   -0.362022
     12          1           0       -2.067130    1.037577    1.136673
     13          1           0       -2.584351   -0.669627   -0.584733
     14          1           0       -1.231989   -1.442435   -1.485600
     15          1           0        0.838370    1.153472    1.782794
     16          1           0        1.984096   -0.232119    1.768078
     17          1           0        2.540335    0.934889   -0.602048
     18          1           0        1.070371   -1.380434   -1.472857
     19          1           0        2.018060   -1.704910    0.028089
 ---------------------------------------------------------------------

 SCF Done:  E(RB3LYP) =  -423.103482543     A.U. after    1 cycles

 The electronic state is 1-A.
 Alpha  occ. eigenvalues --  -19.14616 -19.14344 -10.24928 -10.24212 -10.23769
 Alpha  occ. eigenvalues --  -10.23573 -10.19991 -10.18438 -10.17720  -1.06212
 Alpha  occ. eigenvalues --   -1.02330  -0.83886  -0.76489  -0.68830  -0.66222
 Alpha  occ. eigenvalues --   -0.65989  -0.58551  -0.52598  -0.50835  -0.48678
 Alpha  occ. eigenvalues --   -0.47580  -0.45466  -0.42918  -0.40083  -0.38897
 Alpha  occ. eigenvalues --   -0.37950  -0.37485  -0.36508  -0.35840  -0.34271
 Alpha  occ. eigenvalues --   -0.32973  -0.27377  -0.25888  -0.24165
 Alpha virt. eigenvalues --    0.06235   0.09342   0.10223   0.11450   0.12290
 Alpha virt. eigenvalues --    0.12555   0.14390   0.14504   0.15400   0.17002
 Alpha virt. eigenvalues --    0.17731   0.18246   0.18976   0.19968   0.21900

 Mulliken charges:
               1
     1  C   -0.444307
     2  C    0.373504
     3  C   -0.200775
     4  O   -0.365243
     5  C    0.393900
     6  C   -0.346331
     7  C    0.085705
     8  C   -0.286041
     9  O   -0.344330
    10  H    0.121385
    11  H    0.123676
    12  H    0.132311
    13  H    0.112830
    14  H    0.116116
    15  H    0.112298
    16  H    0.112016
    17  H    0.094476
    18  H    0.105148
    19  H    0.103664
 Sum of Mulliken charges =   0.00000

 Dipole moment (field-independent basis, Debye):
    X=              0.6487    Y=              0.3298    Z=              0.0496  Tot=              0.7294
 Quadrupole moment (field-independent basis, Debye-Ang):
   XX=            -48.6990   YY=            -56.4748   ZZ=            -54.6111
   XY=             -2.2255   XZ=              2.9717   YZ=              4.2067

  Exact polarizability:  85.394  -1.074  71.095   3.869   4.849  66.424
 Approx polarizability: 120.187   3.339 107.312   3.913   0.660 105.516

                      1                      2                      3
                      A                      A                      A
 Frequencies --    195.6334               250.6407               268.8434
 Red. masses --      1.2437                 2.7854                 2.1375
 Frc consts  --      0.0280                 0.1031                 0.0910
 IR Inten    --      0.6500                 3.9958                 1.0768

                      4                      5                      6
                      A                      A                      A
 Frequencies --    347.0507               390.0691               455.6718
 Red. masses --      3.8607                 2.0920                 3.2940
 Frc consts  --      0.2740                 0.1875                 0.4030
 IR Inten    --      3.8960                 1.5166                 4.2986

                      7                      8                      9
                      A                      A                      A
 Frequencies --    495.8093               529.4806               546.5850
 Red. masses --      4.0629                 2.6674                 2.0319
 Frc consts  --      0.5885                 0.4406                 0.3577
 IR Inten    --      8.5108                 2.9794                 3.8434

                     10                     11                     12
                      A                      A                      A
 Frequencies --    591.7605               715.7002               773.9514
 Red. masses --      3.6996                 5.8499                 3.3139
 Frc consts  --      0.7633                 1.7655                 1.1696
 IR Inten    --      3.0617                 1.5968                 1.1044

                     13                     14                     15
                      A                      A                      A
 Frequencies --    802.4508               858.5926               869.6777
 Red. masses --      3.2530                 2.1803                 4.9667
 Frc consts  --      1.2342                 0.9470                 2.2133
 IR Inten    --      3.6425                22.0769                23.3491

                     16                     17                     18
                      A                      A                      A
 Frequencies --    887.0682               925.9269               928.4955
 Red. masses --      2.8753                 2.4296                 2.2985
 Frc consts  --      1.3331                 1.2272                 1.1675
 IR Inten    --     16.2379                49.1021                14.4087

                     19                     20                     21
                      A                      A                      A
 Frequencies --    945.1044               958.5108               988.1804
 Red. masses --      1.8936                 2.1245                 1.7007
 Frc consts  --      0.9965                 1.1500                 0.9785
 IR Inten    --     11.5750                 0.9382                16.2729

                     22                     23                     24
                      A                      A                      A
 Frequencies --   1006.6540              1037.3531              1100.6316
 Red. masses --      1.3254                 1.6356                 1.5592
 Frc consts  --      0.7914                 1.0370                 1.1129
 IR Inten    --      4.1144                 4.3470                22.6294

                     25                     26                     27
                      A                      A                      A
 Frequencies --   1128.0290              1139.8109              1149.4512
 Red. masses --      1.4508                 2.3612                 1.5671
 Frc consts  --      1.0877                 1.8074                 1.2199
 IR Inten    --      7.3041                 8.5385                 9.8287

                     28                     29                     30
                      A                      A                      A
 Frequencies --   1151.8041              1190.7446              1217.2827
 Red. masses --      1.5489                 3.0996                 1.7721
 Frc consts  --      1.2106                 2.5893                 1.5471
 IR Inten    --      5.8452                13.5097                10.5537

                     31                     32                     33
                      A                      A                      A
 Frequencies --   1227.1215              1243.9363              1286.8388
 Red. masses --      1.7286                 2.7623                 1.8041
 Frc consts  --      1.5336                 2.5183                 1.7601
 IR Inten    --     12.0492                71.0909                15.2558

                     34                     35                     36
                      A                      A                      A
 Frequencies --   1298.2554              1333.7890              1400.8594
 Red. masses --      1.4945                 2.6415                 1.2645
 Frc consts  --      1.4841                 2.7687                 1.4620
 IR Inten    --      6.3662                 3.8097                 8.5765

                     37                     38                     39
                      A                      A                      A
 Frequencies --   1473.9160              1485.9743              1497.1043
 Red. masses --      1.0922                 1.0712                 1.0839
 Frc consts  --      1.3980                 1.3937                 1.4313
 IR Inten    --      1.8394                 4.7679                 3.3661

                     40                     41                     42
                      A                      A                      A
 Frequencies --   1506.7243              1521.4273              3039.8257
 Red. masses --      1.0998                 1.1192                 1.0371
 Frc consts  --      1.4711                 1.5264                 5.6464
 IR Inten    --      1.8284                 3.9896                13.4840

                     43                     44                     45
                      A                      A                      A
 Frequencies --   3056.3107              3079.7377              3089.8561
 Red. masses --      1.0549                 1.0564                 1.0575
 Frc consts  --      5.8055                 5.9037                 5.9483
 IR Inten    --     38.9873                25.5348                 9.7986

                     46                     47                     48
                      A                      A                      A
 Frequencies --   3106.2116              3122.1050              3133.2716
 Red. masses --      1.0986                 1.1123                 1.1028
 Frc consts  --      6.2451                 6.3879                 6.3787
 IR Inten    --     15.2494                22.6562                22.7878

                     49                     50                     51
                      A                      A                      A
 Frequencies --   3149.1004              3157.8957              3161.9308
 Red. masses --      1.1101                 1.1089                 1.0924
 Frc consts  --      6.4864                 6.5156                 6.4351
 IR Inten    --     24.3729                22.9970                29.1455

 - Thermochemistry -
 -------------------
 Temperature   298.150 Kelvin.  Pressure   1.00000 Atm.
 Atom     1 has atomic number  6 and mass  12.00000

 Molecular mass:   126.06808 amu.
 Principal axes and moments of inertia in atomic units:
                           1         2         3
     Eigenvalues --   699.87444 887.294821097.09493
           X            0.99111  -0.13167   0.01918
           Y            0.12806   0.98305   0.13123
           Z           -0.03613  -0.12761   0.99117
 This molecule is an asymmetric top.
 Rotational symmetry number  1.
 Warning -- assumption of classical behavior for rotation
           may cause significant error
 Rotational temperatures (Kelvin)      0.12376     0.09762     0.07895
 Rotational constants (GHZ):           2.57866     2.03398     1.64502
 Zero-point vibrational energy     420003.8 (Joules/Mol)
                                  100.38332 (Kcal/Mol)
 Warning -- explicit consideration of  10 degrees of freedom as
           vibrations may cause significant error
 Vibrational temperatures:    281.47   360.62   386.81   499.33   561.22
          (Kelvin)            655.61   713.36   761.80   786.41   851.41
                             1029.73  1113.54  1154.55  1235.32  1251.27
                             1276.29  1332.20  1335.90  1359.79  1379.08
                             1421.77  1448.35  1492.52  1583.56  1622.98
                             1639.93  1653.80  1657.19  1713.21  1751.40
                             1765.55  1789.74  1851.47  1867.90  1919.02
                             2015.52  2120.63  2137.98  2154.00  2167.84
                             2188.99  4373.63  4397.34  4431.05  4445.61
                             4469.14  4492.01  4508.07  4530.85  4543.50
                             4549.31

 Zero-point correction=                           0.159971 (Hartree/Particle)
 Thermal correction to Energy=                    0.167027
 Thermal correction to Enthalpy=                  0.167971
 Thermal correction to Gibbs Free Energy=         0.129163
 Sum of electronic and zero-point Energies=           -422.943512
 Sum of electronic and thermal Energies=              -422.936456
 Sum of electronic and thermal Enthalpies=            -422.935512
 Sum of electronic and thermal Free Energies=         -422.974319

                     E (Thermal)             CV                S
                      KCal/Mol        Cal/Mol-Kelvin    Cal/Mol-Kelvin
 Total                  104.811             29.969             81.677
 Electronic               0.000              0.000              0.000
 Translational            0.889              2.981             40.409
 Rotational               0.889              2.981             28.012
 Vibrational            103.033             24.008             13.256
 Vibration     1          0.636              1.846              2.174
 Vibration     2          0.663              1.762              1.726
 Vibration     3          0.673              1.730              1.604
 Vibration     4          0.725              1.581              1.180
 Vibration     5          0.758              1.491              1.000
 Vibration     6          0.814              1.348              0.779
 Vibration     7          0.851              1.259              0.669
 Vibration     8          0.884              1.185              0.588
 Vibration     9          0.902              1.147              0.551
 Vibration    10          0.949              1.049              0.464

 Optimization completed.
    -- Stationary point found.
 Normal termination of Gaussian 09 at Mon Jan 27 19:33:13 2020.
