 Gaussian 09, Revision D.01,
 Gaussian 09:  ES64L-G09RevD.01 24-Apr-2013

 -----------------------------
 # b3lyp 6-31G(2df,p) opt Freq
 -----------------------------

 -----
 titel
 -----
 Symbolic Z-matrix:
 Charge =  0 Multiplicity = 1

 SCF Done:  E(RB3LYP) =  -423.177984572     A.U. after   14 cycles
 Optimization completed.
    -- Stationary point found.
 Normal termination of Gaussian 09 at Tue Jan 28 00:03:17 2020.

 ----------------------------------------------------------------------
 #N Geom=AllCheck Guess=TCheck SCRF=Check GenChk RB3LYP/6-31G(2df,p) Fr
 eq
 ----------------------------------------------------------------------

 Structure from the checkpoint file:  "/scratch/puck/g09_3530d453-0b1f-4b53-8884-a0baae48a95b/Gau-116681.chk"
 -----
 titel
 -----
 Charge =  0 Multiplicity = 1

                         Standard orientation:
 ---------------------------------------------------------------------
 Center     Atomic      Atomic             Coordinates (Angstroms)
 Number     Number       Type             X           Y           Z
 ---------------------------------------------------------------------
      1          6           0       -2.366379   -0.625059    0.879061
      2          6           0       -1.499804   -0.050055   -0.259520
      3          6           0       -0.638378   -1.122731   -0.875191
      4          6           0        0.692565   -1.161327   -0.840694
      5          6           0        1.556127   -0.143129   -0.148228
      6          8           0        2.239088   -0.720566    0.970335
      7          6           0        0.783295    1.084954    0.294451
      8          8           0        0.112164    1.813969   -0.734883
      9          6           0       -0.686271    1.130285    0.234541
     10          1           0       -2.970347   -1.464861    0.523248
     11          1           0       -1.741889   -0.987686    1.702352
     12          1           0       -3.046720    0.135517    1.275693
     13          1           0       -2.184172    0.324654   -1.035612
     14          1           0       -1.179170   -1.924971   -1.373883
     15          1           0        1.225658   -1.990362   -1.298689
     16          1           0        2.361079    0.181496   -0.819874
     17          1           0        1.579002   -1.193469    1.489635
     18          1           0        1.310468    1.697099    1.026472
     19          1           0       -1.210849    1.797735    0.920528
 ---------------------------------------------------------------------

 SCF Done:  E(RB3LYP) =  -423.177984572     A.U. after    1 cycles

 The electronic state is 1-A.
 Alpha  occ. eigenvalues --  -19.14855 -19.13998 -10.23775 -10.23715 -10.23256
 Alpha  occ. eigenvalues --  -10.20322 -10.19268 -10.18906 -10.18553  -1.07168
 Alpha  occ. eigenvalues --   -1.01979  -0.82414  -0.76629  -0.70642  -0.67046
 Alpha  occ. eigenvalues --   -0.61596  -0.61147  -0.54064  -0.50856  -0.48470
 Alpha  occ. eigenvalues --   -0.45727  -0.45569  -0.44826  -0.42433  -0.41147
 Alpha  occ. eigenvalues --   -0.39442  -0.36609  -0.36281  -0.34565  -0.33287
 Alpha  occ. eigenvalues --   -0.29443  -0.28516  -0.26741  -0.25037
 Alpha virt. eigenvalues --    0.00590   0.06931   0.08686   0.10194   0.12500
 Alpha virt. eigenvalues --    0.12718   0.14327   0.14972   0.15245   0.17367
 Alpha virt. eigenvalues --    0.17983   0.18593   0.18895   0.21328   0.22136

 Mulliken charges:
               1
     1  C   -0.396312
     2  C   -0.075588
     3  C   -0.047239
     4  C   -0.104663
     5  C    0.041625
     6  O   -0.424676
     7  C    0.003857
     8  O   -0.267496
     9  C    0.057045
    10  H    0.121956
    11  H    0.115127
    12  H    0.120423
    13  H    0.099048
    14  H    0.093927
    15  H    0.097819
    16  H    0.103582
    17  H    0.277380
    18  H    0.095735
    19  H    0.088451
 Sum of Mulliken charges =   0.00000

 Dipole moment (field-independent basis, Debye):
    X=             -1.9631    Y=             -1.3414    Z=              1.0046  Tot=              2.5811
 Quadrupole moment (field-independent basis, Debye-Ang):
   XX=            -54.4541   YY=            -54.3783   ZZ=            -53.0808
   XY=              0.8834   XZ=             -1.7827   YZ=              2.9676

  Exact polarizability:  94.710   0.281  70.059  -0.699   4.514  64.134
 Approx polarizability: 142.146  -1.043  99.215   2.504   0.583  99.635

                      1                      2                      3
                      A                      A                      A
 Frequencies --     63.0048               183.8769               215.6389
 Red. masses --      3.7388                 3.4691                 1.4146
 Frc consts  --      0.0087                 0.0691                 0.0388
 IR Inten    --      0.4572                 2.1272                 1.5400

                      4                      5                      6
                      A                      A                      A
 Frequencies --    251.8840               273.7575               319.5504
 Red. masses --      1.7906                 2.9493                 1.7077
 Frc consts  --      0.0669                 0.1302                 0.1027
 IR Inten    --      0.3883                 3.7052                21.6146

                      7                      8                      9
                      A                      A                      A
 Frequencies --    347.5316               412.0722               499.0446
 Red. masses --      1.7038                 5.8134                 4.6096
 Frc consts  --      0.1212                 0.5816                 0.6764
 IR Inten    --     65.6604                 6.9524                 5.3232

                     10                     11                     12
                      A                      A                      A
 Frequencies --    530.9238               542.1606               599.9578
 Red. masses --      5.0162                 3.7412                 3.5500
 Frc consts  --      0.8331                 0.6479                 0.7529
 IR Inten    --      0.5532                 2.4133                 0.4443

                     13                     14                     15
                      A                      A                      A
 Frequencies --    758.9091               785.6687               824.7418
 Red. masses --      2.1724                 1.9199                 3.0317
 Frc consts  --      0.7372                 0.6982                 1.2150
 IR Inten    --      3.9832                18.8017                41.7093

                     16                     17                     18
                      A                      A                      A
 Frequencies --    874.4543               907.9690               923.2259
 Red. masses --      2.5852                 3.3942                 3.5599
 Frc consts  --      1.1647                 1.6486                 1.7877
 IR Inten    --      7.2637                13.5518                13.2481

                     19                     20                     21
                      A                      A                      A
 Frequencies --    966.1516              1011.4966              1028.3849
 Red. masses --      2.0191                 1.2439                 1.9090
 Frc consts  --      1.1104                 0.7498                 1.1895
 IR Inten    --      2.6338                 0.2070                19.6217

                     22                     23                     24
                      A                      A                      A
 Frequencies --   1054.0209              1067.7247              1093.1368
 Red. masses --      3.7133                 2.3818                 1.3009
 Frc consts  --      2.4305                 1.5998                 0.9159
 IR Inten    --     94.3546                 5.7775                 0.5432

                     25                     26                     27
                      A                      A                      A
 Frequencies --   1098.9099              1124.5762              1183.0254
 Red. masses --      2.1665                 1.5550                 1.3643
 Frc consts  --      1.5415                 1.1587                 1.1250
 IR Inten    --      0.4771                 4.6693                 1.5545

                     28                     29                     30
                      A                      A                      A
 Frequencies --   1212.8966              1252.0291              1281.7879
 Red. masses --      1.1662                 1.2509                 1.2526
 Frc consts  --      1.0108                 1.1553                 1.2126
 IR Inten    --      4.2572                16.1710                 0.5460

                     31                     32                     33
                      A                      A                      A
 Frequencies --   1310.3206              1352.0973              1369.7635
 Red. masses --      1.3036                 1.2727                 2.0414
 Frc consts  --      1.3187                 1.3709                 2.2567
 IR Inten    --      3.1364                 0.0669                 0.9066

                     34                     35                     36
                      A                      A                      A
 Frequencies --   1378.1903              1397.6570              1405.5196
 Red. masses --      1.8997                 1.2332                 1.1999
 Frc consts  --      2.1260                 1.4194                 1.3966
 IR Inten    --      1.4278                18.4326                36.2205

                     37                     38                     39
                      A                      A                      A
 Frequencies --   1435.9685              1474.1330              1496.6283
 Red. masses --      1.4723                 3.1717                 1.0642
 Frc consts  --      1.7887                 4.0608                 1.4044
 IR Inten    --     16.5731                 8.6917                 6.1744

                     40                     41                     42
                      A                      A                      A
 Frequencies --   1499.1796              1725.7655              2992.6929
 Red. masses --      1.0649                 7.0556                 1.0814
 Frc consts  --      1.4102                12.3807                 5.7063
 IR Inten    --      2.8021                 3.0748                19.8222

                     43                     44                     45
                      A                      A                      A
 Frequencies --   3031.4567              3033.1156              3090.8727
 Red. masses --      1.0831                 1.0348                 1.0865
 Frc consts  --      5.8643                 5.6087                 6.1154
 IR Inten    --     31.0446                20.5252                23.8265

                     46                     47                     48
                      A                      A                      A
 Frequencies --   3103.9170              3110.3473              3115.4921
 Red. masses --      1.1017                 1.1014                 1.0904
 Frc consts  --      6.2534                 6.2779                 6.2358
 IR Inten    --     34.3435                16.5707                40.7854

                     49                     50                     51
                      A                      A                      A
 Frequencies --   3138.8407              3168.7583              3799.5368
 Red. masses --      1.0846                 1.0951                 1.0661
 Frc consts  --      6.2961                 6.4787                 9.0680
 IR Inten    --     11.6783                22.2653                11.5390

 - Thermochemistry -
 -------------------
 Temperature   298.150 Kelvin.  Pressure   1.00000 Atm.
 Atom     1 has atomic number  6 and mass  12.00000

 Molecular mass:   126.06808 amu.
 Principal axes and moments of inertia in atomic units:
                           1         2         3
     Eigenvalues --   759.432661196.428051474.67037
           X            0.99917   0.03078  -0.02671
           Y           -0.02942   0.99832   0.04988
           Z            0.02820  -0.04905   0.99840
 This molecule is an asymmetric top.
 Rotational symmetry number  1.
 Warning -- assumption of classical behavior for rotation
           may cause significant error
 Rotational temperatures (Kelvin)      0.11405     0.07239     0.05873
 Rotational constants (GHZ):           2.37643     1.50844     1.22383
 Zero-point vibrational energy     419403.4 (Joules/Mol)
                                  100.23981 (Kcal/Mol)
 Warning -- explicit consideration of  12 degrees of freedom as
           vibrations may cause significant error
 Vibrational temperatures:     90.65   264.56   310.26   362.40   393.88
          (Kelvin)            459.76   500.02   592.88   718.01   763.88
                              780.05   863.20  1091.90  1130.40  1186.62
                             1258.14  1306.36  1328.31  1390.07  1455.32
                             1479.61  1516.50  1536.22  1572.78  1581.08
                             1618.01  1702.11  1745.09  1801.39  1844.20
                             1885.26  1945.36  1970.78  1982.91  2010.91
                             2022.23  2066.04  2120.95  2153.31  2156.98
                             2482.99  4305.81  4361.58  4363.97  4447.07
                             4465.84  4475.09  4482.49  4516.09  4559.13
                             5466.68

 Zero-point correction=                           0.159742 (Hartree/Particle)
 Thermal correction to Energy=                    0.168066
 Thermal correction to Enthalpy=                  0.169010
 Thermal correction to Gibbs Free Energy=         0.126867
 Sum of electronic and zero-point Energies=           -423.018242
 Sum of electronic and thermal Energies=              -423.009918
 Sum of electronic and thermal Enthalpies=            -423.008974
 Sum of electronic and thermal Free Energies=         -423.051117

                     E (Thermal)             CV                S
                      KCal/Mol        Cal/Mol-Kelvin    Cal/Mol-Kelvin
 Total                  105.463             32.276             88.697
 Electronic               0.000              0.000              0.000
 Translational            0.889              2.981             40.409
 Rotational               0.889              2.981             28.684
 Vibrational            103.686             26.314             19.604
 Vibration     1          0.597              1.972              4.361
 Vibration     2          0.631              1.862              2.289
 Vibration     3          0.645              1.817              1.995
 Vibration     4          0.664              1.760              1.717
 Vibration     5          0.676              1.722              1.572
 Vibration     6          0.705              1.636              1.312
 Vibration     7          0.725              1.580              1.177
 Vibration     8          0.776              1.444              0.919
 Vibration     9          0.854              1.252              0.661
 Vibration    10          0.886              1.182              0.585
 Vibration    11          0.897              1.157              0.561
 Vibration    12          0.958              1.032              0.450

 Optimization completed.
    -- Stationary point found.
 Normal termination of Gaussian 09 at Tue Jan 28 00:56:33 2020.
