 Gaussian 09, Revision D.01,
 Gaussian 09:  ES64L-G09RevD.01 24-Apr-2013

 -----------------------------
 # b3lyp 6-31G(2df,p) opt Freq
 -----------------------------

 -----
 titel
 -----
 Symbolic Z-matrix:
 Charge =  0 Multiplicity = 1

 SCF Done:  E(RB3LYP) =  -423.196646152     A.U. after   14 cycles
 Optimization completed.
    -- Stationary point found.
 Normal termination of Gaussian 09 at Mon Jan 27 13:10:03 2020.

 ----------------------------------------------------------------------
 #N Geom=AllCheck Guess=TCheck SCRF=Check GenChk RB3LYP/6-31G(2df,p) Fr
 eq
 ----------------------------------------------------------------------

 Structure from the checkpoint file:  "/scratch/puck/g09_c462fe72-d894-41fd-bdf3-25dcff80a41b/Gau-38034.chk"
 -----
 titel
 -----
 Charge =  0 Multiplicity = 1

                         Standard orientation:
 ---------------------------------------------------------------------
 Center     Atomic      Atomic             Coordinates (Angstroms)
 Number     Number       Type             X           Y           Z
 ---------------------------------------------------------------------
      1          8           0        2.332580   -1.088116   -0.319130
      2          6           0        1.317867   -0.458767   -0.127119
      3          6           0        1.376119    0.951126    0.470946
      4          8           0        0.111678    1.554577    0.654514
      5          6           0       -0.660999    1.515100   -0.539414
      6          6           0       -1.142619    0.098359   -0.832258
      7          6           0       -2.102378   -0.497662    0.237287
      8          6           0       -0.938064   -1.347515    0.806341
      9          6           0       -0.063253   -0.975533   -0.443168
     10          1           0        1.861892    0.904125    1.450361
     11          1           0        2.019731    1.560171   -0.186396
     12          1           0       -1.507559    2.191292   -0.382009
     13          1           0       -0.067557    1.906852   -1.382840
     14          1           0       -1.498295    0.037031   -1.864639
     15          1           0       -2.553450    0.221870    0.925245
     16          1           0       -2.899019   -1.102686   -0.202166
     17          1           0       -0.535216   -0.944340    1.737464
     18          1           0       -1.118227   -2.415957    0.937228
     19          1           0        0.023590   -1.800695   -1.151007
 ---------------------------------------------------------------------

 SCF Done:  E(RB3LYP) =  -423.196646152     A.U. after    1 cycles

 The electronic state is 1-A.
 Alpha  occ. eigenvalues --  -19.15174 -19.12796 -10.26591 -10.23689 -10.23659
 Alpha  occ. eigenvalues --  -10.19915 -10.19642 -10.19397 -10.18797  -1.05002
 Alpha  occ. eigenvalues --   -1.03438  -0.85411  -0.75613  -0.70801  -0.67880
 Alpha  occ. eigenvalues --   -0.62358  -0.57719  -0.53246  -0.50684  -0.49610
 Alpha  occ. eigenvalues --   -0.47916  -0.44769  -0.43751  -0.41400  -0.40785
 Alpha  occ. eigenvalues --   -0.40011  -0.38792  -0.34943  -0.34151  -0.33398
 Alpha  occ. eigenvalues --   -0.31817  -0.30468  -0.27753  -0.22933
 Alpha virt. eigenvalues --   -0.02037   0.07384   0.08845   0.11477   0.12009
 Alpha virt. eigenvalues --    0.12829   0.13392   0.14947   0.15581   0.16675
 Alpha virt. eigenvalues --    0.17502   0.17857   0.18983   0.21833   0.23277

 Mulliken charges:
               1
     1  O   -0.316652
     2  C    0.347904
     3  C   -0.182846
     4  O   -0.245420
     5  C   -0.103111
     6  C   -0.033401
     7  C   -0.218977
     8  C   -0.228869
     9  C   -0.096093
    10  H    0.140564
    11  H    0.120708
    12  H    0.113208
    13  H    0.091446
    14  H    0.076669
    15  H    0.107112
    16  H    0.104435
    17  H    0.119472
    18  H    0.111142
    19  H    0.092708
 Sum of Mulliken charges =   0.00000

 Dipole moment (field-independent basis, Debye):
    X=             -2.3680    Y=              0.7076    Z=             -0.5181  Tot=              2.5252
 Quadrupole moment (field-independent basis, Debye-Ang):
   XX=            -57.7418   YY=            -54.6275   ZZ=            -51.9366
   XY=              4.8933   XZ=              2.4773   YZ=             -2.4258

  Exact polarizability:  84.986  -0.215  74.229   0.489  -1.105  64.800
 Approx polarizability: 120.512  -6.476 105.256  -1.961   1.467 100.474

                      1                      2                      3
                      A                      A                      A
 Frequencies --     83.6260                96.0277               215.6409
 Red. masses --      3.3003                 2.1876                 3.3546
 Frc consts  --      0.0136                 0.0119                 0.0919
 IR Inten    --      2.9754                 1.9674                 1.6956

                      4                      5                      6
                      A                      A                      A
 Frequencies --    256.9079               383.0795               423.5588
 Red. masses --      2.9386                 2.1539                 5.6861
 Frc consts  --      0.1143                 0.1862                 0.6010
 IR Inten    --      3.7865                 8.3018                11.6605

                      7                      8                      9
                      A                      A                      A
 Frequencies --    432.3066               505.3002               584.5190
 Red. masses --      3.7082                 4.1927                 2.5388
 Frc consts  --      0.4083                 0.6307                 0.5111
 IR Inten    --      6.0616                 1.3240                 1.1613

                     10                     11                     12
                      A                      A                      A
 Frequencies --    595.0329               737.8669               751.9829
 Red. masses --      5.4317                 1.5568                 1.7006
 Frc consts  --      1.1331                 0.4994                 0.5666
 IR Inten    --      1.2133                13.4255                 1.8357

                     13                     14                     15
                      A                      A                      A
 Frequencies --    770.7845               863.6809               899.8789
 Red. masses --      3.5378                 2.6029                 2.1775
 Frc consts  --      1.2384                 1.1440                 1.0389
 IR Inten    --      0.9726                 1.6571                 1.6131

                     16                     17                     18
                      A                      A                      A
 Frequencies --    921.3261               945.4958               969.1339
 Red. masses --      2.7002                 3.1389                 2.5308
 Frc consts  --      1.3504                 1.6533                 1.4005
 IR Inten    --      4.3425                25.2262                 2.8748

                     19                     20                     21
                      A                      A                      A
 Frequencies --    993.9988              1014.5476              1061.2974
 Red. masses --      1.4495                 2.1651                 2.1651
 Frc consts  --      0.8438                 1.3131                 1.4368
 IR Inten    --      0.8214                 0.5363                 2.4340

                     22                     23                     24
                      A                      A                      A
 Frequencies --   1078.5757              1139.4867              1142.0113
 Red. masses --      2.0802                 3.0312                 1.9772
 Frc consts  --      1.4258                 2.3189                 1.5193
 IR Inten    --     15.9831                51.0898                37.5708

                     25                     26                     27
                      A                      A                      A
 Frequencies --   1193.6530              1225.0877              1244.3557
 Red. masses --      2.1504                 1.4029                 1.2118
 Frc consts  --      1.8052                 1.2405                 1.1056
 IR Inten    --     18.9325                 9.3511                 6.7344

                     28                     29                     30
                      A                      A                      A
 Frequencies --   1254.6827              1259.7458              1277.2222
 Red. masses --      1.6038                 1.3482                 1.4925
 Frc consts  --      1.4875                 1.2606                 1.4345
 IR Inten    --     43.2367                 1.8341                 1.5618

                     31                     32                     33
                      A                      A                      A
 Frequencies --   1283.0834              1301.0016              1326.7361
 Red. masses --      1.5352                 1.3934                 1.2336
 Frc consts  --      1.4891                 1.3895                 1.2793
 IR Inten    --      3.4641                 1.8706                 4.0865

                     34                     35                     36
                      A                      A                      A
 Frequencies --   1350.7273              1356.0501              1405.2124
 Red. masses --      1.6841                 1.3547                 1.2932
 Frc consts  --      1.8103                 1.4677                 1.5046
 IR Inten    --      6.3164                 6.6859                 5.2400

                     37                     38                     39
                      A                      A                      A
 Frequencies --   1454.4770              1473.2862              1492.2043
 Red. masses --      1.0853                 1.0821                 1.1216
 Frc consts  --      1.3527                 1.3838                 1.4715
 IR Inten    --      7.7022                 1.4432                 2.4884

                     40                     41                     42
                      A                      A                      A
 Frequencies --   1498.1394              1812.1758              2963.2631
 Red. masses --      1.0900                12.0978                 1.0701
 Frc consts  --      1.4414                23.4076                 5.5365
 IR Inten    --      2.4908               180.3014                37.1797

                     43                     44                     45
                      A                      A                      A
 Frequencies --   2972.4951              3059.1758              3066.2866
 Red. masses --      1.0700                 1.0649                 1.0798
 Frc consts  --      5.5701                 5.8719                 5.9817
 IR Inten    --     51.5226                25.5897                40.3776

                     46                     47                     48
                      A                      A                      A
 Frequencies --   3074.9365              3075.9420              3088.4494
 Red. masses --      1.0637                 1.0879                 1.0905
 Frc consts  --      5.9259                 6.0646                 6.1287
 IR Inten    --     25.7667                35.9237                 9.0098

                     49                     50                     51
                      A                      A                      A
 Frequencies --   3103.2946              3109.2004              3133.2740
 Red. masses --      1.0909                 1.1052                 1.1072
 Frc consts  --      6.1901                 6.2948                 6.4041
 IR Inten    --     12.3479                 3.7626                35.1334

 - Thermochemistry -
 -------------------
 Temperature   298.150 Kelvin.  Pressure   1.00000 Atm.
 Atom     1 has atomic number  8 and mass  15.99491

 Molecular mass:   126.06808 amu.
 Principal axes and moments of inertia in atomic units:
                           1         2         3
     Eigenvalues --   732.766911043.179521435.11104
           X            0.99659   0.08208   0.00891
           Y           -0.08173   0.99605  -0.03470
           Z           -0.01172   0.03386   0.99936
 This molecule is an asymmetric top.
 Rotational symmetry number  1.
 Warning -- assumption of classical behavior for rotation
           may cause significant error
 Rotational temperatures (Kelvin)      0.11820     0.08303     0.06035
 Rotational constants (GHZ):           2.46291     1.73004     1.25756
 Zero-point vibrational energy     423000.9 (Joules/Mol)
                                  101.09964 (Kcal/Mol)
 Warning -- explicit consideration of  10 degrees of freedom as
           vibrations may cause significant error
 Vibrational temperatures:    120.32   138.16   310.26   369.63   551.17
          (Kelvin)            609.41   621.99   727.01   840.99   856.12
                             1061.62  1081.93  1108.99  1242.64  1294.72
                             1325.58  1360.36  1394.37  1430.14  1459.71
                             1526.97  1551.83  1639.47  1643.10  1717.40
                             1762.63  1790.35  1805.21  1812.49  1837.64
                             1846.07  1871.85  1908.87  1943.39  1951.05
                             2021.78  2092.67  2119.73  2146.95  2155.49
                             2607.31  4263.47  4276.75  4401.47  4411.70
                             4424.14  4425.59  4443.58  4464.94  4473.44
                             4508.08

 Zero-point correction=                           0.161113 (Hartree/Particle)
 Thermal correction to Energy=                    0.168781
 Thermal correction to Enthalpy=                  0.169725
 Thermal correction to Gibbs Free Energy=         0.128634
 Sum of electronic and zero-point Energies=           -423.035534
 Sum of electronic and thermal Energies=              -423.027865
 Sum of electronic and thermal Enthalpies=            -423.026921
 Sum of electronic and thermal Free Energies=         -423.068012

                     E (Thermal)             CV                S
                      KCal/Mol        Cal/Mol-Kelvin    Cal/Mol-Kelvin
 Total                  105.912             29.749             86.483
 Electronic               0.000              0.000              0.000
 Translational            0.889              2.981             40.409
 Rotational               0.889              2.981             28.486
 Vibrational            104.134             23.788             17.589
 Vibration     1          0.601              1.960              3.804
 Vibration     2          0.603              1.952              3.533
 Vibration     3          0.645              1.817              1.995
 Vibration     4          0.666              1.751              1.683
 Vibration     5          0.752              1.506              1.027
 Vibration     6          0.786              1.419              0.880
 Vibration     7          0.793              1.400              0.851
 Vibration     8          0.861              1.238              0.645
 Vibration     9          0.941              1.065              0.477
 Vibration    10          0.953              1.042              0.458

 Optimization completed.
    -- Stationary point found.
 Normal termination of Gaussian 09 at Mon Jan 27 13:56:01 2020.
