 Gaussian 09, Revision D.01,
 Gaussian 09:  ES64L-G09RevD.01 24-Apr-2013

 -----------------------------
 # b3lyp 6-31G(2df,p) opt Freq
 -----------------------------

 -----
 titel
 -----
 Symbolic Z-matrix:
 Charge =  0 Multiplicity = 1

 SCF Done:  E(RB3LYP) =  -423.166110473     A.U. after   14 cycles
 Optimization completed.
    -- Stationary point found.
 Normal termination of Gaussian 09 at Tue Jan 28 13:48:12 2020.

 ----------------------------------------------------------------------
 #N Geom=AllCheck Guess=TCheck SCRF=Check GenChk RB3LYP/6-31G(2df,p) Fr
 eq
 ----------------------------------------------------------------------

 Structure from the checkpoint file:  "/scratch/puck/g09_cee9b780-e0c7-4ff1-8838-6662c887263c/Gau-110236.chk"
 -----
 titel
 -----
 Charge =  0 Multiplicity = 1

                         Standard orientation:
 ---------------------------------------------------------------------
 Center     Atomic      Atomic             Coordinates (Angstroms)
 Number     Number       Type             X           Y           Z
 ---------------------------------------------------------------------
      1          6           0        2.547824    0.473652   -0.015381
      2          8           0        1.580999   -0.376405   -0.606612
      3          6           0        0.705789   -0.953325    0.317676
      4          6           0       -0.404499   -1.801514   -0.348222
      5          6           0       -1.497857   -0.909890    0.295104
      6          6           0       -1.935434    0.299676   -0.578390
      7          6           0       -0.811547    1.129693    0.069690
      8          8           0       -0.440272    2.261733   -0.050472
      9          6           0       -0.381443   -0.024568    0.978753
     10          1           0        3.144701   -0.064199    0.737291
     11          1           0        3.208618    0.811571   -0.816537
     12          1           0        2.080973    1.349115    0.454255
     13          1           0        1.265134   -1.501285    1.091085
     14          1           0       -0.368687   -1.780378   -1.440277
     15          1           0       -0.414060   -2.842194   -0.018012
     16          1           0       -2.279980   -1.404752    0.867694
     17          1           0       -1.888620    0.184096   -1.665201
     18          1           0       -2.920331    0.701080   -0.314826
     19          1           0       -0.290568    0.181986    2.045823
 ---------------------------------------------------------------------

 SCF Done:  E(RB3LYP) =  -423.166110473     A.U. after    1 cycles

 The electronic state is 1-A.
 Alpha  occ. eigenvalues --  -19.14570 -19.13470 -10.26757 -10.24420 -10.22151
 Alpha  occ. eigenvalues --  -10.20129 -10.19160 -10.19060 -10.18775  -1.04489
 Alpha  occ. eigenvalues --   -1.03759  -0.87486  -0.75538  -0.68842  -0.68157
 Alpha  occ. eigenvalues --   -0.60841  -0.57472  -0.52064  -0.50586  -0.49028
 Alpha  occ. eigenvalues --   -0.46232  -0.45349  -0.44013  -0.42111  -0.41275
 Alpha  occ. eigenvalues --   -0.40044  -0.37634  -0.36006  -0.33960  -0.32131
 Alpha  occ. eigenvalues --   -0.31674  -0.29900  -0.25632  -0.23796
 Alpha virt. eigenvalues --   -0.02145   0.07880   0.08729   0.11247   0.12570
 Alpha virt. eigenvalues --    0.13558   0.13803   0.15053   0.15849   0.17095
 Alpha virt. eigenvalues --    0.17281   0.17594   0.18600   0.20203   0.21845

 Mulliken charges:
               1
     1  C   -0.251140
     2  O   -0.232849
     3  C    0.140318
     4  C   -0.267572
     5  C   -0.027942
     6  C   -0.355887
     7  C    0.441539
     8  O   -0.309109
     9  C   -0.222837
    10  H    0.101762
    11  H    0.130250
    12  H    0.134398
    13  H    0.072951
    14  H    0.113831
    15  H    0.107277
    16  H    0.077384
    17  H    0.129432
    18  H    0.131942
    19  H    0.086252
 Sum of Mulliken charges =   0.00000

 Dipole moment (field-independent basis, Debye):
    X=             -0.5806    Y=             -2.3311    Z=              1.2117  Tot=              2.6906
 Quadrupole moment (field-independent basis, Debye-Ang):
   XX=            -48.3326   YY=            -59.1881   ZZ=            -52.1811
   XY=              1.8031   XZ=              1.3698   YZ=             -0.4787

  Exact polarizability:  83.035   2.971  78.934   3.261  -1.694  65.044
 Approx polarizability: 109.117   6.002 119.282   3.379  -2.547 101.261

                      1                      2                      3
                      A                      A                      A
 Frequencies --     47.5384               103.6844               149.6444
 Red. masses --      3.0159                 5.4277                 2.6086
 Frc consts  --      0.0040                 0.0344                 0.0344
 IR Inten    --      2.4579                 4.7722                 3.4170

                      4                      5                      6
                      A                      A                      A
 Frequencies --    209.5105               249.3147               346.2750
 Red. masses --      1.3444                 2.2058                 1.9252
 Frc consts  --      0.0348                 0.0808                 0.1360
 IR Inten    --      0.0808                 3.1664                 1.0147

                      7                      8                      9
                      A                      A                      A
 Frequencies --    396.8314               424.0297               455.2787
 Red. masses --      4.0330                 3.3020                 3.3829
 Frc consts  --      0.3742                 0.3498                 0.4131
 IR Inten    --      3.8923                 2.6340                 1.5612

                     10                     11                     12
                      A                      A                      A
 Frequencies --    573.9112               588.7944               703.0738
 Red. masses --      2.7565                 3.6253                 3.0622
 Frc consts  --      0.5349                 0.7405                 0.8918
 IR Inten    --      1.3753                 1.1959                 1.4921

                     13                     14                     15
                      A                      A                      A
 Frequencies --    758.4915               806.9775               849.3695
 Red. masses --      2.2657                 2.1644                 1.8900
 Frc consts  --      0.7680                 0.8305                 0.8034
 IR Inten    --      0.2848                 0.5536                 1.0331

                     16                     17                     18
                      A                      A                      A
 Frequencies --    904.4737               915.4961               954.3108
 Red. masses --      2.9437                 2.0987                 2.4741
 Frc consts  --      1.4188                 1.0364                 1.3276
 IR Inten    --      2.4412                 3.4987                14.1775

                     19                     20                     21
                      A                      A                      A
 Frequencies --   1020.9023              1028.3996              1045.1755
 Red. masses --      2.6835                 2.8031                 1.4252
 Frc consts  --      1.6479                 1.7467                 0.9173
 IR Inten    --      5.5937                11.4372                18.5370

                     22                     23                     24
                      A                      A                      A
 Frequencies --   1061.8074              1089.8838              1124.7970
 Red. masses --      4.1388                 1.9757                 2.0143
 Frc consts  --      2.7493                 1.3827                 1.5015
 IR Inten    --     75.7461                 8.9121                41.5528

                     25                     26                     27
                      A                      A                      A
 Frequencies --   1143.3941              1175.1568              1182.7064
 Red. masses --      2.1400                 1.4261                 1.3408
 Frc consts  --      1.6483                 1.1604                 1.1050
 IR Inten    --     87.2031                13.0461                 0.5665

                     28                     29                     30
                      A                      A                      A
 Frequencies --   1198.5730              1218.3720              1232.7127
 Red. masses --      1.4215                 1.5742                 1.6764
 Frc consts  --      1.2032                 1.3768                 1.5009
 IR Inten    --     10.6750                 3.8960                 2.8222

                     31                     32                     33
                      A                      A                      A
 Frequencies --   1250.8983              1278.2605              1297.0130
 Red. masses --      1.9038                 1.6190                 1.4582
 Frc consts  --      1.7552                 1.5586                 1.4452
 IR Inten    --     57.2275                 3.5421                 8.9743

                     34                     35                     36
                      A                      A                      A
 Frequencies --   1315.0674              1379.4921              1429.1120
 Red. masses --      1.4793                 1.3069                 1.1036
 Frc consts  --      1.5073                 1.4653                 1.3280
 IR Inten    --      3.0324                29.2606                 6.5351

                     37                     38                     39
                      A                      A                      A
 Frequencies --   1475.3571              1482.7831              1492.9482
 Red. masses --      1.0998                 1.1239                 1.0869
 Frc consts  --      1.4105                 1.4559                 1.4273
 IR Inten    --      3.5479                 3.6254                 3.3657

                     40                     41                     42
                      A                      A                      A
 Frequencies --   1507.9382              1880.7972              2977.2812
 Red. masses --      1.0512                12.5754                 1.0787
 Frc consts  --      1.4083                26.2093                 5.6335
 IR Inten    --      2.8102               257.4744                28.3148

                     43                     44                     45
                      A                      A                      A
 Frequencies --   2986.7396              3047.5954              3054.7898
 Red. masses --      1.0471                 1.0596                 1.0966
 Frc consts  --      5.5034                 5.7982                 6.0291
 IR Inten    --     83.7858                10.2450                27.3485

                     46                     47                     48
                      A                      A                      A
 Frequencies --   3067.5953              3101.5913              3107.6768
 Red. masses --      1.0591                 1.1029                 1.0896
 Frc consts  --      5.8721                 6.2510                 6.1998
 IR Inten    --     25.6664                11.7077                10.4802

                     49                     50                     51
                      A                      A                      A
 Frequencies --   3119.1978              3123.8873              3132.0503
 Red. masses --      1.1042                 1.0988                 1.0941
 Frc consts  --      6.3295                 6.3178                 6.3234
 IR Inten    --      6.5024                24.6939                39.9133

 - Thermochemistry -
 -------------------
 Temperature   298.150 Kelvin.  Pressure   1.00000 Atm.
 Atom     1 has atomic number  6 and mass  12.00000

 Molecular mass:   126.06808 amu.
 Principal axes and moments of inertia in atomic units:
                           1         2         3
     Eigenvalues --   781.127231045.658211557.41507
           X            0.99674   0.07858   0.01850
           Y           -0.07854   0.99691  -0.00288
           Z           -0.01867   0.00142   0.99982
 This molecule is an asymmetric top.
 Rotational symmetry number  1.
 Warning -- assumption of classical behavior for rotation
           may cause significant error
 Rotational temperatures (Kelvin)      0.11088     0.08283     0.05561
 Rotational constants (GHZ):           2.31043     1.72594     1.15881
 Zero-point vibrational energy     415504.7 (Joules/Mol)
                                   99.30800 (Kcal/Mol)
 Warning -- explicit consideration of  11 degrees of freedom as
           vibrations may cause significant error
 Vibrational temperatures:     68.40   149.18   215.30   301.44   358.71
          (Kelvin)            498.21   570.95   610.08   655.04   825.73
                              847.14  1011.57  1091.30  1161.06  1222.05
                             1301.33  1317.19  1373.04  1468.85  1479.64
                             1503.77  1527.70  1568.10  1618.33  1645.09
                             1690.79  1701.65  1724.48  1752.96  1773.60
                             1799.76  1839.13  1866.11  1892.09  1984.78
                             2056.17  2122.71  2133.39  2148.02  2169.58
                             2706.04  4283.64  4297.25  4384.80  4395.16
                             4413.58  4462.49  4471.25  4487.82  4494.57
                             4506.32

 Zero-point correction=                           0.158257 (Hartree/Particle)
 Thermal correction to Energy=                    0.166756
 Thermal correction to Enthalpy=                  0.167700
 Thermal correction to Gibbs Free Energy=         0.124564
 Sum of electronic and zero-point Energies=           -423.007853
 Sum of electronic and thermal Energies=              -422.999354
 Sum of electronic and thermal Enthalpies=            -422.998410
 Sum of electronic and thermal Free Energies=         -423.041546

                     E (Thermal)             CV                S
                      KCal/Mol        Cal/Mol-Kelvin    Cal/Mol-Kelvin
 Total                  104.641             31.835             90.788
 Electronic               0.000              0.000              0.000
 Translational            0.889              2.981             40.409
 Rotational               0.889              2.981             28.633
 Vibrational            102.864             25.873             21.746
 Vibration     1          0.595              1.979              4.917
 Vibration     2          0.605              1.946              3.384
 Vibration     3          0.618              1.903              2.677
 Vibration     4          0.642              1.826              2.048
 Vibration     5          0.662              1.764              1.735
 Vibration     6          0.724              1.583              1.183
 Vibration     7          0.763              1.477              0.974
 Vibration     8          0.786              1.418              0.878
 Vibration     9          0.814              1.349              0.780
 Vibration    10          0.930              1.088              0.497
 Vibration    11          0.946              1.056              0.469

 Optimization completed.
    -- Stationary point found.
 Normal termination of Gaussian 09 at Tue Jan 28 14:30:42 2020.
