 Gaussian 09, Revision D.01,
 Gaussian 09:  ES64L-G09RevD.01 24-Apr-2013

 -----------------------------
 # b3lyp 6-31G(2df,p) opt Freq
 -----------------------------

 -----
 titel
 -----
 Symbolic Z-matrix:
 Charge =  0 Multiplicity = 1

 SCF Done:  E(RB3LYP) =  -423.148858183     A.U. after   14 cycles
 Optimization completed.
    -- Stationary point found.
 Normal termination of Gaussian 09 at Mon Jan 27 22:56:37 2020.

 ----------------------------------------------------------------------
 #N Geom=AllCheck Guess=TCheck SCRF=Check GenChk RB3LYP/6-31G(2df,p) Fr
 eq
 ----------------------------------------------------------------------

 Structure from the checkpoint file:  "/scratch/puck/g09_cd36a136-83e4-4633-a36e-c0f9e815350c/Gau-65257.chk"
 -----
 titel
 -----
 Charge =  0 Multiplicity = 1

                         Standard orientation:
 ---------------------------------------------------------------------
 Center     Atomic      Atomic             Coordinates (Angstroms)
 Number     Number       Type             X           Y           Z
 ---------------------------------------------------------------------
      1          6           0        2.548548    0.115872    1.010992
      2          6           0        1.146240   -0.360533    0.695745
      3          6           0        0.903398   -0.983251   -0.646149
      4          8           0       -0.397547   -1.581680   -0.707361
      5          6           0       -1.016458   -0.286045   -0.541504
      6          6           0       -1.988260   -0.193351    0.613840
      7          8           0       -2.764180    0.719569    0.741521
      8          6           0        0.353859    0.402336   -0.367059
      9          6           0        0.644321    1.783668   -0.874911
     10          1           0        2.538439    0.984732    1.677541
     11          1           0        3.117851   -0.679165    1.502874
     12          1           0        3.096471    0.398840    0.106622
     13          1           0        0.615184   -0.791384    1.541618
     14          1           0        1.667154   -1.355518   -1.320323
     15          1           0       -1.516847    0.034556   -1.463687
     16          1           0       -1.916157   -1.019652    1.354717
     17          1           0        0.083420    2.529416   -0.299576
     18          1           0        1.704865    2.033950   -0.792973
     19          1           0        0.353556    1.888933   -1.925819
 ---------------------------------------------------------------------

 SCF Done:  E(RB3LYP) =  -423.148858183     A.U. after    1 cycles

 The electronic state is 1-A.
 Alpha  occ. eigenvalues --  -19.15021 -19.14465 -10.27245 -10.24752 -10.24511
 Alpha  occ. eigenvalues --  -10.21516 -10.20427 -10.19222 -10.19175  -1.06626
 Alpha  occ. eigenvalues --   -1.04867  -0.85577  -0.75500  -0.71743  -0.70831
 Alpha  occ. eigenvalues --   -0.60419  -0.58448  -0.54065  -0.50965  -0.48165
 Alpha  occ. eigenvalues --   -0.47769  -0.44901  -0.42909  -0.41582  -0.41323
 Alpha  occ. eigenvalues --   -0.40205  -0.40005  -0.38228  -0.37905  -0.34194
 Alpha  occ. eigenvalues --   -0.32876  -0.28419  -0.24573  -0.24390
 Alpha virt. eigenvalues --   -0.03547   0.07414   0.09582   0.09782   0.11763
 Alpha virt. eigenvalues --    0.12725   0.13559   0.13888   0.15242   0.16444
 Alpha virt. eigenvalues --    0.16701   0.18328   0.18557   0.19403   0.20741

 Mulliken charges:
               1
     1  C   -0.429124
     2  C   -0.090291
     3  C    0.046576
     4  O   -0.305793
     5  C   -0.005276
     6  C    0.134051
     7  O   -0.247452
     8  C    0.234180
     9  C   -0.500356
    10  H    0.127915
    11  H    0.127435
    12  H    0.120776
    13  H    0.089629
    14  H    0.107219
    15  H    0.107542
    16  H    0.090800
    17  H    0.139012
    18  H    0.127286
    19  H    0.125869
 Sum of Mulliken charges =   0.00000

 Dipole moment (field-independent basis, Debye):
    X=              2.8865    Y=              0.2314    Z=             -0.3716  Tot=              2.9195
 Quadrupole moment (field-independent basis, Debye-Ang):
   XX=            -57.2236   YY=            -56.4648   ZZ=            -51.9552
   XY=              2.8476   XZ=              1.7373   YZ=             -2.6547

  Exact polarizability:  86.771  -4.024  72.450   1.217  -2.501  69.147
 Approx polarizability: 117.869 -11.257 113.511   0.075   0.152 102.575

                      1                      2                      3
                      A                      A                      A
 Frequencies --     57.2933               117.8844               157.0617
 Red. masses --      4.7922                 3.5206                 1.0811
 Frc consts  --      0.0093                 0.0288                 0.0157
 IR Inten    --      7.8556                 1.5222                 0.4959

                      4                      5                      6
                      A                      A                      A
 Frequencies --    175.8197               191.4087               251.7822
 Red. masses --      2.1603                 1.2726                 2.1242
 Frc consts  --      0.0393                 0.0275                 0.0793
 IR Inten    --      3.1543                 0.3935                 0.2969

                      7                      8                      9
                      A                      A                      A
 Frequencies --    275.5195               322.7998               360.4018
 Red. masses --      2.1991                 3.5390                 2.9343
 Frc consts  --      0.0984                 0.2173                 0.2246
 IR Inten    --      0.5791                 3.9759                 4.1291

                     10                     11                     12
                      A                      A                      A
 Frequencies --    470.7623               480.8509               507.5375
 Red. masses --      3.1420                 7.4378                 3.6562
 Frc consts  --      0.4103                 1.0133                 0.5549
 IR Inten    --     23.1246                 0.4311                 2.2541

                     13                     14                     15
                      A                      A                      A
 Frequencies --    653.6664               736.7321               801.3320
 Red. masses --      3.7087                 3.8518                 2.3901
 Frc consts  --      0.9337                 1.2318                 0.9042
 IR Inten    --      0.5987                 9.9880                16.9193

                     16                     17                     18
                      A                      A                      A
 Frequencies --    889.3645               928.9006               969.2803
 Red. masses --      2.2530                 1.6480                 1.6218
 Frc consts  --      1.0500                 0.8378                 0.8977
 IR Inten    --      3.5431                 6.1933                 9.7027

                     19                     20                     21
                      A                      A                      A
 Frequencies --    995.8977              1013.5687              1035.9957
 Red. masses --      1.4516                 1.8247                 6.1658
 Frc consts  --      0.8483                 1.1045                 3.8990
 IR Inten    --      1.1753                19.0163                78.7045

                     22                     23                     24
                      A                      A                      A
 Frequencies --   1053.6185              1095.8183              1102.1660
 Red. masses --      1.6346                 2.1847                 2.2827
 Frc consts  --      1.0691                 1.5457                 1.6338
 IR Inten    --      5.8701                 3.6078                 4.1034

                     25                     26                     27
                      A                      A                      A
 Frequencies --   1119.7243              1133.9498              1157.8373
 Red. masses --      2.3236                 2.3527                 1.8906
 Frc consts  --      1.7165                 1.7824                 1.4933
 IR Inten    --      3.6389                 0.1189                 8.7766

                     28                     29                     30
                      A                      A                      A
 Frequencies --   1210.0807              1217.6229              1256.5389
 Red. masses --      1.6247                 1.7690                 1.4641
 Frc consts  --      1.4017                 1.5452                 1.3619
 IR Inten    --      2.1334                 3.3741                21.4522

                     31                     32                     33
                      A                      A                      A
 Frequencies --   1310.7653              1354.4710              1405.4495
 Red. masses --      1.3416                 1.7447                 1.2720
 Frc consts  --      1.3581                 1.8858                 1.4804
 IR Inten    --      5.4257                 2.3877                 4.8883

                     34                     35                     36
                      A                      A                      A
 Frequencies --   1415.0250              1424.6757              1439.3460
 Red. masses --      1.3246                 1.2301                 3.2046
 Frc consts  --      1.5626                 1.4711                 3.9115
 IR Inten    --      0.6013                 3.5881                 0.3642

                     37                     38                     39
                      A                      A                      A
 Frequencies --   1486.0064              1490.8009              1501.2773
 Red. masses --      1.0549                 1.0477                 1.0457
 Frc consts  --      1.3725                 1.3719                 1.3886
 IR Inten    --      6.0456                 1.9511                 3.0671

                     40                     41                     42
                      A                      A                      A
 Frequencies --   1507.4057              1823.7501              2894.3886
 Red. masses --      1.1114                10.6203                 1.0840
 Frc consts  --      1.4879                20.8121                 5.3506
 IR Inten    --      6.7525               141.8013                76.0623

                     43                     44                     45
                      A                      A                      A
 Frequencies --   3029.7809              3034.0845              3036.8175
 Red. masses --      1.0397                 1.0418                 1.0758
 Frc consts  --      5.6230                 5.6508                 5.8454
 IR Inten    --     14.3159                37.6374                26.0195

                     46                     47                     48
                      A                      A                      A
 Frequencies --   3087.0331              3098.0128              3100.8532
 Red. masses --      1.1008                 1.1009                 1.1003
 Frc consts  --      6.1807                 6.2251                 6.2331
 IR Inten    --     14.3328                17.1999                17.8706

                     49                     50                     51
                      A                      A                      A
 Frequencies --   3118.9034              3131.2890              3173.6607
 Red. masses --      1.0976                 1.0896                 1.0933
 Frc consts  --      6.2909                 6.2943                 6.4879
 IR Inten    --     14.2303                22.9305                18.6313

 - Thermochemistry -
 -------------------
 Temperature   298.150 Kelvin.  Pressure   1.00000 Atm.
 Atom     1 has atomic number  6 and mass  12.00000

 Molecular mass:   126.06808 amu.
 Principal axes and moments of inertia in atomic units:
                           1         2         3
     Eigenvalues --   709.198401456.577361626.00200
           X            0.99941   0.02889   0.01884
           Y           -0.02625   0.99147  -0.12764
           Z           -0.02236   0.12707   0.99164
 This molecule is an asymmetric top.
 Rotational symmetry number  1.
 Warning -- assumption of classical behavior for rotation
           may cause significant error
 Rotational temperatures (Kelvin)      0.12213     0.05946     0.05327
 Rotational constants (GHZ):           2.54476     1.23903     1.10993
 Zero-point vibrational energy     410349.1 (Joules/Mol)
                                   98.07579 (Kcal/Mol)
 Warning -- explicit consideration of  12 degrees of freedom as
           vibrations may cause significant error
 Vibrational temperatures:     82.43   169.61   225.98   252.97   275.39
          (Kelvin)            362.26   396.41   464.44   518.54   677.32
                              691.84   730.23   940.48  1059.99  1152.94
                             1279.60  1336.48  1394.58  1432.87  1458.30
                             1490.56  1515.92  1576.64  1585.77  1611.03
                             1631.50  1665.87  1741.03  1751.89  1807.88
                             1885.90  1948.78  2022.13  2035.90  2049.79
                             2070.90  2138.03  2144.93  2160.00  2168.82
                             2623.97  4164.37  4359.17  4365.37  4369.30
                             4441.55  4457.34  4461.43  4487.40  4505.22
                             4566.18

 Zero-point correction=                           0.156294 (Hartree/Particle)
 Thermal correction to Energy=                    0.165652
 Thermal correction to Enthalpy=                  0.166596
 Thermal correction to Gibbs Free Energy=         0.121903
 Sum of electronic and zero-point Energies=           -422.992564
 Sum of electronic and thermal Energies=              -422.983206
 Sum of electronic and thermal Enthalpies=            -422.982262
 Sum of electronic and thermal Free Energies=         -423.026956

                     E (Thermal)             CV                S
                      KCal/Mol        Cal/Mol-Kelvin    Cal/Mol-Kelvin
 Total                  103.948             33.979             94.065
 Electronic               0.000              0.000              0.000
 Translational            0.889              2.981             40.409
 Rotational               0.889              2.981             28.909
 Vibrational            102.171             28.018             24.748
 Vibration     1          0.596              1.975              4.548
 Vibration     2          0.608              1.934              3.135
 Vibration     3          0.621              1.895              2.585
 Vibration     4          0.628              1.872              2.372
 Vibration     5          0.634              1.852              2.214
 Vibration     6          0.664              1.760              1.718
 Vibration     7          0.677              1.719              1.561
 Vibration     8          0.708              1.630              1.296
 Vibration     9          0.735              1.554              1.120
 Vibration    10          0.828              1.315              0.735
 Vibration    11          0.837              1.293              0.708
 Vibration    12          0.863              1.233              0.640

 Normal termination of Gaussian 09 at Mon Jan 27 23:39:09 2020.
