 Gaussian 09, Revision D.01,
 Gaussian 09:  ES64L-G09RevD.01 24-Apr-2013

 -----------------------------
 # b3lyp 6-31G(2df,p) opt Freq
 -----------------------------

 -----
 titel
 -----
 Symbolic Z-matrix:
 Charge =  0 Multiplicity = 1

 SCF Done:  E(RB3LYP) =  -423.234775108     A.U. after   14 cycles
 Optimization completed.
    -- Stationary point found.
 Normal termination of Gaussian 09 at Mon Jan 27 12:57:05 2020.

 ----------------------------------------------------------------------
 #N Geom=AllCheck Guess=TCheck SCRF=Check GenChk RB3LYP/6-31G(2df,p) Fr
 eq
 ----------------------------------------------------------------------

 Structure from the checkpoint file:  "/scratch/puck/g09_fc622510-b0a7-4455-ae6b-4969b996c537/Gau-73219.chk"
 -----
 titel
 -----
 Charge =  0 Multiplicity = 1

                         Standard orientation:
 ---------------------------------------------------------------------
 Center     Atomic      Atomic             Coordinates (Angstroms)
 Number     Number       Type             X           Y           Z
 ---------------------------------------------------------------------
      1          8           0        2.445601   -0.000035    0.701320
      2          6           0        1.454045   -0.000018    0.010481
      3          6           0        0.768750    1.281898   -0.453250
      4          6           0       -0.765903    1.126416   -0.392311
      5          6           0       -1.269412    0.777431    1.027614
      6          6           0       -1.269490   -0.777419    1.027579
      7          6           0       -0.765946   -1.126388   -0.392332
      8          6           0        0.768703   -1.281913   -0.453241
      9          8           0       -1.140906    0.000028   -1.186430
     10          1           0        1.131318    2.120295    0.147590
     11          1           0        1.051351    1.461416   -1.498395
     12          1           0       -1.255926    2.004743   -0.818302
     13          1           0       -0.629475    1.200923    1.805596
     14          1           0       -2.278045    1.167162    1.180407
     15          1           0       -0.629654   -1.201018    1.805585
     16          1           0       -2.278177   -1.167048    1.180279
     17          1           0       -1.255981   -2.004693   -0.818354
     18          1           0        1.131236   -2.120317    0.147610
     19          1           0        1.051319   -1.461451   -1.498380
 ---------------------------------------------------------------------

 SCF Done:  E(RB3LYP) =  -423.234775108     A.U. after    1 cycles

 The electronic state is 1-A.
 Alpha  occ. eigenvalues --  -19.14455 -19.12773 -10.26857 -10.24133 -10.24131
 Alpha  occ. eigenvalues --  -10.19083 -10.19065 -10.18973 -10.18972  -1.04964
 Alpha  occ. eigenvalues --   -1.03641  -0.80017  -0.78022  -0.75934  -0.66553
 Alpha  occ. eigenvalues --   -0.59613  -0.59484  -0.53536  -0.49832  -0.47288
 Alpha  occ. eigenvalues --   -0.46347  -0.45595  -0.43981  -0.41897  -0.41285
 Alpha  occ. eigenvalues --   -0.40735  -0.37148  -0.36409  -0.35073  -0.34299
 Alpha  occ. eigenvalues --   -0.32714  -0.32011  -0.26199  -0.23980
 Alpha virt. eigenvalues --   -0.01622   0.08369   0.09666   0.11838   0.12168
 Alpha virt. eigenvalues --    0.13504   0.14743   0.15083   0.15675   0.17389
 Alpha virt. eigenvalues --    0.17953   0.18090   0.18162   0.20781   0.22573

 Mulliken charges:
               1
     1  O   -0.310634
     2  C    0.379924
     3  C   -0.306879
     4  C    0.076724
     5  C   -0.232153
     6  C   -0.232143
     7  C    0.076719
     8  C   -0.306879
     9  O   -0.256500
    10  H    0.118139
    11  H    0.126547
    12  H    0.085056
    13  H    0.115474
    14  H    0.110696
    15  H    0.115471
    16  H    0.110696
    17  H    0.085055
    18  H    0.118139
    19  H    0.126547
 Sum of Mulliken charges =   0.00000

 Dipole moment (field-independent basis, Debye):
    X=             -1.9678    Y=              0.0000    Z=             -0.2044  Tot=              1.9784
 Quadrupole moment (field-independent basis, Debye-Ang):
   XX=            -60.9513   YY=            -48.5804   ZZ=            -54.5790
   XY=              0.0002   XZ=             -5.9346   YZ=              0.0001

  Exact polarizability:  77.030   0.000  76.553   0.838   0.000  66.588
 Approx polarizability: 112.690   0.000 107.980  10.819   0.000 105.533

                      1                      2                      3
                      A                      A                      A
 Frequencies --     84.9399                98.1851               319.0634
 Red. masses --      5.2367                 1.9883                 1.9249
 Frc consts  --      0.0223                 0.0113                 0.1155
 IR Inten    --      4.4333                 0.5670                 1.1875

                      4                      5                      6
                      A                      A                      A
 Frequencies --    355.8266               379.7828               455.8829
 Red. masses --      2.3819                 5.4641                 4.9197
 Frc consts  --      0.1777                 0.4643                 0.6024
 IR Inten    --      2.4873                 1.1726                 8.7723

                      7                      8                      9
                      A                      A                      A
 Frequencies --    491.6027               504.8120               637.3765
 Red. masses --      3.2737                 2.2748                 4.0210
 Frc consts  --      0.4661                 0.3415                 0.9625
 IR Inten    --      2.1253                 9.2570                 4.0352

                     10                     11                     12
                      A                      A                      A
 Frequencies --    738.7198               754.0991               799.4040
 Red. masses --      4.7362                 3.4553                 1.4509
 Frc consts  --      1.5228                 1.1577                 0.5463
 IR Inten    --      0.1749                 7.5688                 2.5027

                     13                     14                     15
                      A                      A                      A
 Frequencies --    819.9879               837.4678               849.3426
 Red. masses --      2.6239                 3.8547                 1.9316
 Frc consts  --      1.0395                 1.5929                 0.8210
 IR Inten    --      0.0054                 7.8225                 0.1444

                     16                     17                     18
                      A                      A                      A
 Frequencies --    890.3536               920.4958               968.1911
 Red. masses --      2.7784                 2.3464                 1.9256
 Frc consts  --      1.2977                 1.1714                 1.0635
 IR Inten    --     17.7136                 9.4550                 0.5992

                     19                     20                     21
                      A                      A                      A
 Frequencies --    981.8584              1014.7052              1036.0671
 Red. masses --      2.5035                 2.6795                 2.6033
 Frc consts  --      1.4220                 1.6255                 1.6465
 IR Inten    --     16.6323                 7.8092                 5.2821

                     22                     23                     24
                      A                      A                      A
 Frequencies --   1072.0530              1075.0685              1159.5883
 Red. masses --      1.9801                 2.0225                 1.4820
 Frc consts  --      1.3408                 1.3773                 1.1741
 IR Inten    --     20.4323                10.4355                35.6358

                     25                     26                     27
                      A                      A                      A
 Frequencies --   1167.0055              1207.8071              1218.2311
 Red. masses --      1.1913                 2.6643                 1.1725
 Frc consts  --      0.9559                 2.2899                 1.0252
 IR Inten    --      0.8966                61.8472                 1.9971

                     28                     29                     30
                      A                      A                      A
 Frequencies --   1245.2369              1256.8431              1281.7731
 Red. masses --      1.2292                 1.5821                 1.5446
 Frc consts  --      1.1230                 1.4724                 1.4952
 IR Inten    --      0.1510                15.1913                 0.2529

                     31                     32                     33
                      A                      A                      A
 Frequencies --   1301.9689              1314.3624              1330.7130
 Red. masses --      1.3078                 1.7007                 1.4405
 Frc consts  --      1.3062                 1.7311                 1.5030
 IR Inten    --      1.0755                21.4636                 0.0000

                     34                     35                     36
                      A                      A                      A
 Frequencies --   1362.2661              1373.9702              1387.4331
 Red. masses --      1.4002                 1.5135                 1.4010
 Frc consts  --      1.5310                 1.6834                 1.5890
 IR Inten    --      5.9553                19.0114                 8.3242

                     37                     38                     39
                      A                      A                      A
 Frequencies --   1447.4789              1458.3017              1487.4379
 Red. masses --      1.0943                 1.0908                 1.0809
 Frc consts  --      1.3509                 1.3668                 1.4090
 IR Inten    --      8.1733                 6.0066                 0.7789

                     40                     41                     42
                      A                      A                      A
 Frequencies --   1509.1919              1818.1676              3032.9542
 Red. masses --      1.0998                11.5366                 1.0632
 Frc consts  --      1.4759                22.4696                 5.7625
 IR Inten    --      5.3851               178.6424                 1.8970

                     43                     44                     45
                      A                      A                      A
 Frequencies --   3037.0192              3064.9265              3072.8013
 Red. masses --      1.0635                 1.0604                 1.0636
 Frc consts  --      5.7797                 5.8689                 5.9168
 IR Inten    --     12.8579                 8.3952                27.0958

                     46                     47                     48
                      A                      A                      A
 Frequencies --   3084.5565              3090.3670              3102.8077
 Red. masses --      1.0868                 1.0885                 1.1008
 Frc consts  --      6.0922                 6.1249                 6.2443
 IR Inten    --     55.3550                13.7932                20.9639

                     49                     50                     51
                      A                      A                      A
 Frequencies --   3105.3967              3106.6028              3124.2332
 Red. masses --      1.0986                 1.1028                 1.1062
 Frc consts  --      6.2421                 6.2706                 6.3616
 IR Inten    --      8.1807                 3.1827                38.4216

 - Thermochemistry -
 -------------------
 Temperature   298.150 Kelvin.  Pressure   1.00000 Atm.
 Atom     1 has atomic number  8 and mass  15.99491

 Molecular mass:   126.06808 amu.
 Principal axes and moments of inertia in atomic units:
                           1         2         3
     Eigenvalues --   680.899421098.270351213.82656
           X            0.99842   0.00000  -0.05625
           Y            0.00000   1.00000   0.00000
           Z            0.05625   0.00000   0.99842
 This molecule is an asymmetric top.
 Rotational symmetry number  1.
 Warning -- assumption of classical behavior for rotation
           may cause significant error
 Rotational temperatures (Kelvin)      0.12721     0.07886     0.07136
 Rotational constants (GHZ):           2.65053     1.64326     1.48682
 Zero-point vibrational energy     426078.3 (Joules/Mol)
                                  101.83516 (Kcal/Mol)
 Warning -- explicit consideration of   8 degrees of freedom as
           vibrations may cause significant error
 Vibrational temperatures:    122.21   141.27   459.06   511.95   546.42
          (Kelvin)            655.91   707.31   726.31   917.04  1062.85
                             1084.98  1150.16  1179.78  1204.93  1222.01
                             1281.02  1324.39  1393.01  1412.67  1459.93
                             1490.67  1542.44  1546.78  1668.39  1679.06
                             1737.76  1752.76  1791.62  1808.31  1844.18
                             1873.24  1891.07  1914.60  1959.99  1976.83
                             1996.20  2082.60  2098.17  2140.09  2171.39
                             2615.93  4363.74  4369.59  4409.74  4421.07
                             4437.98  4446.34  4464.24  4467.97  4469.70
                             4495.07

 Zero-point correction=                           0.162285 (Hartree/Particle)
 Thermal correction to Energy=                    0.169525
 Thermal correction to Enthalpy=                  0.170469
 Thermal correction to Gibbs Free Energy=         0.130335
 Sum of electronic and zero-point Energies=           -423.072490
 Sum of electronic and thermal Energies=              -423.065250
 Sum of electronic and thermal Enthalpies=            -423.064306
 Sum of electronic and thermal Free Energies=         -423.104440

                     E (Thermal)             CV                S
                      KCal/Mol        Cal/Mol-Kelvin    Cal/Mol-Kelvin
 Total                  106.379             28.898             84.471
 Electronic               0.000              0.000              0.000
 Translational            0.889              2.981             40.409
 Rotational               0.889              2.981             28.297
 Vibrational            104.601             22.937             15.765
 Vibration     1          0.601              1.960              3.773
 Vibration     2          0.604              1.950              3.490
 Vibration     3          0.705              1.637              1.315
 Vibration     4          0.731              1.563              1.140
 Vibration     5          0.750              1.513              1.040
 Vibration     6          0.814              1.348              0.778
 Vibration     7          0.847              1.269              0.679
 Vibration     8          0.860              1.239              0.646

 Optimization completed.
    -- Stationary point found.
 Normal termination of Gaussian 09 at Mon Jan 27 13:44:36 2020.
