 Gaussian 09, Revision D.01,
 Gaussian 09:  ES64L-G09RevD.01 24-Apr-2013

 -----------------------------
 # b3lyp 6-31G(2df,p) opt Freq
 -----------------------------

 -----
 titel
 -----
 Symbolic Z-matrix:
 Charge =  0 Multiplicity = 1

 SCF Done:  E(RB3LYP) =  -423.165796932     A.U. after   13 cycles
 Optimization completed.
    -- Stationary point found.
 Normal termination of Gaussian 09 at Mon Jan 27 18:12:04 2020.

 ----------------------------------------------------------------------
 #N Geom=AllCheck Guess=TCheck SCRF=Check GenChk RB3LYP/6-31G(2df,p) Fr
 eq
 ----------------------------------------------------------------------

 Structure from the checkpoint file:  "/scratch/puck/g09_3ca21499-cffb-4985-8f1e-4315c2232b61/Gau-171071.chk"
 -----
 titel
 -----
 Charge =  0 Multiplicity = 1

                         Standard orientation:
 ---------------------------------------------------------------------
 Center     Atomic      Atomic             Coordinates (Angstroms)
 Number     Number       Type             X           Y           Z
 ---------------------------------------------------------------------
      1          6           0        2.403306   -0.286421    0.318997
      2          6           0        0.947298   -0.024740   -0.001695
      3          6           0        0.621290    1.396862   -0.463180
      4          8           0       -0.746514    1.650885   -0.148803
      5          6           0       -1.306354    0.571439    0.581985
      6          6           0       -1.917580   -0.578011   -0.284060
      7          6           0       -0.636162   -1.402434   -0.050824
      8          8           0        0.428568   -1.012378   -0.946609
      9          6           0       -0.157839   -0.381838    1.015370
     10          1           0        2.541409   -1.316772    0.656625
     11          1           0        3.021304   -0.138874   -0.573253
     12          1           0        2.760459    0.391696    1.100814
     13          1           0        1.254200    2.134176    0.050461
     14          1           0        0.778347    1.492955   -1.544022
     15          1           0       -1.963076    0.982272    1.351951
     16          1           0       -2.785173   -1.028711    0.209232
     17          1           0       -2.162575   -0.335296   -1.319933
     18          1           0       -0.697385   -2.485653    0.071047
     19          1           0        0.072301   -0.572987    2.060804
 ---------------------------------------------------------------------

 SCF Done:  E(RB3LYP) =  -423.165796932     A.U. after    1 cycles

 The electronic state is 1-A.
 Alpha  occ. eigenvalues --  -19.13436 -19.13132 -10.24212 -10.23405 -10.23305
 Alpha  occ. eigenvalues --  -10.22286 -10.18988 -10.18275 -10.17733  -1.05333
 Alpha  occ. eigenvalues --   -1.01596  -0.81771  -0.77613  -0.69340  -0.67763
 Alpha  occ. eigenvalues --   -0.63724  -0.56006  -0.52706  -0.52017  -0.48997
 Alpha  occ. eigenvalues --   -0.46107  -0.45337  -0.42693  -0.41083  -0.40805
 Alpha  occ. eigenvalues --   -0.39413  -0.38479  -0.36585  -0.34532  -0.31799
 Alpha  occ. eigenvalues --   -0.29684  -0.28431  -0.24745  -0.24266
 Alpha virt. eigenvalues --    0.07421   0.08865   0.09715   0.11024   0.12254
 Alpha virt. eigenvalues --    0.14588   0.15361   0.15692   0.16373   0.16723
 Alpha virt. eigenvalues --    0.17468   0.18215   0.19324   0.20817   0.21738

 Mulliken charges:
               1
     1  C   -0.472789
     2  C    0.412359
     3  C   -0.106465
     4  O   -0.274491
     5  C    0.104512
     6  C   -0.259326
     7  C    0.107007
     8  O   -0.347381
     9  C   -0.188875
    10  H    0.126770
    11  H    0.130502
    12  H    0.118868
    13  H    0.092094
    14  H    0.112790
    15  H    0.081915
    16  H    0.098431
    17  H    0.112124
    18  H    0.077629
    19  H    0.074327
 Sum of Mulliken charges =   0.00000

 Dipole moment (field-independent basis, Debye):
    X=              0.4673    Y=             -0.6691    Z=              1.7683  Tot=              1.9475
 Quadrupole moment (field-independent basis, Debye-Ang):
   XX=            -50.3015   YY=            -55.6361   ZZ=            -53.1060
   XY=              3.7361   XZ=             -0.3008   YZ=             -1.5778

  Exact polarizability:  84.519   5.082  72.105  -0.745  -0.920  64.952
 Approx polarizability: 111.365   5.473 105.947  -2.722   0.291 101.944

                      1                      2                      3
                      A                      A                      A
 Frequencies --     93.1326               210.5855               242.8955
 Red. masses --      3.2327                 1.1238                 2.1982
 Frc consts  --      0.0165                 0.0294                 0.0764
 IR Inten    --      3.9075                 0.3360                 0.5082

                      4                      5                      6
                      A                      A                      A
 Frequencies --    279.3508               370.4912               374.1199
 Red. masses --      2.4928                 2.7303                 2.6275
 Frc consts  --      0.1146                 0.2208                 0.2167
 IR Inten    --      1.1773                 2.2577                 0.2766

                      7                      8                      9
                      A                      A                      A
 Frequencies --    424.8025               561.3564               660.4186
 Red. masses --      2.5745                 4.0026                 4.4716
 Frc consts  --      0.2737                 0.7431                 1.1491
 IR Inten    --      2.6681                 3.4816                 0.2480

                     10                     11                     12
                      A                      A                      A
 Frequencies --    676.4485               776.5130               808.1763
 Red. masses --      5.7577                 2.2967                 2.8315
 Frc consts  --      1.5523                 0.8159                 1.0896
 IR Inten    --      8.1874                 9.5212                 2.0916

                     13                     14                     15
                      A                      A                      A
 Frequencies --    847.3081               864.5209               888.2448
 Red. masses --      2.6078                 2.0250                 2.3503
 Frc consts  --      1.1031                 0.8917                 1.0925
 IR Inten    --     25.9076                 0.2892                13.8207

                     16                     17                     18
                      A                      A                      A
 Frequencies --    912.1313               932.9676               962.8866
 Red. masses --      1.8203                 2.0541                 2.6137
 Frc consts  --      0.8923                 1.0534                 1.4277
 IR Inten    --      6.5018                 4.9006                22.1687

                     19                     20                     21
                      A                      A                      A
 Frequencies --    976.2554               978.9415              1011.8542
 Red. masses --      2.8625                 1.6673                 2.8750
 Frc consts  --      1.6074                 0.9414                 1.7343
 IR Inten    --     11.3936                 1.5195                 4.3810

                     22                     23                     24
                      A                      A                      A
 Frequencies --   1037.1646              1092.7861              1136.6033
 Red. masses --      2.6624                 3.3940                 1.6052
 Frc consts  --      1.6874                 2.3880                 1.2218
 IR Inten    --      3.4759               157.0581                 0.9227

                     25                     26                     27
                      A                      A                      A
 Frequencies --   1156.8359              1161.0641              1168.7722
 Red. masses --      1.8752                 2.0035                 2.2161
 Frc consts  --      1.4786                 1.5913                 1.7836
 IR Inten    --      3.9155                 7.4503                18.0495

                     28                     29                     30
                      A                      A                      A
 Frequencies --   1217.3327              1228.0671              1235.9178
 Red. masses --      1.5105                 2.5376                 1.2114
 Frc consts  --      1.3188                 2.2549                 1.0902
 IR Inten    --      1.2546                43.4558                 0.8046

                     31                     32                     33
                      A                      A                      A
 Frequencies --   1260.2867              1277.3210              1298.2177
 Red. masses --      2.0465                 1.9577                 1.9526
 Frc consts  --      1.9152                 1.8819                 1.9389
 IR Inten    --      6.5030                23.0424                 1.1950

                     34                     35                     36
                      A                      A                      A
 Frequencies --   1322.7164              1352.7740              1399.6548
 Red. masses --      1.3394                 1.2868                 1.5346
 Frc consts  --      1.3807                 1.3875                 1.7713
 IR Inten    --      9.2516                 8.3611                 2.0955

                     37                     38                     39
                      A                      A                      A
 Frequencies --   1407.8152              1451.7774              1481.8339
 Red. masses --      1.3058                 1.1138                 1.0562
 Frc consts  --      1.5248                 1.3831                 1.3665
 IR Inten    --      6.5937                 3.0275                 2.7543

                     40                     41                     42
                      A                      A                      A
 Frequencies --   1493.1326              1505.8229              3002.8900
 Red. masses --      1.0523                 1.0855                 1.0625
 Frc consts  --      1.3822                 1.4502                 5.6450
 IR Inten    --      2.9556                 1.9967                60.1965

                     43                     44                     45
                      A                      A                      A
 Frequencies --   3036.4596              3050.4619              3057.8588
 Red. masses --      1.0357                 1.0617                 1.1010
 Frc consts  --      5.6262                 5.8207                 6.0655
 IR Inten    --     22.6038                17.5550                23.9594

                     46                     47                     48
                      A                      A                      A
 Frequencies --   3082.8939              3089.0637              3105.0372
 Red. masses --      1.0885                 1.0894                 1.1010
 Frc consts  --      6.0951                 6.1249                 6.2539
 IR Inten    --     51.6220                54.9674                16.0743

                     49                     50                     51
                      A                      A                      A
 Frequencies --   3119.8659              3124.3361              3142.0643
 Red. masses --      1.1017                 1.1049                 1.0925
 Frc consts  --      6.3178                 6.3548                 6.3549
 IR Inten    --     17.8871                16.0947                22.7602

 - Thermochemistry -
 -------------------
 Temperature   298.150 Kelvin.  Pressure   1.00000 Atm.
 Atom     1 has atomic number  6 and mass  12.00000

 Molecular mass:   126.06808 amu.
 Principal axes and moments of inertia in atomic units:
                           1         2         3
     Eigenvalues --   653.69174 918.365531228.32411
           X            0.99812   0.06063   0.00914
           Y           -0.06037   0.99782  -0.02648
           Z           -0.01072   0.02588   0.99961
 This molecule is an asymmetric top.
 Rotational symmetry number  1.
 Warning -- assumption of classical behavior for rotation
           may cause significant error
 Rotational temperatures (Kelvin)      0.13250     0.09431     0.07051
 Rotational constants (GHZ):           2.76084     1.96517     1.46927
 Zero-point vibrational energy     420787.8 (Joules/Mol)
                                  100.57070 (Kcal/Mol)
 Warning -- explicit consideration of   8 degrees of freedom as
           vibrations may cause significant error
 Vibrational temperatures:    134.00   302.99   349.47   401.92   533.05
          (Kelvin)            538.27   611.20   807.67   950.19   973.26
                             1117.23  1162.78  1219.09  1243.85  1277.98
                             1312.35  1342.33  1385.38  1404.61  1408.48
                             1455.83  1492.25  1572.27  1635.32  1664.43
                             1670.51  1681.60  1751.47  1766.91  1778.21
                             1813.27  1837.78  1867.84  1903.09  1946.34
                             2013.79  2025.53  2088.78  2132.03  2148.28
                             2166.54  4320.48  4368.78  4388.93  4399.57
                             4435.59  4444.47  4467.45  4488.79  4495.22
                             4520.72

 Zero-point correction=                           0.160270 (Hartree/Particle)
 Thermal correction to Energy=                    0.167610
 Thermal correction to Enthalpy=                  0.168554
 Thermal correction to Gibbs Free Energy=         0.128680
 Sum of electronic and zero-point Energies=           -423.005527
 Sum of electronic and thermal Energies=              -422.998187
 Sum of electronic and thermal Enthalpies=            -422.997243
 Sum of electronic and thermal Free Energies=         -423.037117

                     E (Thermal)             CV                S
                      KCal/Mol        Cal/Mol-Kelvin    Cal/Mol-Kelvin
 Total                  105.177             29.495             83.922
 Electronic               0.000              0.000              0.000
 Translational            0.889              2.981             40.409
 Rotational               0.889              2.981             28.091
 Vibrational            103.399             23.534             15.423
 Vibration     1          0.602              1.954              3.593
 Vibration     2          0.643              1.825              2.039
 Vibration     3          0.659              1.775              1.782
 Vibration     4          0.680              1.712              1.538
 Vibration     5          0.742              1.533              1.078
 Vibration     6          0.745              1.525              1.063
 Vibration     7          0.787              1.416              0.876
 Vibration     8          0.917              1.115              0.521

 Normal termination of Gaussian 09 at Mon Jan 27 18:57:44 2020.
