 Gaussian 09, Revision D.01,
 Gaussian 09:  ES64L-G09RevD.01 24-Apr-2013

 -----------------------------
 # b3lyp 6-31G(2df,p) opt Freq
 -----------------------------

 -----
 titel
 -----
 Symbolic Z-matrix:
 Charge =  0 Multiplicity = 1

 SCF Done:  E(RB3LYP) =  -423.190136574     A.U. after   14 cycles
 Optimization completed.
    -- Stationary point found.
 Normal termination of Gaussian 09 at Mon Jan 27 23:04:18 2020.

 ----------------------------------------------------------------------
 #N Geom=AllCheck Guess=TCheck SCRF=Check GenChk RB3LYP/6-31G(2df,p) Fr
 eq
 ----------------------------------------------------------------------

 Structure from the checkpoint file:  "/scratch/puck/g09_59a28c5c-0af8-4b65-87a8-f6a66a19a20e/Gau-101798.chk"
 -----
 titel
 -----
 Charge =  0 Multiplicity = 1

                         Standard orientation:
 ---------------------------------------------------------------------
 Center     Atomic      Atomic             Coordinates (Angstroms)
 Number     Number       Type             X           Y           Z
 ---------------------------------------------------------------------
      1          6           0       -2.805462    0.032954   -0.348100
      2          6           0       -1.301264    0.131564   -0.568903
      3          6           0       -0.414911   -1.051639   -0.059288
      4          6           0       -0.438124   -0.377991    1.341172
      5          6           0       -0.477506    0.949652    0.496793
      6          6           0        0.902377    0.856145   -0.112635
      7          8           0        1.812479    1.643453   -0.145650
      8          6           0        0.957504   -0.620503   -0.596989
      9          8           0        2.039817   -1.308896   -0.009022
     10          1           0       -3.288490    0.990805   -0.567002
     11          1           0       -3.237055   -0.716567   -1.020126
     12          1           0       -3.072152   -0.247110    0.674120
     13          1           0       -1.116470    0.427436   -1.609154
     14          1           0       -0.702657   -2.091855   -0.209618
     15          1           0       -1.361405   -0.541354    1.894962
     16          1           0        0.423312   -0.545416    1.989965
     17          1           0       -0.794132    1.909399    0.901055
     18          1           0        0.999936   -0.675305   -1.696322
     19          1           0        2.795056   -0.707587   -0.032801
 ---------------------------------------------------------------------

 SCF Done:  E(RB3LYP) =  -423.190136574     A.U. after    1 cycles

 The electronic state is 1-A.
 Alpha  occ. eigenvalues --  -19.14312 -19.13789 -10.26716 -10.23664 -10.20994
 Alpha  occ. eigenvalues --  -10.20415 -10.20105 -10.19885 -10.18861  -1.05202
 Alpha  occ. eigenvalues --   -1.02138  -0.89998  -0.74849  -0.70550  -0.68053
 Alpha  occ. eigenvalues --   -0.63132  -0.55200  -0.54824  -0.50489  -0.50117
 Alpha  occ. eigenvalues --   -0.47221  -0.44568  -0.42840  -0.40960  -0.39822
 Alpha  occ. eigenvalues --   -0.39646  -0.38027  -0.36478  -0.35435  -0.32993
 Alpha  occ. eigenvalues --   -0.31858  -0.31449  -0.28605  -0.23408
 Alpha virt. eigenvalues --   -0.01548   0.08441   0.09270   0.10913   0.12237
 Alpha virt. eigenvalues --    0.13047   0.13488   0.14321   0.15231   0.16084
 Alpha virt. eigenvalues --    0.17175   0.19138   0.20651   0.21183   0.21676

 Mulliken charges:
               1
     1  C   -0.433231
     2  C    0.022693
     3  C   -0.053237
     4  C   -0.247572
     5  C   -0.145890
     6  C    0.397678
     7  O   -0.354133
     8  C    0.051416
     9  O   -0.450872
    10  H    0.124001
    11  H    0.123448
    12  H    0.123574
    13  H    0.075428
    14  H    0.075533
    15  H    0.112546
    16  H    0.120607
    17  H    0.081780
    18  H    0.082914
    19  H    0.293317
 Sum of Mulliken charges =   0.00000

 Dipole moment (field-independent basis, Debye):
    X=             -2.4240    Y=             -0.5846    Z=             -0.1629  Tot=              2.4988
 Quadrupole moment (field-independent basis, Debye-Ang):
   XX=            -53.2712   YY=            -59.0907   ZZ=            -51.4079
   XY=             -1.8724   XZ=             -0.1716   YZ=              0.6949

  Exact polarizability:  88.338   2.039  71.082  -0.048   0.361  66.421
 Approx polarizability: 121.188   7.516 111.812  -0.229  -1.035 102.209

                      1                      2                      3
                      A                      A                      A
 Frequencies --    112.9206               196.5738               204.9990
 Red. masses --      5.0750                 2.1276                 1.3714
 Frc consts  --      0.0381                 0.0484                 0.0340
 IR Inten    --      6.3138                 0.5694                 0.3213

                      4                      5                      6
                      A                      A                      A
 Frequencies --    215.6981               263.6365               348.3321
 Red. masses --      3.1620                 3.2799                 2.8655
 Frc consts  --      0.0867                 0.1343                 0.2049
 IR Inten    --     13.2846                 5.2067                18.1836

                      7                      8                      9
                      A                      A                      A
 Frequencies --    365.5935               462.5075               466.8179
 Red. masses --      1.1955                 3.9298                 3.9848
 Frc consts  --      0.0941                 0.4953                 0.5116
 IR Inten    --     75.7250                 0.3909                 6.6371

                     10                     11                     12
                      A                      A                      A
 Frequencies --    533.5206               610.1030               720.1330
 Red. masses --      2.7717                 3.5480                 3.9739
 Frc consts  --      0.4648                 0.7781                 1.2142
 IR Inten    --      5.4130                 3.9462                 5.3683

                     13                     14                     15
                      A                      A                      A
 Frequencies --    769.3577               808.9614               831.7499
 Red. masses --      2.5739                 3.4983                 2.6854
 Frc consts  --      0.8976                 1.3488                 1.0946
 IR Inten    --      9.7752                18.0695                 6.2893

                     16                     17                     18
                      A                      A                      A
 Frequencies --    855.7410               894.8423               958.5945
 Red. masses --      3.0043                 2.1947                 2.5331
 Frc consts  --      1.2962                 1.0354                 1.3714
 IR Inten    --      0.7297                 0.8458                20.2500

                     19                     20                     21
                      A                      A                      A
 Frequencies --    964.4234              1003.8022              1050.4014
 Red. masses --      1.9740                 1.7498                 1.5145
 Frc consts  --      1.0818                 1.0388                 0.9846
 IR Inten    --      3.6972                 2.4009                19.9211

                     22                     23                     24
                      A                      A                      A
 Frequencies --   1066.8125              1074.2514              1094.0678
 Red. masses --      1.3401                 2.1537                 1.7102
 Frc consts  --      0.8986                 1.4643                 1.2061
 IR Inten    --      3.1983                23.3831                 2.2284

                     25                     26                     27
                      A                      A                      A
 Frequencies --   1106.3445              1137.7813              1176.8983
 Red. masses --      1.3283                 3.3244                 2.1049
 Frc consts  --      0.9579                 2.5356                 1.7177
 IR Inten    --      6.0397                56.5918                 4.6689

                     28                     29                     30
                      A                      A                      A
 Frequencies --   1200.8739              1216.8068              1245.4719
 Red. masses --      1.4024                 1.5511                 1.6006
 Frc consts  --      1.1915                 1.3531                 1.4629
 IR Inten    --     26.6358                 4.3841                 0.5534

                     31                     32                     33
                      A                      A                      A
 Frequencies --   1252.6151              1269.5812              1301.6509
 Red. masses --      1.5845                 1.7166                 1.5295
 Frc consts  --      1.4648                 1.6302                 1.5268
 IR Inten    --      4.0804                 3.3110                10.1075

                     34                     35                     36
                      A                      A                      A
 Frequencies --   1348.3386              1398.4231              1404.5234
 Red. masses --      1.3966                 1.4249                 1.4097
 Frc consts  --      1.4959                 1.6418                 1.6385
 IR Inten    --     30.5955                 3.0340                10.0419

                     37                     38                     39
                      A                      A                      A
 Frequencies --   1415.5732              1493.9671              1496.3718
 Red. masses --      1.2851                 1.0690                 1.0481
 Frc consts  --      1.5172                 1.4058                 1.3827
 IR Inten    --      2.5359                 1.1724                 2.3075

                     40                     41                     42
                      A                      A                      A
 Frequencies --   1516.3420              1861.1902              2977.8927
 Red. masses --      1.0847                12.3915                 1.0822
 Frc consts  --      1.4694                25.2904                 5.6542
 IR Inten    --      7.8138               253.3462                34.8895

                     43                     44                     45
                      A                      A                      A
 Frequencies --   3022.3151              3038.1227              3088.6267
 Red. masses --      1.0834                 1.0373                 1.0593
 Frc consts  --      5.8309                 5.6410                 5.9537
 IR Inten    --     37.8600                28.5637                15.1937

                     46                     47                     48
                      A                      A                      A
 Frequencies --   3098.4586              3117.2719              3119.7856
 Red. masses --      1.1011                 1.0994                 1.0906
 Frc consts  --      6.2283                 6.2945                 6.2541
 IR Inten    --     18.1048                31.8320                32.2128

                     49                     50                     51
                      A                      A                      A
 Frequencies --   3138.9173              3153.0413              3774.5820
 Red. masses --      1.0914                 1.1066                 1.0659
 Frc consts  --      6.3359                 6.4817                 8.9475
 IR Inten    --     22.4476                17.1971                30.9000

 - Thermochemistry -
 -------------------
 Temperature   298.150 Kelvin.  Pressure   1.00000 Atm.
 Atom     1 has atomic number  6 and mass  12.00000

 Molecular mass:   126.06808 amu.
 Principal axes and moments of inertia in atomic units:
                           1         2         3
     Eigenvalues --   613.779471270.931401524.00890
           X            0.99989  -0.01452   0.00294
           Y            0.01450   0.99987   0.00723
           Z           -0.00304  -0.00719   0.99997
 This molecule is an asymmetric top.
 Rotational symmetry number  1.
 Warning -- assumption of classical behavior for rotation
           may cause significant error
 Rotational temperatures (Kelvin)      0.14112     0.06815     0.05683
 Rotational constants (GHZ):           2.94037     1.42001     1.18421
 Zero-point vibrational energy     420162.0 (Joules/Mol)
                                  100.42114 (Kcal/Mol)
 Warning -- explicit consideration of  11 degrees of freedom as
           vibrations may cause significant error
 Vibrational temperatures:    162.47   282.83   294.95   310.34   379.31
          (Kelvin)            501.17   526.01   665.44   671.65   767.62
                              877.80  1036.11  1106.93  1163.91  1196.70
                             1231.22  1287.48  1379.20  1387.59  1444.25
                             1511.29  1534.90  1545.61  1574.12  1591.78
                             1637.01  1693.29  1727.79  1750.71  1791.95
                             1802.23  1826.64  1872.78  1939.96  2012.02
                             2020.79  2036.69  2149.48  2152.94  2181.68
                             2677.83  4284.52  4348.43  4371.18  4443.84
                             4457.99  4485.05  4488.67  4516.20  4536.52
                             5430.77

 Zero-point correction=                           0.160031 (Hartree/Particle)
 Thermal correction to Energy=                    0.168148
 Thermal correction to Enthalpy=                  0.169092
 Thermal correction to Gibbs Free Energy=         0.127687
 Sum of electronic and zero-point Energies=           -423.030105
 Sum of electronic and thermal Energies=              -423.021989
 Sum of electronic and thermal Enthalpies=            -423.021044
 Sum of electronic and thermal Free Energies=         -423.062450

                     E (Thermal)             CV                S
                      KCal/Mol        Cal/Mol-Kelvin    Cal/Mol-Kelvin
 Total                  105.514             31.823             87.144
 Electronic               0.000              0.000              0.000
 Translational            0.889              2.981             40.409
 Rotational               0.889              2.981             28.565
 Vibrational            103.737             25.861             18.170
 Vibration     1          0.607              1.939              3.218
 Vibration     2          0.636              1.845              2.165
 Vibration     3          0.640              1.833              2.088
 Vibration     4          0.645              1.817              1.995
 Vibration     5          0.670              1.740              1.638
 Vibration     6          0.726              1.579              1.174
 Vibration     7          0.739              1.543              1.098
 Vibration     8          0.820              1.333              0.759
 Vibration     9          0.824              1.324              0.747
 Vibration    10          0.889              1.176              0.579
 Vibration    11          0.969              1.010              0.433

 Optimization completed.
    -- Stationary point found.
 Normal termination of Gaussian 09 at Mon Jan 27 23:52:11 2020.
