 Gaussian 09, Revision D.01,
 Gaussian 09:  ES64L-G09RevD.01 24-Apr-2013

 -----------------------------
 # b3lyp 6-31G(2df,p) opt Freq
 -----------------------------

 -----
 titel
 -----
 Symbolic Z-matrix:
 Charge =  0 Multiplicity = 1

 SCF Done:  E(RB3LYP) =  -423.203539090     A.U. after   14 cycles
 Optimization completed.
    -- Stationary point found.
 Normal termination of Gaussian 09 at Tue Jan 28 03:53:13 2020.

 ----------------------------------------------------------------------
 #N Geom=AllCheck Guess=TCheck SCRF=Check GenChk RB3LYP/6-31G(2df,p) Fr
 eq
 ----------------------------------------------------------------------

 Structure from the checkpoint file:  "/scratch/puck/g09_ab7f49c8-8416-47cc-bd7e-3dfee2a0c0d4/Gau-8724.chk"
 -----
 titel
 -----
 Charge =  0 Multiplicity = 1

                         Standard orientation:
 ---------------------------------------------------------------------
 Center     Atomic      Atomic             Coordinates (Angstroms)
 Number     Number       Type             X           Y           Z
 ---------------------------------------------------------------------
      1          8           0       -2.526657   -0.960754   -0.162465
      2          6           0       -1.327322   -0.288686   -0.431499
      3          6           0       -1.302819    1.259621   -0.293639
      4          6           0       -0.091665    1.168328    0.678995
      5          6           0        1.300019    1.541303    0.110489
      6          6           0        1.800707    0.299556   -0.648085
      7          6           0        1.135033   -0.887573    0.061474
      8          8           0        1.570969   -2.008057    0.131927
      9          6           0       -0.176078   -0.388670    0.646793
     10          1           0       -2.851751   -0.672800    0.697567
     11          1           0       -1.015839   -0.648065   -1.416585
     12          1           0       -1.148662    1.825258   -1.217591
     13          1           0       -2.213062    1.635912    0.183580
     14          1           0       -0.263238    1.646338    1.644765
     15          1           0        1.261614    2.439261   -0.513380
     16          1           0        1.981446    1.756376    0.940636
     17          1           0        1.448748    0.297643   -1.689200
     18          1           0        2.885449    0.183549   -0.676880
     19          1           0       -0.466453   -0.936256    1.544231
 ---------------------------------------------------------------------

 SCF Done:  E(RB3LYP) =  -423.203539090     A.U. after    1 cycles

 The electronic state is 1-A.
 Alpha  occ. eigenvalues --  -19.14784 -19.12669 -10.26381 -10.24558 -10.19917
 Alpha  occ. eigenvalues --  -10.19445 -10.19121 -10.18927 -10.18923  -1.03745
 Alpha  occ. eigenvalues --   -1.03163  -0.86579  -0.77364  -0.70498  -0.67378
 Alpha  occ. eigenvalues --   -0.62670  -0.55754  -0.54367  -0.51557  -0.48133
 Alpha  occ. eigenvalues --   -0.46101  -0.44790  -0.42742  -0.41339  -0.40454
 Alpha  occ. eigenvalues --   -0.38746  -0.37914  -0.37505  -0.34352  -0.33891
 Alpha  occ. eigenvalues --   -0.32478  -0.29652  -0.27183  -0.23266
 Alpha virt. eigenvalues --   -0.01721   0.06718   0.07250   0.08506   0.12330
 Alpha virt. eigenvalues --    0.13294   0.13632   0.15050   0.15266   0.16880
 Alpha virt. eigenvalues --    0.17251   0.18731   0.20830   0.21405   0.23252

 Mulliken charges:
               1
     1  O   -0.424374
     2  C    0.159193
     3  C   -0.276221
     4  C   -0.022535
     5  C   -0.230279
     6  C   -0.323114
     7  C    0.399332
     8  O   -0.319710
     9  C   -0.176417
    10  H    0.280460
    11  H    0.099238
    12  H    0.103018
    13  H    0.099995
    14  H    0.075402
    15  H    0.104809
    16  H    0.109819
    17  H    0.128447
    18  H    0.127021
    19  H    0.085917
 Sum of Mulliken charges =   0.00000

 Dipole moment (field-independent basis, Debye):
    X=             -0.7211    Y=              3.5756    Z=              0.7648  Tot=              3.7269
 Quadrupole moment (field-independent basis, Debye-Ang):
   XX=            -54.9515   YY=            -60.7361   ZZ=            -49.8549
   XY=              2.4167   XZ=             -4.3068   YZ=             -0.3936

  Exact polarizability:  83.552  -1.824  77.008  -2.725  -1.408  64.470
 Approx polarizability: 114.003  -5.885 116.163  -2.239  -2.781 100.644

                      1                      2                      3
                      A                      A                      A
 Frequencies --     44.8610               117.3598               178.4025
 Red. masses --      3.0572                 3.9464                 2.9023
 Frc consts  --      0.0036                 0.0320                 0.0544
 IR Inten    --      0.8661                 2.6791                 1.1562

                      4                      5                      6
                      A                      A                      A
 Frequencies --    264.5871               325.0200               359.0714
 Red. masses --      1.9713                 1.6795                 2.2479
 Frc consts  --      0.0813                 0.1045                 0.1708
 IR Inten    --     13.9844                29.0629                56.1041

                      7                      8                      9
                      A                      A                      A
 Frequencies --    433.3334               444.7101               520.0338
 Red. masses --      2.3093                 4.6244                 2.3356
 Frc consts  --      0.2555                 0.5388                 0.3721
 IR Inten    --      3.7620                13.7682                 2.1351

                     10                     11                     12
                      A                      A                      A
 Frequencies --    575.3096               660.8764               748.7384
 Red. masses --      3.0792                 4.2249                 3.8823
 Frc consts  --      0.6005                 1.0872                 1.2823
 IR Inten    --      0.6129                 2.1675                 7.2204

                     13                     14                     15
                      A                      A                      A
 Frequencies --    751.1181               812.5252               825.3322
 Red. masses --      2.0291                 3.1983                 1.9995
 Frc consts  --      0.6745                 1.2440                 0.8025
 IR Inten    --      0.8616                 3.8209                 5.4765

                     16                     17                     18
                      A                      A                      A
 Frequencies --    887.3147               912.8840               932.1774
 Red. masses --      1.8197                 2.7869                 2.2819
 Frc consts  --      0.8441                 1.3684                 1.1683
 IR Inten    --      5.3721                 5.5380                28.4794

                     19                     20                     21
                      A                      A                      A
 Frequencies --    949.5529               971.5056              1043.7214
 Red. masses --      1.8618                 2.3386                 2.0933
 Frc consts  --      0.9890                 1.3004                 1.3435
 IR Inten    --      1.5305                 3.4317                 7.9411

                     22                     23                     24
                      A                      A                      A
 Frequencies --   1067.2023              1086.7931              1133.7422
 Red. masses --      1.8605                 1.5127                 1.9062
 Frc consts  --      1.2485                 1.0527                 1.4436
 IR Inten    --      6.4282                 1.8358               141.3882

                     25                     26                     27
                      A                      A                      A
 Frequencies --   1150.1749              1163.6797              1170.8758
 Red. masses --      1.7091                 2.9878                 1.4832
 Frc consts  --      1.3321                 2.3838                 1.1981
 IR Inten    --     45.7473                74.2005                 4.0550

                     28                     29                     30
                      A                      A                      A
 Frequencies --   1195.2041              1222.2161              1257.8414
 Red. masses --      1.4598                 1.4613                 1.5793
 Frc consts  --      1.2286                 1.2862                 1.4722
 IR Inten    --      6.9685                 7.0436                 4.0671

                     31                     32                     33
                      A                      A                      A
 Frequencies --   1268.0657              1275.7701              1298.5784
 Red. masses --      1.3004                 1.5563                 1.3394
 Frc consts  --      1.2320                 1.4924                 1.3308
 IR Inten    --      3.0060                 1.2733                 4.7872

                     34                     35                     36
                      A                      A                      A
 Frequencies --   1326.0483              1331.2222              1351.5813
 Red. masses --      1.6213                 1.5190                 1.3844
 Frc consts  --      1.6797                 1.5861                 1.4901
 IR Inten    --      1.1951                 0.8547                 8.7450

                     37                     38                     39
                      A                      A                      A
 Frequencies --   1437.6650              1461.1260              1475.0195
 Red. masses --      1.2035                 1.0856                 1.1034
 Frc consts  --      1.4656                 1.3655                 1.4144
 IR Inten    --     54.7119                13.3570                 2.5267

                     40                     41                     42
                      A                      A                      A
 Frequencies --   1493.9561              1838.9645              3025.4848
 Red. masses --      1.0932                12.3379                 1.0698
 Frc consts  --      1.4376                24.5831                 5.7697
 IR Inten    --      3.9862               234.9266                 6.4246

                     43                     44                     45
                      A                      A                      A
 Frequencies --   3042.9116              3045.8547              3064.8542
 Red. masses --      1.0613                 1.0594                 1.0877
 Frc consts  --      5.7899                 5.7908                 6.0199
 IR Inten    --     27.8238                29.7247                21.4348

                     46                     47                     48
                      A                      A                      A
 Frequencies --   3083.2890              3088.0237              3100.9068
 Red. masses --      1.0936                 1.0992                 1.1027
 Frc consts  --      6.1253                 6.1759                 6.2471
 IR Inten    --     23.6183                11.6271                33.2040

                     49                     50                     51
                      A                      A                      A
 Frequencies --   3111.3821              3120.0993              3801.7965
 Red. masses --      1.0884                 1.0939                 1.0659
 Frc consts  --      6.2079                 6.2744                 9.0769
 IR Inten    --     20.9772                12.7647                17.7986

 - Thermochemistry -
 -------------------
 Temperature   298.150 Kelvin.  Pressure   1.00000 Atm.
 Atom     1 has atomic number  8 and mass  15.99491

 Molecular mass:   126.06808 amu.
 Principal axes and moments of inertia in atomic units:
                           1         2         3
     Eigenvalues --   746.583541155.790691664.13046
           X            0.99918   0.03761  -0.01510
           Y           -0.03767   0.99928  -0.00372
           Z            0.01495   0.00429   0.99988
 This molecule is an asymmetric top.
 Rotational symmetry number  1.
 Warning -- assumption of classical behavior for rotation
           may cause significant error
 Rotational temperatures (Kelvin)      0.11601     0.07494     0.05205
 Rotational constants (GHZ):           2.41733     1.56148     1.08450
 Zero-point vibrational energy     420180.9 (Joules/Mol)
                                  100.42565 (Kcal/Mol)
 Warning -- explicit consideration of  10 degrees of freedom as
           vibrations may cause significant error
 Vibrational temperatures:     64.54   168.85   256.68   380.68   467.63
          (Kelvin)            516.62   623.47   639.84   748.21   827.74
                              950.85  1077.27  1080.69  1169.04  1187.47
                             1276.65  1313.43  1341.19  1366.19  1397.78
                             1501.68  1535.46  1563.65  1631.20  1654.84
                             1674.27  1684.63  1719.63  1758.49  1809.75
                             1824.46  1835.55  1868.36  1907.89  1915.33
                             1944.62  2068.48  2102.23  2122.22  2149.47
                             2645.86  4352.99  4378.07  4382.30  4409.64
                             4436.16  4442.97  4461.51  4476.58  4489.12
                             5469.93

 Zero-point correction=                           0.160038 (Hartree/Particle)
 Thermal correction to Energy=                    0.168159
 Thermal correction to Enthalpy=                  0.169103
 Thermal correction to Gibbs Free Energy=         0.126769
 Sum of electronic and zero-point Energies=           -423.043501
 Sum of electronic and thermal Energies=              -423.035380
 Sum of electronic and thermal Enthalpies=            -423.034436
 Sum of electronic and thermal Free Energies=         -423.076770

                     E (Thermal)             CV                S
                      KCal/Mol        Cal/Mol-Kelvin    Cal/Mol-Kelvin
 Total                  105.521             31.324             89.099
 Electronic               0.000              0.000              0.000
 Translational            0.889              2.981             40.409
 Rotational               0.889              2.981             28.753
 Vibrational            103.744             25.362             19.938
 Vibration     1          0.595              1.979              5.032
 Vibration     2          0.608              1.935              3.143
 Vibration     3          0.629              1.869              2.345
 Vibration     4          0.671              1.738              1.631
 Vibration     5          0.709              1.625              1.285
 Vibration     6          0.734              1.557              1.126
 Vibration     7          0.794              1.398              0.848
 Vibration     8          0.804              1.373              0.812
 Vibration     9          0.875              1.206              0.610
 Vibration    10          0.932              1.085              0.494

 Optimization completed.
    -- Stationary point found.
 Normal termination of Gaussian 09 at Tue Jan 28 04:35:58 2020.
