 Gaussian 09, Revision D.01,
 Gaussian 09:  ES64L-G09RevD.01 24-Apr-2013

 -----------------------------
 # b3lyp 6-31G(2df,p) opt Freq
 -----------------------------

 -----
 titel
 -----
 Symbolic Z-matrix:
 Charge =  0 Multiplicity = 1

 SCF Done:  E(RB3LYP) =  -423.192810405     A.U. after   12 cycles
 Optimization completed.
    -- Stationary point found.
 Normal termination of Gaussian 09 at Mon Jan 27 18:04:14 2020.

 ----------------------------------------------------------------------
 #N Geom=AllCheck Guess=TCheck SCRF=Check GenChk RB3LYP/6-31G(2df,p) Fr
 eq
 ----------------------------------------------------------------------

 Structure from the checkpoint file:  "/scratch/puck/g09_2430ce3b-8ca6-47fa-93d5-4612089ae9a6/Gau-88490.chk"
 -----
 titel
 -----
 Charge =  0 Multiplicity = 1

                         Standard orientation:
 ---------------------------------------------------------------------
 Center     Atomic      Atomic             Coordinates (Angstroms)
 Number     Number       Type             X           Y           Z
 ---------------------------------------------------------------------
      1          6           0        2.404968   -0.075503    0.000128
      2          6           0        0.897796    0.047433    0.000100
      3          6           0        0.366428    1.487198   -0.000323
      4          6           0       -1.188673    1.481036    0.000055
      5          6           0       -1.726389    0.059552   -0.000222
      6          6           0       -0.944699   -1.004017    0.749446
      7          8           0        0.356131   -0.631772    1.139951
      8          6           0       -0.944469   -1.004201   -0.749408
      9          8           0        0.356436   -0.632200   -1.139710
     10          1           0        2.821392    0.408179    0.887011
     11          1           0        2.685987   -1.130522    0.003409
     12          1           0        2.820530    0.402380   -0.890296
     13          1           0        0.757082    2.002199    0.881998
     14          1           0        0.756721    2.001378   -0.883291
     15          1           0       -1.571083    2.013246    0.877076
     16          1           0       -1.571610    2.014016   -0.876259
     17          1           0       -2.806598   -0.053878   -0.000422
     18          1           0       -1.391486   -1.746951    1.396812
     19          1           0       -1.391247   -1.747268   -1.396629
 ---------------------------------------------------------------------

 SCF Done:  E(RB3LYP) =  -423.192810405     A.U. after    1 cycles

 The electronic state is 1-A.
 Alpha  occ. eigenvalues --  -19.14440 -19.14439 -10.27881 -10.23019 -10.22992
 Alpha  occ. eigenvalues --  -10.18957 -10.18850 -10.18001 -10.17516  -1.09253
 Alpha  occ. eigenvalues --   -0.99165  -0.84632  -0.79071  -0.72211  -0.64863
 Alpha  occ. eigenvalues --   -0.61338  -0.60887  -0.53222  -0.51866  -0.47632
 Alpha  occ. eigenvalues --   -0.46738  -0.43775  -0.42636  -0.41685  -0.39768
 Alpha  occ. eigenvalues --   -0.38589  -0.37308  -0.36476  -0.36076  -0.33444
 Alpha  occ. eigenvalues --   -0.31841  -0.31613  -0.24500  -0.22097
 Alpha virt. eigenvalues --    0.08360   0.10985   0.11187   0.12554   0.13088
 Alpha virt. eigenvalues --    0.13420   0.15688   0.16579   0.16612   0.17345
 Alpha virt. eigenvalues --    0.19330   0.19671   0.21242   0.21743   0.22824

 Mulliken charges:
               1
     1  C   -0.449808
     2  C    0.424087
     3  C   -0.224534
     4  C   -0.232863
     5  C   -0.126397
     6  C    0.041031
     7  O   -0.291323
     8  C    0.041084
     9  O   -0.291329
    10  H    0.127392
    11  H    0.132704
    12  H    0.127514
    13  H    0.104753
    14  H    0.104774
    15  H    0.107869
    16  H    0.107850
    17  H    0.086561
    18  H    0.105316
    19  H    0.105319
 Sum of Mulliken charges =   0.00000

 Dipole moment (field-independent basis, Debye):
    X=             -0.9715    Y=              0.6764    Z=             -0.0004  Tot=              1.1838
 Quadrupole moment (field-independent basis, Debye-Ang):
   XX=            -48.7395   YY=            -51.2309   ZZ=            -56.0213
   XY=              2.6600   XZ=             -0.0001   YZ=             -0.0006

  Exact polarizability:  82.204   1.863  72.486   0.001   0.000  63.462
 Approx polarizability: 109.288   1.384 102.125   0.001   0.002 104.943

                      1                      2                      3
                      A                      A                      A
 Frequencies --    120.8367               181.1808               276.0641
 Red. masses --      1.7946                 1.0340                 3.1029
 Frc consts  --      0.0154                 0.0200                 0.1393
 IR Inten    --      0.0234                 0.1090                 4.0689

                      4                      5                      6
                      A                      A                      A
 Frequencies --    297.1427               396.4191               442.6498
 Red. masses --      2.8149                 2.4503                 4.9754
 Frc consts  --      0.1464                 0.2269                 0.5744
 IR Inten    --      2.0247                 2.3109                 5.4597

                      7                      8                      9
                      A                      A                      A
 Frequencies --    495.0195               544.8535               648.2313
 Red. masses --      3.2427                 5.0567                 5.5822
 Frc consts  --      0.4682                 0.8845                 1.3820
 IR Inten    --      6.0845                 2.9357                 0.7787

                     10                     11                     12
                      A                      A                      A
 Frequencies --    736.7681               739.1386               763.0383
 Red. masses --      5.1548                 5.3301                 2.2051
 Frc consts  --      1.6486                 1.7157                 0.7564
 IR Inten    --      4.7590                11.9440                 7.7139

                     13                     14                     15
                      A                      A                      A
 Frequencies --    767.4608               817.1318               852.4003
 Red. masses --      2.3068                 1.5654                 3.0577
 Frc consts  --      0.8005                 0.6158                 1.3090
 IR Inten    --     27.4022                 0.0039                 9.3247

                     16                     17                     18
                      A                      A                      A
 Frequencies --    864.6037               894.1158               923.8605
 Red. masses --      1.7824                 2.3701                 2.2947
 Frc consts  --      0.7850                 1.1164                 1.1540
 IR Inten    --     19.6976                 1.6538                10.2702

                     19                     20                     21
                      A                      A                      A
 Frequencies --   1002.1870              1003.3334              1049.0819
 Red. masses --      2.0800                 2.2537                 1.6648
 Frc consts  --      1.2309                 1.3367                 1.0795
 IR Inten    --     15.4903                 2.8633                 2.6119

                     22                     23                     24
                      A                      A                      A
 Frequencies --   1054.5011              1074.1398              1091.1948
 Red. masses --      2.8409                 1.4785                 1.9661
 Frc consts  --      1.8612                 1.0051                 1.3793
 IR Inten    --     14.2836                 3.1610                50.7980

                     25                     26                     27
                      A                      A                      A
 Frequencies --   1112.8649              1145.9865              1159.5619
 Red. masses --      1.9452                 2.0653                 1.7225
 Frc consts  --      1.4194                 1.5980                 1.3646
 IR Inten    --     14.9355                 7.2957                54.2972

                     28                     29                     30
                      A                      A                      A
 Frequencies --   1215.7322              1232.5910              1237.7805
 Red. masses --      2.3999                 3.0120                 1.2323
 Frc consts  --      2.0899                 2.6961                 1.1124
 IR Inten    --     32.0646                55.9218                 1.0310

                     31                     32                     33
                      A                      A                      A
 Frequencies --   1282.9888              1319.7232              1330.6401
 Red. masses --      1.1131                 2.2100                 1.5224
 Frc consts  --      1.0796                 2.2679                 1.5882
 IR Inten    --      0.1005                18.0529                10.9900

                     34                     35                     36
                      A                      A                      A
 Frequencies --   1339.9268              1380.5376              1408.6106
 Red. masses --      1.5339                 1.6555                 1.4958
 Frc consts  --      1.6226                 1.8590                 1.7487
 IR Inten    --      7.6946                10.0094                 6.4033

                     37                     38                     39
                      A                      A                      A
 Frequencies --   1432.1583              1473.0708              1483.7556
 Red. masses --      2.3630                 1.0791                 1.0595
 Frc consts  --      2.8556                 1.3797                 1.3743
 IR Inten    --     45.3857                 0.1261                 0.8845

                     40                     41                     42
                      A                      A                      A
 Frequencies --   1486.1339              1504.9424              3038.8216
 Red. masses --      1.0488                 1.0935                 1.0591
 Frc consts  --      1.3647                 1.4592                 5.7622
 IR Inten    --      3.0877                 2.2112                35.6602

                     43                     44                     45
                      A                      A                      A
 Frequencies --   3054.1293              3059.6959              3069.6115
 Red. masses --      1.0490                 1.0451                 1.1052
 Frc consts  --      5.7652                 5.7644                 6.1358
 IR Inten    --     16.6362                27.7355                 7.6433

                     46                     47                     48
                      A                      A                      A
 Frequencies --   3102.0136              3135.6276              3142.4836
 Red. masses --      1.1052                 1.1020                 1.1027
 Frc consts  --      6.2657                 6.3838                 6.4161
 IR Inten    --     24.7795                15.0236                12.4338

                     49                     50                     51
                      A                      A                      A
 Frequencies --   3150.9579              3197.6431              3207.0037
 Red. masses --      1.0886                 1.0900                 1.0971
 Frc consts  --      6.3680                 6.5663                 6.6481
 IR Inten    --     14.3313                 9.9218                23.3136

 - Thermochemistry -
 -------------------
 Temperature   298.150 Kelvin.  Pressure   1.00000 Atm.
 Atom     1 has atomic number  6 and mass  12.00000

 Molecular mass:   126.06808 amu.
 Principal axes and moments of inertia in atomic units:
                           1         2         3
     Eigenvalues --   633.99952 942.242061121.39913
           X            0.99993   0.01149   0.00000
           Y           -0.01149   0.99993  -0.00002
           Z            0.00000   0.00002   1.00000
 This molecule is an asymmetric top.
 Rotational symmetry number  1.
 Warning -- assumption of classical behavior for rotation
           may cause significant error
 Rotational temperatures (Kelvin)      0.13661     0.09192     0.07724
 Rotational constants (GHZ):           2.84660     1.91537     1.60937
 Zero-point vibrational energy     423121.2 (Joules/Mol)
                                  101.12840 (Kcal/Mol)
 Warning -- explicit consideration of   8 degrees of freedom as
           vibrations may cause significant error
 Vibrational temperatures:    173.86   260.68   397.19   427.52   570.36
          (Kelvin)            636.87   712.22   783.92   932.66  1060.04
                             1063.45  1097.84  1104.20  1175.67  1226.41
                             1243.97  1286.43  1329.23  1441.92  1443.57
                             1509.39  1517.19  1545.45  1569.98  1601.16
                             1648.82  1668.35  1749.17  1773.42  1780.89
                             1845.93  1898.78  1914.49  1927.85  1986.28
                             2026.67  2060.55  2119.42  2134.79  2138.21
                             2165.27  4372.18  4394.21  4402.21  4416.48
                             4463.10  4511.46  4521.33  4533.52  4600.69
                             4614.16

 Zero-point correction=                           0.161158 (Hartree/Particle)
 Thermal correction to Energy=                    0.168350
 Thermal correction to Enthalpy=                  0.169294
 Thermal correction to Gibbs Free Energy=         0.129890
 Sum of electronic and zero-point Energies=           -423.031652
 Sum of electronic and thermal Energies=              -423.024460
 Sum of electronic and thermal Enthalpies=            -423.023516
 Sum of electronic and thermal Free Energies=         -423.062920

                     E (Thermal)             CV                S
                      KCal/Mol        Cal/Mol-Kelvin    Cal/Mol-Kelvin
 Total                  105.641             29.484             82.933
 Electronic               0.000              0.000              0.000
 Translational            0.889              2.981             40.409
 Rotational               0.889              2.981             27.996
 Vibrational            103.864             23.523             14.529
 Vibration     1          0.609              1.932              3.087
 Vibration     2          0.630              1.865              2.316
 Vibration     3          0.678              1.718              1.558
 Vibration     4          0.691              1.679              1.433
 Vibration     5          0.763              1.478              0.976
 Vibration     6          0.802              1.377              0.818
 Vibration     7          0.851              1.261              0.671
 Vibration     8          0.900              1.151              0.555

 Normal termination of Gaussian 09 at Mon Jan 27 18:51:39 2020.
