 Gaussian 09, Revision D.01,
 Gaussian 09:  ES64L-G09RevD.01 24-Apr-2013

 -----------------------------
 # b3lyp 6-31G(2df,p) opt Freq
 -----------------------------

 -----
 titel
 -----
 Symbolic Z-matrix:
 Charge =  0 Multiplicity = 1

 SCF Done:  E(RB3LYP) =  -423.182204326     A.U. after   14 cycles
 Optimization completed.
    -- Stationary point found.
 Normal termination of Gaussian 09 at Mon Jan 27 15:35:35 2020.

 ----------------------------------------------------------------------
 #N Geom=AllCheck Guess=TCheck SCRF=Check GenChk RB3LYP/6-31G(2df,p) Fr
 eq
 ----------------------------------------------------------------------

 Structure from the checkpoint file:  "/scratch/puck/g09_49e456d3-20a0-4ff8-a921-77c640b24eb7/Gau-28396.chk"
 -----
 titel
 -----
 Charge =  0 Multiplicity = 1

                         Standard orientation:
 ---------------------------------------------------------------------
 Center     Atomic      Atomic             Coordinates (Angstroms)
 Number     Number       Type             X           Y           Z
 ---------------------------------------------------------------------
      1          6           0        0.609822    0.824408    1.645339
      2          6           0        0.400253    0.036353    0.335706
      3          6           0        1.555121   -0.946079    0.168322
      4          8           0        2.361696   -0.933457   -0.724992
      5          6           0        0.341197    0.987211   -0.860413
      6          8           0       -0.183449    2.072063   -0.815644
      7          6           0       -0.890583   -0.793197    0.432756
      8          6           0       -2.252633   -0.163902    0.298112
      9          6           0       -1.759154   -1.121771   -0.757758
     10          1           0       -0.199127    1.547614    1.761949
     11          1           0        0.605747    0.148867    2.506452
     12          1           0        1.558877    1.368617    1.635907
     13          1           0        1.607050   -1.711723    0.977880
     14          1           0        0.803050    0.606086   -1.791064
     15          1           0       -0.807466   -1.577466    1.182606
     16          1           0       -3.031922   -0.494369    0.975469
     17          1           0       -2.294866    0.887863    0.038304
     18          1           0       -2.194916   -2.113118   -0.808815
     19          1           0       -1.496530   -0.709364   -1.725987
 ---------------------------------------------------------------------

 SCF Done:  E(RB3LYP) =  -423.182204326     A.U. after    1 cycles

 The electronic state is 1-A.
 Alpha  occ. eigenvalues --  -19.15465 -19.15085 -10.28313 -10.27674 -10.22063
 Alpha  occ. eigenvalues --  -10.21550 -10.19959 -10.19625 -10.19462  -1.06326
 Alpha  occ. eigenvalues --   -1.05569  -0.87949  -0.80502  -0.68467  -0.63725
 Alpha  occ. eigenvalues --   -0.61415  -0.60200  -0.54267  -0.51044  -0.49540
 Alpha  occ. eigenvalues --   -0.48650  -0.45752  -0.43792  -0.42201  -0.41575
 Alpha  occ. eigenvalues --   -0.40164  -0.38393  -0.38318  -0.37532  -0.36129
 Alpha  occ. eigenvalues --   -0.31220  -0.30425  -0.27101  -0.24812
 Alpha virt. eigenvalues --   -0.03624  -0.03356   0.07740   0.10952   0.11198
 Alpha virt. eigenvalues --    0.11995   0.12321   0.14153   0.15589   0.16122
 Alpha virt. eigenvalues --    0.17497   0.17965   0.19389   0.21869   0.22658

 Mulliken charges:
               1
     1  C   -0.423134
     2  C    0.037886
     3  C    0.151600
     4  O   -0.254445
     5  C    0.126295
     6  O   -0.265535
     7  C   -0.008319
     8  C   -0.276215
     9  C   -0.289101
    10  H    0.152419
    11  H    0.118411
    12  H    0.131559
    13  H    0.081410
    14  H    0.117262
    15  H    0.092054
    16  H    0.117159
    17  H    0.144824
    18  H    0.119168
    19  H    0.126701
 Sum of Mulliken charges =   0.00000

 Dipole moment (field-independent basis, Debye):
    X=             -1.3355    Y=             -1.7628    Z=              1.9409  Tot=              2.9425
 Quadrupole moment (field-independent basis, Debye-Ang):
   XX=            -57.3488   YY=            -57.5241   ZZ=            -52.2256
   XY=              4.0042   XZ=              2.5031   YZ=              0.0750

  Exact polarizability:  79.534  -1.611  73.499  -2.343  -0.289  73.426
 Approx polarizability: 113.055  -8.027 113.120  -9.172  -1.348 111.389

                      1                      2                      3
                      A                      A                      A
 Frequencies --     30.5472                57.9481                90.0200
 Red. masses --      5.1587                 4.6267                 2.5095
 Frc consts  --      0.0028                 0.0092                 0.0120
 IR Inten    --      7.0064                 7.7753                 0.2066

                      4                      5                      6
                      A                      A                      A
 Frequencies --    198.3089               203.7496               217.0333
 Red. masses --      1.0476                 3.1303                 2.5983
 Frc consts  --      0.0243                 0.0766                 0.0721
 IR Inten    --      0.1048                 2.7607                 1.2664

                      7                      8                      9
                      A                      A                      A
 Frequencies --    242.7153               292.4607               315.5915
 Red. masses --      3.7496                 2.5012                 2.6564
 Frc consts  --      0.1301                 0.1260                 0.1559
 IR Inten    --      7.0901                 1.3770                 2.7385

                     10                     11                     12
                      A                      A                      A
 Frequencies --    404.6786               430.9042               492.0864
 Red. masses --      3.1624                 2.7586                 4.4889
 Frc consts  --      0.3051                 0.3018                 0.6404
 IR Inten    --      0.7379                 0.4631                 4.0127

                     13                     14                     15
                      A                      A                      A
 Frequencies --    665.8226               724.7801               793.6474
 Red. masses --      4.3151                 2.7386                 1.1193
 Frc consts  --      1.1271                 0.8476                 0.4154
 IR Inten    --     17.8957                 8.0161                 3.6713

                     16                     17                     18
                      A                      A                      A
 Frequencies --    831.7537               845.6844               920.4923
 Red. masses --      1.2413                 2.6684                 1.7486
 Frc consts  --      0.5060                 1.1244                 0.8730
 IR Inten    --     13.1501                10.6795                23.4351

                     19                     20                     21
                      A                      A                      A
 Frequencies --    931.1710               948.5949              1000.6291
 Red. masses --      3.2806                 2.8885                 1.8585
 Frc consts  --      1.6759                 1.5314                 1.0964
 IR Inten    --      2.8196                 6.3102                28.0594

                     22                     23                     24
                      A                      A                      A
 Frequencies --   1015.4998              1065.7215              1088.1147
 Red. masses --      1.6680                 1.3259                 1.4134
 Frc consts  --      1.0134                 0.8873                 0.9860
 IR Inten    --      1.5394                 4.1633                 4.2784

                     25                     26                     27
                      A                      A                      A
 Frequencies --   1093.7112              1139.4768              1155.3427
 Red. masses --      1.3985                 1.1132                 3.6339
 Frc consts  --      0.9856                 0.8516                 2.8579
 IR Inten    --      5.8297                 0.6018                 7.3096

                     28                     29                     30
                      A                      A                      A
 Frequencies --   1184.0167              1199.9947              1237.4169
 Red. masses --      2.4057                 1.4585                 2.0743
 Frc consts  --      1.9870                 1.2374                 1.8714
 IR Inten    --      4.9550                 1.9272                 2.0301

                     31                     32                     33
                      A                      A                      A
 Frequencies --   1259.3438              1378.3678              1395.0690
 Red. masses --      3.1711                 1.4969                 1.1903
 Frc consts  --      2.9631                 1.6756                 1.3649
 IR Inten    --     17.5791                 4.1589                 1.7255

                     34                     35                     36
                      A                      A                      A
 Frequencies --   1414.4836              1435.3472              1473.4242
 Red. masses --      1.1861                 1.2430                 1.0848
 Frc consts  --      1.3982                 1.5088                 1.3876
 IR Inten    --      2.3191                 5.2310                 3.5950

                     37                     38                     39
                      A                      A                      A
 Frequencies --   1485.9036              1496.2815              1507.9901
 Red. masses --      1.0543                 1.0620                 1.3265
 Frc consts  --      1.3715                 1.4008                 1.7773
 IR Inten    --      5.4812                 6.8595                 3.2824

                     40                     41                     42
                      A                      A                      A
 Frequencies --   1817.1284              1828.3630              2855.0001
 Red. masses --     10.3462                10.7522                 1.0827
 Frc consts  --     20.1280                21.1775                 5.1997
 IR Inten    --    130.3012               147.8487               102.8104

                     43                     44                     45
                      A                      A                      A
 Frequencies --   2955.2746              3043.0960              3112.0923
 Red. masses --      1.0855                 1.0354                 1.1022
 Frc consts  --      5.5856                 5.6490                 6.2898
 IR Inten    --     45.8783                17.3864                15.1758

                     46                     47                     48
                      A                      A                      A
 Frequencies --   3121.1938              3138.0748              3141.4811
 Red. masses --      1.0860                 1.0530                 1.0580
 Frc consts  --      6.2336                 6.1093                 6.1519
 IR Inten    --     15.3893                11.1831                 7.3903

                     49                     50                     51
                      A                      A                      A
 Frequencies --   3142.2995              3216.7298              3231.5078
 Red. masses --      1.1001                 1.1174                 1.1158
 Frc consts  --      6.3998                 6.8123                 6.8651
 IR Inten    --      5.7581                 3.5394                 8.0758

 - Thermochemistry -
 -------------------
 Temperature   298.150 Kelvin.  Pressure   1.00000 Atm.
 Atom     1 has atomic number  6 and mass  12.00000

 Molecular mass:   126.06808 amu.
 Principal axes and moments of inertia in atomic units:
                           1         2         3
     Eigenvalues --   880.128081274.854381481.84174
           X            0.99825   0.05328   0.02558
           Y           -0.05464   0.99694   0.05582
           Z           -0.02253  -0.05712   0.99811
 This molecule is an asymmetric top.
 Rotational symmetry number  1.
 Warning -- assumption of classical behavior for rotation
           may cause significant error
 Rotational temperatures (Kelvin)      0.09841     0.06794     0.05845
 Rotational constants (GHZ):           2.05054     1.41564     1.21790
 Zero-point vibrational energy     408323.5 (Joules/Mol)
                                   97.59167 (Kcal/Mol)
 Warning -- explicit consideration of  12 degrees of freedom as
           vibrations may cause significant error
 Vibrational temperatures:     43.95    83.37   129.52   285.32   293.15
          (Kelvin)            312.26   349.21   420.79   454.07   582.24
                              619.97   708.00   957.97  1042.80  1141.88
                             1196.71  1216.75  1324.38  1339.75  1364.81
                             1439.68  1461.08  1533.33  1565.55  1573.60
                             1639.45  1662.28  1703.53  1726.52  1780.36
                             1811.91  1983.16  2007.19  2035.12  2065.14
                             2119.93  2137.88  2152.81  2169.66  2614.44
                             2630.60  4107.70  4251.98  4378.33  4477.60
                             4490.70  4514.98  4519.88  4521.06  4628.15
                             4649.41

 Zero-point correction=                           0.155522 (Hartree/Particle)
 Thermal correction to Energy=                    0.165496
 Thermal correction to Enthalpy=                  0.166440
 Thermal correction to Gibbs Free Energy=         0.119449
 Sum of electronic and zero-point Energies=           -423.026682
 Sum of electronic and thermal Energies=              -423.016709
 Sum of electronic and thermal Enthalpies=            -423.015765
 Sum of electronic and thermal Free Energies=         -423.062755

                     E (Thermal)             CV                S
                      KCal/Mol        Cal/Mol-Kelvin    Cal/Mol-Kelvin
 Total                  103.850             35.143             98.900
 Electronic               0.000              0.000              0.000
 Translational            0.889              2.981             40.409
 Rotational               0.889              2.981             28.899
 Vibrational            102.073             29.182             29.592
 Vibration     1          0.594              1.984              5.794
 Vibration     2          0.596              1.974              4.526
 Vibration     3          0.602              1.956              3.660
 Vibration     4          0.637              1.842              2.149
 Vibration     5          0.639              1.835              2.099
 Vibration     6          0.646              1.815              1.984
 Vibration     7          0.659              1.775              1.783
 Vibration     8          0.688              1.688              1.460
 Vibration     9          0.703              1.644              1.333
 Vibration    10          0.770              1.460              0.946
 Vibration    11          0.792              1.403              0.856
 Vibration    12          0.848              1.268              0.678

 Optimization completed.
    -- Stationary point found.
 Normal termination of Gaussian 09 at Mon Jan 27 16:21:16 2020.
 Normal termination of Gaussian 09 at Mon Jan 27 15:59:47 2020.
