 Gaussian 09, Revision D.01,
 Gaussian 09:  ES64L-G09RevD.01 24-Apr-2013

 -----------------------------
 # b3lyp 6-31G(2df,p) opt Freq
 -----------------------------

 -----
 titel
 -----
 Symbolic Z-matrix:
 Charge =  0 Multiplicity = 1

 SCF Done:  E(RB3LYP) =  -423.225037088     A.U. after   14 cycles
 Optimization completed.
    -- Stationary point found.
 Normal termination of Gaussian 09 at Tue Jan 28 00:02:11 2020.

 ----------------------------------------------------------------------
 #N Geom=AllCheck Guess=TCheck SCRF=Check GenChk RB3LYP/6-31G(2df,p) Fr
 eq
 ----------------------------------------------------------------------

 Structure from the checkpoint file:  "/scratch/puck/g09_2edb696d-818d-45fa-8a0f-b2268b87a537/Gau-68440.chk"
 -----
 titel
 -----
 Charge =  0 Multiplicity = 1

                         Standard orientation:
 ---------------------------------------------------------------------
 Center     Atomic      Atomic             Coordinates (Angstroms)
 Number     Number       Type             X           Y           Z
 ---------------------------------------------------------------------
      1          8           0       -1.966327   -1.203423    0.074219
      2          6           0       -0.819479   -0.633725   -0.532598
      3          6           0        0.471409   -1.212241    0.067473
      4          6           0        1.651847   -0.691700   -0.784076
      5          6           0        1.731426    0.822175   -0.403043
      6          6           0        0.594091    0.995704    0.645366
      7          6           0        0.620923   -0.378809    1.363066
      8          6           0       -0.716740    0.857544   -0.109967
      9          8           0       -1.592145    1.669301   -0.276343
     10          1           0       -2.681242   -0.563345   -0.035707
     11          1           0       -0.859419   -0.736105   -1.627817
     12          1           0        0.435767   -2.295206    0.188992
     13          1           0        2.575439   -1.213249   -0.520253
     14          1           0        1.488175   -0.845025   -1.854809
     15          1           0        2.690951    1.068618    0.059510
     16          1           0        1.607540    1.485995   -1.262754
     17          1           0        0.656197    1.899901    1.249345
     18          1           0        1.564151   -0.558524    1.886630
     19          1           0       -0.210650   -0.523776    2.056525
 ---------------------------------------------------------------------

 SCF Done:  E(RB3LYP) =  -423.225037088     A.U. after    1 cycles

 The electronic state is 1-A.
 Alpha  occ. eigenvalues --  -19.14347 -19.13936 -10.26654 -10.23449 -10.19800
 Alpha  occ. eigenvalues --  -10.19712 -10.19402 -10.19149 -10.19112  -1.05276
 Alpha  occ. eigenvalues --   -1.02008  -0.87755  -0.73707  -0.73036  -0.68720
 Alpha  occ. eigenvalues --   -0.59828  -0.56860  -0.54132  -0.51077  -0.49262
 Alpha  occ. eigenvalues --   -0.47902  -0.45656  -0.41809  -0.41714  -0.39483
 Alpha  occ. eigenvalues --   -0.37752  -0.36552  -0.35460  -0.35139  -0.34133
 Alpha  occ. eigenvalues --   -0.33082  -0.32204  -0.28590  -0.23518
 Alpha virt. eigenvalues --   -0.02256   0.07785   0.09038   0.11292   0.13754
 Alpha virt. eigenvalues --    0.14153   0.15084   0.15737   0.16218   0.17087
 Alpha virt. eigenvalues --    0.17580   0.18264   0.19734   0.21012   0.21356

 Mulliken charges:
               1
     1  O   -0.451689
     2  C    0.058132
     3  C   -0.028469
     4  C   -0.224370
     5  C   -0.226850
     6  C   -0.120675
     7  C   -0.240349
     8  C    0.398254
     9  O   -0.349048
    10  H    0.292632
    11  H    0.079370
    12  H    0.077992
    13  H    0.105131
    14  H    0.103579
    15  H    0.110834
    16  H    0.114173
    17  H    0.081843
    18  H    0.100189
    19  H    0.119321
 Sum of Mulliken charges =   0.00000

 Dipole moment (field-independent basis, Debye):
    X=              2.2609    Y=             -0.5916    Z=             -0.0208  Tot=              2.3371
 Quadrupole moment (field-independent basis, Debye-Ang):
   XX=            -52.7946   YY=            -58.5923   ZZ=            -51.6063
   XY=              1.4233   XZ=              0.3398   YZ=              1.2563

  Exact polarizability:  81.583  -1.769  73.080   0.717   0.296  66.816
 Approx polarizability: 117.540  -6.653 110.621   2.044  -2.105 100.868

                      1                      2                      3
                      A                      A                      A
 Frequencies --     84.5116               203.2189               246.4234
 Red. masses --      5.0805                 2.6802                 2.6540
 Frc consts  --      0.0214                 0.0652                 0.0950
 IR Inten    --      4.4097                 2.3560                 0.9071

                      4                      5                      6
                      A                      A                      A
 Frequencies --    257.3499               393.0270               400.3444
 Red. masses --      4.2482                 2.4585                 1.7123
 Frc consts  --      0.1658                 0.2238                 0.1617
 IR Inten    --     16.0321                20.7528                21.4365

                      7                      8                      9
                      A                      A                      A
 Frequencies --    422.2280               490.2218               556.7270
 Red. masses --      1.8292                 3.1961                 3.9415
 Frc consts  --      0.1921                 0.4525                 0.7198
 IR Inten    --     64.5516                 3.8369                 3.7376

                     10                     11                     12
                      A                      A                      A
 Frequencies --    682.3117               749.0908               772.0249
 Red. masses --      3.7551                 3.8060                 4.2887
 Frc consts  --      1.0300                 1.2583                 1.5060
 IR Inten    --      0.4038                 8.0019                 9.6821

                     13                     14                     15
                      A                      A                      A
 Frequencies --    819.5792               842.5897               886.5476
 Red. masses --      1.4102                 4.9751                 2.3221
 Frc consts  --      0.5581                 2.0811                 1.0753
 IR Inten    --      0.1965                 3.4234                 2.4143

                     16                     17                     18
                      A                      A                      A
 Frequencies --    889.6236               912.3673               944.2516
 Red. masses --      2.5114                 3.1762                 2.1221
 Frc consts  --      1.1711                 1.5578                 1.1148
 IR Inten    --      1.8997                 6.0124                 0.5951

                     19                     20                     21
                      A                      A                      A
 Frequencies --    950.0327               969.6490              1031.9377
 Red. masses --      2.2483                 1.7459                 1.6160
 Frc consts  --      1.1956                 0.9672                 1.0139
 IR Inten    --     16.5839                 0.5016                33.6160

                     22                     23                     24
                      A                      A                      A
 Frequencies --   1039.5165              1090.1214              1105.0402
 Red. masses --      1.6803                 1.5586                 2.1227
 Frc consts  --      1.0698                 1.0913                 1.5272
 IR Inten    --      0.8928                 7.8739                30.9827

                     25                     26                     27
                      A                      A                      A
 Frequencies --   1139.7527              1160.9694              1194.9506
 Red. masses --      1.5139                 1.7308                 1.4819
 Frc consts  --      1.1587                 1.3745                 1.2467
 IR Inten    --     41.4622                 4.4410                 3.7437

                     28                     29                     30
                      A                      A                      A
 Frequencies --   1205.0176              1229.1898              1251.9123
 Red. masses --      1.4997                 1.3316                 1.3994
 Frc consts  --      1.2831                 1.1854                 1.2922
 IR Inten    --     16.5697                 6.6062                 1.9301

                     31                     32                     33
                      A                      A                      A
 Frequencies --   1284.5752              1303.6947              1315.6030
 Red. masses --      1.3529                 1.5310                 1.4479
 Frc consts  --      1.3154                 1.5331                 1.4765
 IR Inten    --      0.5123                 1.8318                 9.3744

                     34                     35                     36
                      A                      A                      A
 Frequencies --   1327.2694              1339.0345              1355.4187
 Red. masses --      1.4153                 1.5070                 1.5315
 Frc consts  --      1.4690                 1.5920                 1.6577
 IR Inten    --      2.5030                 3.8891                17.9938

                     37                     38                     39
                      A                      A                      A
 Frequencies --   1410.8424              1493.0144              1493.3204
 Red. masses --      1.5336                 1.0785                 1.0951
 Frc consts  --      1.7985                 1.4164                 1.4388
 IR Inten    --     15.5630                 1.0834                 5.1767

                     40                     41                     42
                      A                      A                      A
 Frequencies --   1516.4384              1846.5134              2984.5560
 Red. masses --      1.1007                12.3389                 1.0829
 Frc consts  --      1.4913                24.7875                 5.6832
 IR Inten    --      1.7006               206.9765                40.8872

                     43                     44                     45
                      A                      A                      A
 Frequencies --   3053.9935              3061.9204              3064.0672
 Red. masses --      1.0593                 1.0593                 1.0611
 Frc consts  --      5.8213                 5.8513                 5.8693
 IR Inten    --     25.0156                34.4362                26.1825

                     46                     47                     48
                      A                      A                      A
 Frequencies --   3089.6046              3109.3220              3114.5539
 Red. masses --      1.1059                 1.1048                 1.0897
 Frc consts  --      6.2197                 6.2932                 6.2278
 IR Inten    --      1.9328                26.7218                34.1382

                     49                     50                     51
                      A                      A                      A
 Frequencies --   3118.9797              3130.6569              3772.7192
 Red. masses --      1.1061                 1.0892                 1.0658
 Frc consts  --      6.3400                 6.2899                 8.9380
 IR Inten    --     16.9961                17.3954                29.5289

 - Thermochemistry -
 -------------------
 Temperature   298.150 Kelvin.  Pressure   1.00000 Atm.
 Atom     1 has atomic number  8 and mass  15.99491

 Molecular mass:   126.06808 amu.
 Principal axes and moments of inertia in atomic units:
                           1         2         3
     Eigenvalues --   719.102991019.362051317.18753
           X            0.99958   0.02826  -0.00596
           Y           -0.02816   0.99947   0.01657
           Z            0.00643  -0.01639   0.99984
 This molecule is an asymmetric top.
 Rotational symmetry number  1.
 Warning -- assumption of classical behavior for rotation
           may cause significant error
 Rotational temperatures (Kelvin)      0.12045     0.08497     0.06576
 Rotational constants (GHZ):           2.50971     1.77046     1.37015
 Zero-point vibrational energy     425312.1 (Joules/Mol)
                                  101.65202 (Kcal/Mol)
 Warning -- explicit consideration of   9 degrees of freedom as
           vibrations may cause significant error
 Vibrational temperatures:    121.59   292.39   354.55   370.27   565.48
          (Kelvin)            576.01   607.49   705.32   801.01   981.69
                             1077.77  1110.77  1179.19  1212.30  1275.54
                             1279.97  1312.69  1358.57  1366.88  1395.11
                             1484.73  1495.63  1568.44  1589.90  1639.85
                             1670.37  1719.27  1733.75  1768.53  1801.22
                             1848.21  1875.72  1892.86  1909.64  1926.57
                             1950.14  2029.89  2148.11  2148.55  2181.81
                             2656.72  4294.11  4394.01  4405.42  4408.50
                             4445.25  4473.62  4481.14  4487.51  4504.31
                             5428.09

 Zero-point correction=                           0.161993 (Hartree/Particle)
 Thermal correction to Energy=                    0.169484
 Thermal correction to Enthalpy=                  0.170428
 Thermal correction to Gibbs Free Energy=         0.130123
 Sum of electronic and zero-point Energies=           -423.063044
 Sum of electronic and thermal Energies=              -423.055553
 Sum of electronic and thermal Enthalpies=            -423.054609
 Sum of electronic and thermal Free Energies=         -423.094914

                     E (Thermal)             CV                S
                      KCal/Mol        Cal/Mol-Kelvin    Cal/Mol-Kelvin
 Total                  106.353             30.029             84.828
 Electronic               0.000              0.000              0.000
 Translational            0.889              2.981             40.409
 Rotational               0.889              2.981             28.359
 Vibrational            104.575             24.067             16.061
 Vibration     1          0.601              1.960              3.783
 Vibration     2          0.639              1.835              2.104
 Vibration     3          0.661              1.769              1.756
 Vibration     4          0.667              1.750              1.680
 Vibration     5          0.760              1.485              0.989
 Vibration     6          0.766              1.469              0.961
 Vibration     7          0.785              1.422              0.884
 Vibration     8          0.846              1.272              0.683
 Vibration     9          0.912              1.125              0.530

 Optimization completed.
    -- Stationary point found.
 Normal termination of Gaussian 09 at Tue Jan 28 00:48:24 2020.
