 Gaussian 09, Revision D.01,
 Gaussian 09:  ES64L-G09RevD.01 24-Apr-2013

 -----------------------------
 # b3lyp 6-31G(2df,p) opt Freq
 -----------------------------

 -----
 titel
 -----
 Symbolic Z-matrix:
 Charge =  0 Multiplicity = 1

 SCF Done:  E(RB3LYP) =  -423.163947564     A.U. after   14 cycles
 Optimization completed.
    -- Stationary point found.
 Normal termination of Gaussian 09 at Mon Jan 27 14:01:53 2020.

 ----------------------------------------------------------------------
 #N Geom=AllCheck Guess=TCheck SCRF=Check GenChk RB3LYP/6-31G(2df,p) Fr
 eq
 ----------------------------------------------------------------------

 Structure from the checkpoint file:  "/scratch/puck/g09_6c0f873e-5ab4-4403-ac3a-3d9169293f2a/Gau-30595.chk"
 -----
 titel
 -----
 Charge =  0 Multiplicity = 1

                         Standard orientation:
 ---------------------------------------------------------------------
 Center     Atomic      Atomic             Coordinates (Angstroms)
 Number     Number       Type             X           Y           Z
 ---------------------------------------------------------------------
      1          6           0        4.526644   -0.601497   -0.273415
      2          6           0        3.182806   -0.115070    0.005794
      3          6           0        2.076504    0.297022    0.243151
      4          6           0        0.722945    0.767571    0.511158
      5          6           0       -0.353928   -0.181379   -0.054303
      6          6           0       -1.772925    0.331050    0.213468
      7          8           0       -1.907674    1.592652   -0.425705
      8          6           0       -2.781368   -0.661217   -0.356332
      9          8           0       -3.250531   -1.585057    0.254427
     10          1           0        4.995387   -0.037089   -1.087244
     11          1           0        5.173643   -0.511587    0.606335
     12          1           0        4.515479   -1.657001   -0.567455
     13          1           0        0.573031    0.875586    1.594084
     14          1           0        0.572940    1.763355    0.080542
     15          1           0       -0.209733   -0.289743   -1.135199
     16          1           0       -0.251808   -1.175395    0.391435
     17          1           0       -1.938152    0.401063    1.298823
     18          1           0       -2.725407    2.003564   -0.128278
     19          1           0       -3.043808   -0.452394   -1.419934
 ---------------------------------------------------------------------

 SCF Done:  E(RB3LYP) =  -423.163947564     A.U. after    1 cycles

 The electronic state is 1-A.
 Alpha  occ. eigenvalues --  -19.15813 -19.14795 -10.27331 -10.24868 -10.20515
 Alpha  occ. eigenvalues --  -10.20062 -10.19831 -10.16901 -10.16503  -1.05680
 Alpha  occ. eigenvalues --   -1.03750  -0.81063  -0.76889  -0.73394  -0.67515
 Alpha  occ. eigenvalues --   -0.62184  -0.58371  -0.54611  -0.48968  -0.46440
 Alpha  occ. eigenvalues --   -0.45110  -0.44887  -0.44168  -0.42259  -0.42184
 Alpha  occ. eigenvalues --   -0.41495  -0.38317  -0.37758  -0.36623  -0.34589
 Alpha  occ. eigenvalues --   -0.30851  -0.25590  -0.24517  -0.24142
 Alpha virt. eigenvalues --   -0.03405   0.05911   0.06386   0.07336   0.11292
 Alpha virt. eigenvalues --    0.11916   0.12479   0.13975   0.14644   0.16275
 Alpha virt. eigenvalues --    0.17769   0.18315   0.19117   0.21217   0.21324

 Mulliken charges:
               1
     1  C   -0.497208
     2  C    0.111327
     3  C    0.021512
     4  C   -0.361872
     5  C   -0.176661
     6  C    0.016594
     7  O   -0.424759
     8  C    0.123563
     9  O   -0.240971
    10  H    0.146311
    11  H    0.146746
    12  H    0.146557
    13  H    0.122043
    14  H    0.147177
    15  H    0.119624
    16  H    0.127879
    17  H    0.093002
    18  H    0.293914
    19  H    0.085223
 Sum of Mulliken charges =   0.00000

 Dipole moment (field-independent basis, Debye):
    X=              0.5099    Y=              1.5028    Z=             -0.0407  Tot=              1.5874
 Quadrupole moment (field-independent basis, Debye-Ang):
   XX=            -48.5819   YY=            -55.8047   ZZ=            -52.8502
   XY=            -10.9993   XZ=             -0.1364   YZ=              2.9357

  Exact polarizability: 116.693  -5.972  69.098  -3.907   0.196  63.187
 Approx polarizability: 147.522 -10.848 105.981 -11.444  -3.302  96.891

                      1                      2                      3
                      A                      A                      A
 Frequencies --     17.9746                39.5628                58.6373
 Red. masses --      1.0253                 5.4987                 4.0687
 Frc consts  --      0.0002                 0.0051                 0.0082
 IR Inten    --      0.0210                 3.6156                 2.6791

                      4                      5                      6
                      A                      A                      A
 Frequencies --     79.6558               110.7555               197.1837
 Red. masses --      3.0457                 2.5060                 3.4126
 Frc consts  --      0.0114                 0.0181                 0.0782
 IR Inten    --      3.3440                 3.4809                 1.9138

                      7                      8                      9
                      A                      A                      A
 Frequencies --    215.8705               253.0496               302.2057
 Red. masses --      2.6827                 4.2381                 1.0962
 Frc consts  --      0.0737                 0.1599                 0.0590
 IR Inten    --      6.3206                 4.7197                86.1925

                     10                     11                     12
                      A                      A                      A
 Frequencies --    311.1945               378.8391               398.8996
 Red. masses --      3.4088                 3.6415                 3.2027
 Frc consts  --      0.1945                 0.3079                 0.3003
 IR Inten    --     17.0651                 4.4170                12.0844

                     13                     14                     15
                      A                      A                      A
 Frequencies --    416.8727               497.8372               580.4210
 Red. masses --      4.2726                 5.0011                 4.0040
 Frc consts  --      0.4375                 0.7303                 0.7947
 IR Inten    --     10.2639                 0.4486                10.4849

                     16                     17                     18
                      A                      A                      A
 Frequencies --    760.8305               784.9222               906.4866
 Red. masses --      1.8718                 1.9747                 2.6685
 Frc consts  --      0.6384                 0.7168                 1.2919
 IR Inten    --      1.6403                 1.0517                 2.1921

                     19                     20                     21
                      A                      A                      A
 Frequencies --    950.6096              1023.0949              1050.8570
 Red. masses --      1.9964                 3.5611                 1.5449
 Frc consts  --      1.0629                 2.1962                 1.0052
 IR Inten    --     15.7629                12.3185                 6.0930

                     22                     23                     24
                      A                      A                      A
 Frequencies --   1053.6609              1057.3637              1092.7692
 Red. masses --      1.4231                 1.7683                 2.9100
 Frc consts  --      0.9309                 1.1648                 2.0474
 IR Inten    --      0.1675                21.8946                 8.5393

                     25                     26                     27
                      A                      A                      A
 Frequencies --   1110.8056              1170.0939              1173.4069
 Red. masses --      3.4099                 2.5080                 1.2897
 Frc consts  --      2.4789                 2.0231                 1.0463
 IR Inten    --     56.1953                 2.2623                 4.7812

                     28                     29                     30
                      A                      A                      A
 Frequencies --   1255.2920              1283.1735              1319.9452
 Red. masses --      1.2571                 1.2194                 1.4158
 Frc consts  --      1.1671                 1.1829                 1.4533
 IR Inten    --      2.8051                36.5541                 9.2767

                     31                     32                     33
                      A                      A                      A
 Frequencies --   1324.1661              1372.7019              1390.9969
 Red. masses --      1.1185                 1.4021                 1.4052
 Frc consts  --      1.1555                 1.5566                 1.6020
 IR Inten    --     10.5904                 4.8415                11.2467

                     34                     35                     36
                      A                      A                      A
 Frequencies --   1408.7118              1415.5556              1473.0798
 Red. masses --      1.3048                 1.2482                 1.0751
 Frc consts  --      1.5256                 1.4736                 1.3745
 IR Inten    --      4.5721                 7.5427                 0.9436

                     37                     38                     39
                      A                      A                      A
 Frequencies --   1479.0867              1479.6493              1487.3627
 Red. masses --      1.0398                 1.0398                 1.0981
 Frc consts  --      1.3402                 1.3413                 1.4313
 IR Inten    --      5.1106                 5.3085                 3.1666

                     40                     41                     42
                      A                      A                      A
 Frequencies --   1835.6303              2374.0965              2868.2114
 Red. masses --     10.6846                11.8159                 1.0834
 Frc consts  --     21.2119                39.2388                 5.2510
 IR Inten    --    158.7546                 0.6043               100.4198

                     43                     44                     45
                      A                      A                      A
 Frequencies --   3002.6750              3015.9363              3025.5601
 Red. masses --      1.0834                 1.0662                 1.0348
 Frc consts  --      5.7552                 5.7139                 5.5811
 IR Inten    --     24.3515                19.9367                36.2670

                     46                     47                     48
                      A                      A                      A
 Frequencies --   3049.4736              3068.5572              3085.4398
 Red. masses --      1.0605                 1.0922                 1.1001
 Frc consts  --      5.8103                 6.0595                 6.1703
 IR Inten    --     18.8154                 2.1803                11.4616

                     49                     50                     51
                      A                      A                      A
 Frequencies --   3085.6813              3103.2745              3823.8372
 Red. masses --      1.1002                 1.1031                 1.0666
 Frc consts  --      6.1717                 6.2592                 9.1890
 IR Inten    --     11.5793                18.6139                32.4295

 - Thermochemistry -
 -------------------
 Temperature   298.150 Kelvin.  Pressure   1.00000 Atm.
 Atom     1 has atomic number  6 and mass  12.00000

 Molecular mass:   126.06808 amu.
 Principal axes and moments of inertia in atomic units:
                           1         2         3
     Eigenvalues --   476.290173210.005583541.03644
           X            0.99985  -0.01709  -0.00237
           Y            0.01715   0.99934   0.03212
           Z            0.00182  -0.03215   0.99948
 This molecule is an asymmetric top.
 Rotational symmetry number  1.
 Warning -- assumption of classical behavior for rotation
           may cause significant error
 Rotational temperatures (Kelvin)      0.18185     0.02698     0.02446
 Rotational constants (GHZ):           3.78916     0.56222     0.50966
 Zero-point vibrational energy     406861.6 (Joules/Mol)
                                   97.24227 (Kcal/Mol)
 Warning -- explicit consideration of  15 degrees of freedom as
           vibrations may cause significant error
 Vibrational temperatures:     25.86    56.92    84.37   114.61   159.35
          (Kelvin)            283.70   310.59   364.08   434.81   447.74
                              545.06   573.93   599.79   716.28   835.10
                             1094.66  1129.33  1304.23  1367.71  1472.00
                             1511.95  1515.98  1521.31  1572.25  1598.20
                             1683.50  1688.27  1806.08  1846.20  1899.10
                             1905.18  1975.01  2001.33  2026.82  2036.67
                             2119.43  2128.07  2128.88  2139.98  2641.06
                             3415.79  4126.71  4320.17  4339.25  4353.10
                             4387.51  4414.96  4439.25  4439.60  4464.91
                             5501.64

 Zero-point correction=                           0.154965 (Hartree/Particle)
 Thermal correction to Energy=                    0.166182
 Thermal correction to Enthalpy=                  0.167127
 Thermal correction to Gibbs Free Energy=         0.115609
 Sum of electronic and zero-point Energies=           -423.008982
 Sum of electronic and thermal Energies=              -422.997765
 Sum of electronic and thermal Enthalpies=            -422.996821
 Sum of electronic and thermal Free Energies=         -423.048338

                     E (Thermal)             CV                S
                      KCal/Mol        Cal/Mol-Kelvin    Cal/Mol-Kelvin
 Total                  104.281             37.318            108.428
 Electronic               0.000              0.000              0.000
 Translational            0.889              2.981             40.409
 Rotational               0.889              2.981             30.072
 Vibrational            102.504             31.357             37.947
 Vibration     1          0.593              1.986              6.846
 Vibration     2          0.594              1.981              5.281
 Vibration     3          0.596              1.974              4.503
 Vibration     4          0.600              1.963              3.899
 Vibration     5          0.607              1.941              3.256
 Vibration     6          0.637              1.844              2.159
 Vibration     7          0.645              1.817              1.993
 Vibration     8          0.664              1.758              1.709
 Vibration     9          0.694              1.670              1.405
 Vibration    10          0.700              1.652              1.356
 Vibration    11          0.749              1.515              1.044
 Vibration    12          0.765              1.472              0.967
 Vibration    13          0.780              1.434              0.903
 Vibration    14          0.853              1.255              0.664
 Vibration    15          0.937              1.074              0.485

 Optimization completed on the basis of negligible forces.
    -- Stationary point found.
 Normal termination of Gaussian 09 at Mon Jan 27 14:35:11 2020.
