 Gaussian 09, Revision D.01,
 Gaussian 09:  ES64L-G09RevD.01 24-Apr-2013

 -----------------------------
 # b3lyp 6-31G(2df,p) opt Freq
 -----------------------------

 -----
 titel
 -----
 Symbolic Z-matrix:
 Charge =  0 Multiplicity = 1

 SCF Done:  E(RB3LYP) =  -423.175669140     A.U. after   14 cycles
 Optimization completed.
    -- Stationary point found.
 Normal termination of Gaussian 09 at Tue Jan 28 02:41:51 2020.

 ----------------------------------------------------------------------
 #N Geom=AllCheck Guess=TCheck SCRF=Check GenChk RB3LYP/6-31G(2df,p) Fr
 eq
 ----------------------------------------------------------------------

 Structure from the checkpoint file:  "/scratch/puck/g09_149058b5-55ff-4f86-b546-9a56964427d4/Gau-87543.chk"
 -----
 titel
 -----
 Charge =  0 Multiplicity = 1

                         Standard orientation:
 ---------------------------------------------------------------------
 Center     Atomic      Atomic             Coordinates (Angstroms)
 Number     Number       Type             X           Y           Z
 ---------------------------------------------------------------------
      1          6           0        2.589152    0.465831   -0.652781
      2          6           0        1.555308   -0.434000    0.006441
      3          8           0        1.776538   -1.612865    0.200842
      4          6           0        0.256627    0.158788    0.399656
      5          6           0       -0.005971    1.633958    0.611012
      6          6           0       -0.746945    0.956176   -0.489822
      7          6           0       -1.910970    0.118645    0.067543
      8          8           0       -2.604529   -0.657259   -0.878058
      9          6           0       -0.905208   -0.659046    0.977564
     10          1           0        3.028109    1.139493    0.091844
     11          1           0        3.379775   -0.154457   -1.076238
     12          1           0        2.148393    1.090385   -1.436455
     13          1           0       -0.526060    1.938783    1.516608
     14          1           0        0.781397    2.313493    0.303550
     15          1           0       -0.634493    1.243915   -1.529301
     16          1           0       -2.678626    0.700155    0.587508
     17          1           0       -1.972505   -1.244565   -1.308205
     18          1           0       -1.049174   -0.597433    2.060502
     19          1           0       -0.844845   -1.710888    0.690233
 ---------------------------------------------------------------------

 SCF Done:  E(RB3LYP) =  -423.175669140     A.U. after    1 cycles

 The electronic state is 1-A.
 Alpha  occ. eigenvalues --  -19.14289 -19.12229 -10.26869 -10.24326 -10.21059
 Alpha  occ. eigenvalues --  -10.21017 -10.20915 -10.19055 -10.18745  -1.03373
 Alpha  occ. eigenvalues --   -1.02786  -0.90661  -0.75295  -0.72686  -0.67330
 Alpha  occ. eigenvalues --   -0.62021  -0.59379  -0.53481  -0.50109  -0.48050
 Alpha  occ. eigenvalues --   -0.46688  -0.45266  -0.44153  -0.42222  -0.40021
 Alpha  occ. eigenvalues --   -0.39789  -0.38356  -0.37637  -0.35905  -0.33404
 Alpha  occ. eigenvalues --   -0.31418  -0.27616  -0.26282  -0.24202
 Alpha virt. eigenvalues --   -0.01684   0.07518   0.07847   0.10533   0.11422
 Alpha virt. eigenvalues --    0.12416   0.13554   0.13747   0.14437   0.16176
 Alpha virt. eigenvalues --    0.17659   0.18297   0.19911   0.21413   0.22534

 Mulliken charges:
               1
     1  C   -0.499046
     2  C    0.270988
     3  O   -0.313589
     4  C    0.271332
     5  C   -0.339857
     6  C   -0.142019
     7  C    0.161167
     8  O   -0.434075
     9  C   -0.341947
    10  H    0.145156
    11  H    0.144396
    12  H    0.131451
    13  H    0.118393
    14  H    0.123399
    15  H    0.101833
    16  H    0.093508
    17  H    0.281574
    18  H    0.101476
    19  H    0.125862
 Sum of Mulliken charges =   0.00000

 Dipole moment (field-independent basis, Debye):
    X=              0.5809    Y=              2.6203    Z=             -0.3477  Tot=              2.7064
 Quadrupole moment (field-independent basis, Debye-Ang):
   XX=            -59.7815   YY=            -55.2726   ZZ=            -50.7813
   XY=              4.7204   XZ=             -3.3489   YZ=              2.0267

  Exact polarizability:  86.688  -1.962  78.126  -2.974  -0.097  65.660
 Approx polarizability: 116.099 -10.294 128.060   1.518  -1.951 100.904

                      1                      2                      3
                      A                      A                      A
 Frequencies --     70.0930                93.5135               155.5151
 Red. masses --      4.6793                 4.4044                 1.0298
 Frc consts  --      0.0135                 0.0227                 0.0147
 IR Inten    --      3.7920                 1.9046                 0.0585

                      4                      5                      6
                      A                      A                      A
 Frequencies --    196.9341               250.5388               313.6304
 Red. masses --      3.2912                 2.9006                 1.3573
 Frc consts  --      0.0752                 0.1073                 0.0787
 IR Inten    --      5.7441                 3.2325                38.5782

                      7                      8                      9
                      A                      A                      A
 Frequencies --    347.8243               378.5284               442.9351
 Red. masses --      2.2245                 2.7909                 2.5674
 Frc consts  --      0.1586                 0.2356                 0.2968
 IR Inten    --     10.3952                41.2545                 0.5039

                     10                     11                     12
                      A                      A                      A
 Frequencies --    477.1763               483.8349               586.7625
 Red. masses --      2.7530                 4.6857                 2.7209
 Frc consts  --      0.3693                 0.6463                 0.5519
 IR Inten    --      5.8656                 4.0428                 7.5517

                     13                     14                     15
                      A                      A                      A
 Frequencies --    629.4425               735.8710               786.8751
 Red. masses --      2.8354                 2.7638                 4.2066
 Frc consts  --      0.6619                 0.8818                 1.5346
 IR Inten    --      7.9079                 6.3182                 4.4145

                     16                     17                     18
                      A                      A                      A
 Frequencies --    833.6326               876.7600               942.4016
 Red. masses --      1.9782                 1.8340                 2.3397
 Frc consts  --      0.8100                 0.8306                 1.2243
 IR Inten    --      3.3903                 5.4799                12.8336

                     19                     20                     21
                      A                      A                      A
 Frequencies --    946.3601               960.6802              1000.5734
 Red. masses --      1.7743                 1.8697                 1.4809
 Frc consts  --      0.9362                 1.0167                 0.8735
 IR Inten    --      8.9683                42.4178                15.5875

                     22                     23                     24
                      A                      A                      A
 Frequencies --   1024.5395              1041.8126              1050.6202
 Red. masses --      1.5454                 1.7651                 1.7304
 Frc consts  --      0.9558                 1.1287                 1.1254
 IR Inten    --      2.9628                 1.1646                 1.3984

                     25                     26                     27
                      A                      A                      A
 Frequencies --   1093.5410              1112.5065              1137.7348
 Red. masses --      1.3323                 2.0656                 2.2562
 Frc consts  --      0.9387                 1.5063                 1.7207
 IR Inten    --      3.3259                 6.9138               107.3034

                     28                     29                     30
                      A                      A                      A
 Frequencies --   1150.8740              1227.5931              1237.5541
 Red. masses --      1.8064                 1.6600                 1.6349
 Frc consts  --      1.4097                 1.4739                 1.4752
 IR Inten    --     60.7300                 4.3202                 2.0932

                     31                     32                     33
                      A                      A                      A
 Frequencies --   1268.8476              1292.0573              1324.9790
 Red. masses --      1.6753                 1.8065                 2.1375
 Frc consts  --      1.5891                 1.7768                 2.2109
 IR Inten    --     21.9968                 7.4045                29.8513

                     34                     35                     36
                      A                      A                      A
 Frequencies --   1374.4486              1400.5395              1435.4999
 Red. masses --      1.4356                 2.7665                 1.2444
 Frc consts  --      1.5978                 3.1972                 1.5108
 IR Inten    --     10.2472                75.2769                85.7242

                     37                     38                     39
                      A                      A                      A
 Frequencies --   1466.4847              1478.3030              1481.9369
 Red. masses --      1.0810                 1.0673                 1.0953
 Frc consts  --      1.3698                 1.3742                 1.4172
 IR Inten    --      8.2043                 8.4993                 3.9153

                     40                     41                     42
                      A                      A                      A
 Frequencies --   1496.4538              1773.6414              3039.2705
 Red. masses --      1.1981                11.1333                 1.0372
 Frc consts  --      1.5807                20.6350                 5.6450
 IR Inten    --      5.5388               187.4251                 3.2811

                     43                     44                     45
                      A                      A                      A
 Frequencies --   3054.0445              3065.3352              3101.4379
 Red. masses --      1.0661                 1.0827                 1.0983
 Frc consts  --      5.8587                 5.9941                 6.2246
 IR Inten    --     21.8237                49.9336                 8.7698

                     46                     47                     48
                      A                      A                      A
 Frequencies --   3110.7544              3121.8229              3152.2970
 Red. masses --      1.0588                 1.1031                 1.1014
 Frc consts  --      6.0365                 6.3341                 6.4482
 IR Inten    --     14.0499                15.1625                 9.8676

                     49                     50                     51
                      A                      A                      A
 Frequencies --   3179.0293              3207.6898              3794.5345
 Red. masses --      1.0933                 1.1107                 1.0658
 Frc consts  --      6.5098                 6.7335                 9.0416
 IR Inten    --      7.3423                 8.1351                12.3297

 - Thermochemistry -
 -------------------
 Temperature   298.150 Kelvin.  Pressure   1.00000 Atm.
 Atom     1 has atomic number  6 and mass  12.00000

 Molecular mass:   126.06808 amu.
 Principal axes and moments of inertia in atomic units:
                           1         2         3
     Eigenvalues --   620.809351511.479841749.78438
           X            0.99920   0.03169  -0.02443
           Y           -0.03174   0.99949  -0.00185
           Z            0.02436   0.00262   0.99970
 This molecule is an asymmetric top.
 Rotational symmetry number  1.
 Warning -- assumption of classical behavior for rotation
           may cause significant error
 Rotational temperatures (Kelvin)      0.13952     0.05730     0.04950
 Rotational constants (GHZ):           2.90708     1.19402     1.03141
 Zero-point vibrational energy     413944.2 (Joules/Mol)
                                   98.93504 (Kcal/Mol)
 Warning -- explicit consideration of  12 degrees of freedom as
           vibrations may cause significant error
 Vibrational temperatures:    100.85   134.54   223.75   283.34   360.47
          (Kelvin)            451.24   500.44   544.62   637.28   686.55
                              696.13   844.22   905.63  1058.75  1132.14
                             1199.41  1261.46  1355.90  1361.60  1382.20
                             1439.60  1474.08  1498.93  1511.61  1573.36
                             1600.65  1636.94  1655.85  1766.23  1780.56
                             1825.59  1858.98  1906.35  1977.52  2015.06
                             2065.36  2109.94  2126.95  2132.17  2153.06
                             2551.87  4372.83  4394.08  4410.33  4462.27
                             4475.68  4491.60  4535.45  4573.91  4615.14
                             5459.48

 Zero-point correction=                           0.157663 (Hartree/Particle)
 Thermal correction to Energy=                    0.166654
 Thermal correction to Enthalpy=                  0.167598
 Thermal correction to Gibbs Free Energy=         0.123799
 Sum of electronic and zero-point Energies=           -423.018006
 Sum of electronic and thermal Energies=              -423.009015
 Sum of electronic and thermal Enthalpies=            -423.008071
 Sum of electronic and thermal Free Energies=         -423.051871

                     E (Thermal)             CV                S
                      KCal/Mol        Cal/Mol-Kelvin    Cal/Mol-Kelvin
 Total                  104.577             33.909             92.184
 Electronic               0.000              0.000              0.000
 Translational            0.889              2.981             40.409
 Rotational               0.889              2.981             28.886
 Vibrational            102.800             27.948             22.890
 Vibration     1          0.598              1.968              4.151
 Vibration     2          0.603              1.954              3.585
 Vibration     3          0.620              1.897              2.604
 Vibration     4          0.636              1.844              2.162
 Vibration     5          0.663              1.762              1.727
 Vibration     6          0.701              1.648              1.343
 Vibration     7          0.725              1.580              1.176
 Vibration     8          0.749              1.516              1.045
 Vibration     9          0.803              1.376              0.817
 Vibration    10          0.834              1.301              0.718
 Vibration    11          0.840              1.286              0.700
 Vibration    12          0.944              1.060              0.473

 Normal termination of Gaussian 09 at Tue Jan 28 03:23:28 2020.
