 Gaussian 09, Revision D.01,
 Gaussian 09:  ES64L-G09RevD.01 24-Apr-2013

 -----------------------------
 # b3lyp 6-31G(2df,p) opt Freq
 -----------------------------

 -----
 titel
 -----
 Symbolic Z-matrix:
 Charge =  0 Multiplicity = 1

 SCF Done:  E(RB3LYP) =  -423.112435797     A.U. after   14 cycles
 Optimization completed.
    -- Stationary point found.
 Normal termination of Gaussian 09 at Tue Jan 28 04:06:01 2020.

 ----------------------------------------------------------------------
 #N Geom=AllCheck Guess=TCheck SCRF=Check GenChk RB3LYP/6-31G(2df,p) Fr
 eq
 ----------------------------------------------------------------------

 Structure from the checkpoint file:  "/scratch/puck/g09_d2d945cd-d9c3-4908-b6c6-ec19322fc760/Gau-4136.chk"
 -----
 titel
 -----
 Charge =  0 Multiplicity = 1

                         Standard orientation:
 ---------------------------------------------------------------------
 Center     Atomic      Atomic             Coordinates (Angstroms)
 Number     Number       Type             X           Y           Z
 ---------------------------------------------------------------------
      1          6           0       -1.672042    1.837245   -0.133183
      2          6           0       -1.883777    0.443996    0.422616
      3          8           0       -2.457974   -0.469314   -0.548393
      4          6           0       -1.340794   -1.372155   -0.454038
      5          6           0       -0.646677   -0.470326    0.592929
      6          8           0        0.552948    0.148690    0.206641
      7          6           0        1.676430   -0.709394    0.313936
      8          6           0        2.885174    0.007510   -0.067632
      9          6           0        3.897039    0.574183   -0.378033
     10          1           0       -1.238819    2.492515    0.629069
     11          1           0       -1.000768    1.818004   -0.993590
     12          1           0       -2.635644    2.254108   -0.441533
     13          1           0       -2.512062    0.481778    1.322831
     14          1           0       -1.642459   -2.369846   -0.111602
     15          1           0       -0.796288   -1.460540   -1.403108
     16          1           0       -0.541040   -0.922515    1.589111
     17          1           0        1.773129   -1.082036    1.348041
     18          1           0        1.553779   -1.594754   -0.331361
     19          1           0        4.788263    1.081915   -0.653405
 ---------------------------------------------------------------------

 SCF Done:  E(RB3LYP) =  -423.112435797     A.U. after    1 cycles

 The electronic state is 1-A.
 Alpha  occ. eigenvalues --  -19.15751 -19.12985 -10.26381 -10.24182 -10.23439
 Alpha  occ. eigenvalues --  -10.22900 -10.18939 -10.18313 -10.17112  -1.05914
 Alpha  occ. eigenvalues --   -1.02839  -0.78874  -0.75052  -0.72630  -0.68759
 Alpha  occ. eigenvalues --   -0.64347  -0.55397  -0.54334  -0.52086  -0.50125
 Alpha  occ. eigenvalues --   -0.48903  -0.46309  -0.45058  -0.42846  -0.41178
 Alpha  occ. eigenvalues --   -0.38343  -0.37676  -0.35297  -0.33423  -0.30623
 Alpha  occ. eigenvalues --   -0.28188  -0.27760  -0.25998  -0.24855
 Alpha virt. eigenvalues --    0.02595   0.04809   0.08262   0.09321   0.10846
 Alpha virt. eigenvalues --    0.12292   0.13069   0.13750   0.14723   0.15628
 Alpha virt. eigenvalues --    0.17376   0.18087   0.19301   0.19843   0.20305

 Mulliken charges:
               1
     1  C   -0.389818
     2  C    0.115271
     3  O   -0.291052
     4  C   -0.099113
     5  C    0.081196
     6  O   -0.249153
     7  C   -0.215508
     8  C    0.278048
     9  C   -0.410814
    10  H    0.120370
    11  H    0.134019
    12  H    0.122617
    13  H    0.076285
    14  H    0.099107
    15  H    0.105207
    16  H    0.073282
    17  H    0.121942
    18  H    0.124858
    19  H    0.203255
 Sum of Mulliken charges =   0.00000

 Dipole moment (field-independent basis, Debye):
    X=              1.2668    Y=             -0.8631    Z=              1.1667  Tot=              1.9263
 Quadrupole moment (field-independent basis, Debye-Ang):
   XX=            -54.2183   YY=            -50.2838   ZZ=            -52.8467
   XY=             -0.5026   XZ=             -3.8524   YZ=             -0.9060

  Exact polarizability:  98.040   6.778  75.194  -6.396  -1.565  61.933
 Approx polarizability: 130.426  16.031 106.286 -10.603  -3.868  93.691

                      1                      2                      3
                      A                      A                      A
 Frequencies --     42.1200                73.4667                93.6085
 Red. masses --      3.8044                 3.1186                 3.2007
 Frc consts  --      0.0040                 0.0099                 0.0165
 IR Inten    --      1.8000                 2.7988                 0.6332

                      4                      5                      6
                      A                      A                      A
 Frequencies --    103.0847               199.5690               218.3156
 Red. masses --      3.3144                 1.4947                 1.8996
 Frc consts  --      0.0208                 0.0351                 0.0533
 IR Inten    --      2.2118                 0.4986                 2.3878

                      7                      8                      9
                      A                      A                      A
 Frequencies --    287.5444               332.0354               389.8127
 Red. masses --      3.7218                 3.4431                 3.3492
 Frc consts  --      0.1813                 0.2237                 0.2999
 IR Inten    --      1.9964                 2.6623                 2.3790

                     10                     11                     12
                      A                      A                      A
 Frequencies --    424.2481               464.9173               585.6549
 Red. masses --      3.1527                 3.6859                 4.5525
 Frc consts  --      0.3343                 0.4694                 0.9200
 IR Inten    --      3.1475                 2.6276                 1.1751

                     13                     14                     15
                      A                      A                      A
 Frequencies --    612.5162               679.0024               756.7334
 Red. masses --      1.1948                 1.2401                 2.3611
 Frc consts  --      0.2641                 0.3369                 0.7966
 IR Inten    --     43.3966                34.2696                 0.5275

                     16                     17                     18
                      A                      A                      A
 Frequencies --    849.8725               875.5926               909.2059
 Red. masses --      2.8730                 3.0232                 2.0353
 Frc consts  --      1.2226                 1.3656                 0.9913
 IR Inten    --      4.5214                16.6392                 1.8989

                     19                     20                     21
                      A                      A                      A
 Frequencies --    979.3539              1002.9527              1026.7018
 Red. masses --      2.5810                 1.9854                 2.9500
 Frc consts  --      1.4586                 1.1767                 1.8322
 IR Inten    --      6.1732                 0.9896                60.4543

                     22                     23                     24
                      A                      A                      A
 Frequencies --   1033.1493              1053.0259              1086.7378
 Red. masses --      2.1760                 3.1062                 3.3308
 Frc consts  --      1.3685                 2.0293                 2.3176
 IR Inten    --     43.0006                 2.0518                95.6559

                     25                     26                     27
                      A                      A                      A
 Frequencies --   1098.7169              1157.0325              1165.4903
 Red. masses --      2.3282                 1.8494                 1.6626
 Frc consts  --      1.6560                 1.4587                 1.3306
 IR Inten    --     63.2897                 0.3670                47.9031

                     28                     29                     30
                      A                      A                      A
 Frequencies --   1199.4921              1252.7268              1269.7863
 Red. masses --      2.3502                 1.0911                 1.5119
 Frc consts  --      1.9923                 1.0089                 1.4363
 IR Inten    --    114.5191                 2.7430                 0.5519

                     31                     32                     33
                      A                      A                      A
 Frequencies --   1292.9912              1347.1178              1376.2691
 Red. masses --      1.2971                 1.3014                 1.3077
 Frc consts  --      1.2777                 1.3915                 1.4594
 IR Inten    --      2.6793                32.1765                55.5114

                     34                     35                     36
                      A                      A                      A
 Frequencies --   1381.4612              1404.5078              1435.5469
 Red. masses --      1.3556                 1.3391                 1.4314
 Frc consts  --      1.5243                 1.5563                 1.7380
 IR Inten    --     11.0144                12.6572                15.7559

                     37                     38                     39
                      A                      A                      A
 Frequencies --   1483.0836              1488.6020              1500.5625
 Red. masses --      1.0498                 1.0654                 1.0789
 Frc consts  --      1.3605                 1.3910                 1.4313
 IR Inten    --      3.3329                 5.2009                 1.1928

                     40                     41                     42
                      A                      A                      A
 Frequencies --   1512.6341              2249.6033              2958.3432
 Red. masses --      1.1046                 5.8900                 1.0567
 Frc consts  --      1.4890                17.5620                 5.4489
 IR Inten    --      0.9433                 2.6677                29.7439

                     43                     44                     45
                      A                      A                      A
 Frequencies --   2981.1584              2995.9062              3006.3138
 Red. masses --      1.1001                 1.0850                 1.0613
 Frc consts  --      5.7602                 5.7378                 5.6512
 IR Inten    --     27.9019                13.4642                95.2799

                     46                     47                     48
                      A                      A                      A
 Frequencies --   3017.1179              3045.7596              3056.4897
 Red. masses --      1.0794                 1.0363                 1.1104
 Frc consts  --      5.7892                 5.6639                 6.1117
 IR Inten    --     44.8041                12.5740                57.5437

                     49                     50                     51
                      A                      A                      A
 Frequencies --   3113.8008              3140.6810              3505.9064
 Red. masses --      1.1012                 1.1012                 1.1642
 Frc consts  --      6.2908                 6.3995                 8.4307
 IR Inten    --     18.0587                18.0046                62.5653

 - Thermochemistry -
 -------------------
 Temperature   298.150 Kelvin.  Pressure   1.00000 Atm.
 Atom     1 has atomic number  6 and mass  12.00000

 Molecular mass:   126.06808 amu.
 Principal axes and moments of inertia in atomic units:
                           1         2         3
     Eigenvalues --   493.507022128.891382424.42158
           X            0.99991  -0.01250  -0.00491
           Y            0.01242   0.99979  -0.01618
           Z            0.00511   0.01612   0.99986
 This molecule is an asymmetric top.
 Rotational symmetry number  1.
 Warning -- assumption of classical behavior for rotation
           may cause significant error
 Rotational temperatures (Kelvin)      0.17551     0.04068     0.03573
 Rotational constants (GHZ):           3.65697     0.84774     0.74440
 Zero-point vibrational energy     409818.6 (Joules/Mol)
                                   97.94900 (Kcal/Mol)
 Warning -- explicit consideration of  13 degrees of freedom as
           vibrations may cause significant error
 Vibrational temperatures:     60.60   105.70   134.68   148.32   287.13
          (Kelvin)            314.11   413.71   477.72   560.85   610.40
                              668.91   842.63   881.27   976.93  1088.77
                             1222.78  1259.78  1308.14  1409.07  1443.02
                             1477.19  1486.47  1515.07  1563.57  1580.81
                             1664.71  1676.88  1725.80  1802.39  1826.94
                             1860.32  1938.20  1980.14  1987.61  2020.77
                             2065.43  2133.82  2141.76  2158.97  2176.34
                             3236.67  4256.39  4289.22  4310.44  4325.41
                             4340.95  4382.16  4397.60  4480.06  4518.73
                             5044.21

 Zero-point correction=                           0.156092 (Hartree/Particle)
 Thermal correction to Energy=                    0.165894
 Thermal correction to Enthalpy=                  0.166838
 Thermal correction to Gibbs Free Energy=         0.120142
 Sum of electronic and zero-point Energies=           -422.956344
 Sum of electronic and thermal Energies=              -422.946542
 Sum of electronic and thermal Enthalpies=            -422.945597
 Sum of electronic and thermal Free Energies=         -422.992294

                     E (Thermal)             CV                S
                      KCal/Mol        Cal/Mol-Kelvin    Cal/Mol-Kelvin
 Total                  104.100             34.644             98.281
 Electronic               0.000              0.000              0.000
 Translational            0.889              2.981             40.409
 Rotational               0.889              2.981             29.323
 Vibrational            102.323             28.682             28.550
 Vibration     1          0.595              1.980              5.157
 Vibration     2          0.599              1.967              4.058
 Vibration     3          0.603              1.954              3.583
 Vibration     4          0.605              1.947              3.395
 Vibration     5          0.638              1.840              2.137
 Vibration     6          0.646              1.813              1.973
 Vibration     7          0.685              1.697              1.488
 Vibration     8          0.714              1.612              1.250
 Vibration     9          0.758              1.492              1.001
 Vibration    10          0.786              1.418              0.878
 Vibration    11          0.822              1.328              0.752
 Vibration    12          0.943              1.062              0.475
 Vibration    13          0.972              1.005              0.429

 Normal termination of Gaussian 09 at Tue Jan 28 04:40:47 2020.
