 Gaussian 09, Revision D.01,
 Gaussian 09:  ES64L-G09RevD.01 24-Apr-2013

 -----------------------------
 # b3lyp 6-31G(2df,p) opt Freq
 -----------------------------

 -----
 titel
 -----
 Symbolic Z-matrix:
 Charge =  0 Multiplicity = 1

 SCF Done:  E(RB3LYP) =  -423.130089972     A.U. after   14 cycles
 Optimization completed.
    -- Stationary point found.
 Normal termination of Gaussian 09 at Tue Jan 28 10:18:12 2020.

 ----------------------------------------------------------------------
 #N Geom=AllCheck Guess=TCheck SCRF=Check GenChk RB3LYP/6-31G(2df,p) Fr
 eq
 ----------------------------------------------------------------------

 Structure from the checkpoint file:  "/scratch/puck/g09_cc8de42c-4097-4fb9-8108-904d439b4a95/Gau-805.chk"
 -----
 titel
 -----
 Charge =  0 Multiplicity = 1

                         Standard orientation:
 ---------------------------------------------------------------------
 Center     Atomic      Atomic             Coordinates (Angstroms)
 Number     Number       Type             X           Y           Z
 ---------------------------------------------------------------------
      1          8           0        2.635717   -0.634016   -0.339851
      2          6           0        1.624274   -0.703371    0.648273
      3          6           0        0.420455    0.088601    0.233670
      4          8           0        0.666262    1.524469   -0.035483
      5          6           0       -0.761034    1.308544   -0.315962
      6          6           0       -0.921393    0.423905    0.956110
      7          6           0       -1.939087   -0.678438    0.686324
      8          6           0       -1.593196   -1.018798   -0.799129
      9          6           0       -0.463137   -0.027757   -1.049727
     10          1           0        2.715238    0.297497   -0.578731
     11          1           0        1.359199   -1.759721    0.768584
     12          1           0        1.980727   -0.333340    1.623253
     13          1           0       -1.347715    2.168055   -0.641787
     14          1           0       -0.874025    0.909852    1.930263
     15          1           0       -1.810613   -1.534785    1.355228
     16          1           0       -2.967627   -0.324723    0.806454
     17          1           0       -1.266381   -2.055298   -0.926827
     18          1           0       -2.440116   -0.860342   -1.473611
     19          1           0        0.034187    0.013067   -2.017511
 ---------------------------------------------------------------------

 SCF Done:  E(RB3LYP) =  -423.130089972     A.U. after    1 cycles

 The electronic state is 1-A.
 Alpha  occ. eigenvalues --  -19.13363 -19.13068 -10.24517 -10.24496 -10.23133
 Alpha  occ. eigenvalues --  -10.19791 -10.19460 -10.18930 -10.18820  -1.05841
 Alpha  occ. eigenvalues --   -1.01438  -0.85072  -0.72635  -0.70806  -0.70436
 Alpha  occ. eigenvalues --   -0.61679  -0.58184  -0.52514  -0.52066  -0.47962
 Alpha  occ. eigenvalues --   -0.47507  -0.46501  -0.43555  -0.39813  -0.38762
 Alpha  occ. eigenvalues --   -0.38029  -0.35770  -0.35035  -0.34832  -0.32902
 Alpha  occ. eigenvalues --   -0.31033  -0.29473  -0.26511  -0.23385
 Alpha virt. eigenvalues --    0.06978   0.09027   0.11321   0.12025   0.12465
 Alpha virt. eigenvalues --    0.13450   0.13958   0.14372   0.14985   0.16423
 Alpha virt. eigenvalues --    0.17702   0.18077   0.18281   0.18811   0.20669

 Mulliken charges:
               1
     1  O   -0.416040
     2  C   -0.199817
     3  C    0.407410
     4  O   -0.367607
     5  C    0.044763
     6  C   -0.087817
     7  C   -0.249369
     8  C   -0.250545
     9  C   -0.061168
    10  H    0.295659
    11  H    0.113731
    12  H    0.098715
    13  H    0.089787
    14  H    0.077668
    15  H    0.105352
    16  H    0.105239
    17  H    0.108186
    18  H    0.104731
    19  H    0.081122
 Sum of Mulliken charges =   0.00000

 Dipole moment (field-independent basis, Debye):
    X=             -2.2415    Y=             -0.3269    Z=              0.4077  Tot=              2.3016
 Quadrupole moment (field-independent basis, Debye-Ang):
   XX=            -55.4839   YY=            -54.6819   ZZ=            -51.5722
   XY=              0.9780   XZ=              1.2273   YZ=             -1.7423

  Exact polarizability:  80.306   0.343  71.823   0.036  -0.965  70.358
 Approx polarizability: 111.872   0.296 110.884  -0.993  -1.854 105.655

                      1                      2                      3
                      A                      A                      A
 Frequencies --     85.0666               150.3823               213.3542
 Red. masses --      4.1366                 3.2903                 1.9471
 Frc consts  --      0.0176                 0.0438                 0.0522
 IR Inten    --      5.1802                 0.6950                 0.8410

                      4                      5                      6
                      A                      A                      A
 Frequencies --    243.1976               350.4821               420.8031
 Red. masses --      2.3281                 1.8961                 1.4044
 Frc consts  --      0.0811                 0.1372                 0.1465
 IR Inten    --      1.3979                31.7996                98.0084

                      7                      8                      9
                      A                      A                      A
 Frequencies --    455.2195               513.8101               655.9288
 Red. masses --      3.3492                 4.5049                 3.8287
 Frc consts  --      0.4089                 0.7007                 0.9705
 IR Inten    --      7.3002                 3.2863                 8.4705

                     10                     11                     12
                      A                      A                      A
 Frequencies --    677.8601               723.5262               750.9955
 Red. masses --      4.2365                 4.4540                 3.9013
 Frc consts  --      1.1469                 1.3738                 1.2964
 IR Inten    --      6.7952                 2.7318                19.0974

                     13                     14                     15
                      A                      A                      A
 Frequencies --    790.7295               835.1935               883.3496
 Red. masses --      3.4814                 1.2587                 2.6263
 Frc consts  --      1.2825                 0.5173                 1.2074
 IR Inten    --      2.9169                 0.5517                20.7466

                     16                     17                     18
                      A                      A                      A
 Frequencies --    913.7116               927.0514               940.3561
 Red. masses --      3.0154                 3.4217                 1.8634
 Frc consts  --      1.4833                 1.7326                 0.9708
 IR Inten    --      3.8774                13.8842                13.7384

                     19                     20                     21
                      A                      A                      A
 Frequencies --    969.2741               998.0406              1031.3184
 Red. masses --      1.3230                 3.0137                 1.6023
 Frc consts  --      0.7323                 1.7687                 1.0041
 IR Inten    --      0.3313                 9.4483                 2.8949

                     22                     23                     24
                      A                      A                      A
 Frequencies --   1039.0216              1065.8940              1076.4508
 Red. masses --      1.9208                 2.6825                 2.6232
 Frc consts  --      1.2218                 1.7957                 1.7909
 IR Inten    --      9.3898                55.6212                28.7429

                     25                     26                     27
                      A                      A                      A
 Frequencies --   1109.5526              1138.1091              1200.1945
 Red. masses --      1.3085                 1.8111                 1.6941
 Frc consts  --      0.9491                 1.3822                 1.4378
 IR Inten    --      5.0007                 0.1449                 1.8548

                     28                     29                     30
                      A                      A                      A
 Frequencies --   1205.0537              1223.5233              1243.4537
 Red. masses --      1.3751                 1.4563                 1.6175
 Frc consts  --      1.1765                 1.2845                 1.4735
 IR Inten    --      7.7713                 6.5740                21.6250

                     31                     32                     33
                      A                      A                      A
 Frequencies --   1251.1839              1261.2275              1270.7836
 Red. masses --      1.1392                 1.7160                 1.9488
 Frc consts  --      1.0507                 1.6082                 1.8542
 IR Inten    --      0.1497                 5.6745                 0.1033

                     34                     35                     36
                      A                      A                      A
 Frequencies --   1300.5866              1322.5004              1369.8106
 Red. masses --      2.0303                 1.6093                 1.2821
 Frc consts  --      2.0234                 1.6583                 1.4174
 IR Inten    --     13.0696                 2.0771                 2.4860

                     37                     38                     39
                      A                      A                      A
 Frequencies --   1397.5754              1445.1174              1489.5818
 Red. masses --      1.9509                 1.6021                 1.0826
 Frc consts  --      2.2451                 1.9712                 1.4153
 IR Inten    --     18.3293                52.4475                 0.8287

                     40                     41                     42
                      A                      A                      A
 Frequencies --   1493.5963              1511.4766              2977.5731
 Red. masses --      1.0886                 1.1019                 1.0694
 Frc consts  --      1.4309                 1.4831                 5.5864
 IR Inten    --      0.8828                 3.1362                50.0242

                     43                     44                     45
                      A                      A                      A
 Frequencies --   3047.2707              3056.7563              3068.4859
 Red. masses --      1.0587                 1.0604                 1.0919
 Frc consts  --      5.7922                 5.8374                 6.0571
 IR Inten    --     29.2460                40.9784                24.4363

                     46                     47                     48
                      A                      A                      A
 Frequencies --   3080.0162              3099.6604              3110.4185
 Red. masses --      1.1063                 1.1053                 1.0901
 Frc consts  --      6.1834                 6.2570                 6.2140
 IR Inten    --      0.0913                37.0399                49.6638

                     49                     50                     51
                      A                      A                      A
 Frequencies --   3131.0609              3141.3880              3789.6292
 Red. masses --      1.0895                 1.0916                 1.0658
 Frc consts  --      6.2932                 6.3466                 9.0185
 IR Inten    --     39.7631                16.0363                27.1976

 - Thermochemistry -
 -------------------
 Temperature   298.150 Kelvin.  Pressure   1.00000 Atm.
 Atom     1 has atomic number  8 and mass  15.99491

 Molecular mass:   126.06808 amu.
 Principal axes and moments of inertia in atomic units:
                           1         2         3
     Eigenvalues --   607.956621237.289861390.59842
           X            0.99986   0.01487   0.00738
           Y           -0.01471   0.99968  -0.02077
           Z           -0.00769   0.02066   0.99976
 This molecule is an asymmetric top.
 Rotational symmetry number  1.
 Warning -- assumption of classical behavior for rotation
           may cause significant error
 Rotational temperatures (Kelvin)      0.14247     0.07000     0.06229
 Rotational constants (GHZ):           2.96854     1.45862     1.29782
 Zero-point vibrational energy     421364.3 (Joules/Mol)
                                  100.70847 (Kcal/Mol)
 Warning -- explicit consideration of   8 degrees of freedom as
           vibrations may cause significant error
 Vibrational temperatures:    122.39   216.37   306.97   349.91   504.26
          (Kelvin)            605.44   654.96   739.26   943.73   975.29
                             1040.99  1080.51  1137.68  1201.66  1270.94
                             1314.63  1333.82  1352.96  1394.57  1435.96
                             1483.84  1494.92  1533.58  1548.77  1596.40
                             1637.48  1726.81  1733.80  1760.37  1789.05
                             1800.17  1814.62  1828.37  1871.25  1902.78
                             1970.85  2010.80  2079.20  2143.17  2148.95
                             2174.67  4284.06  4384.34  4397.99  4414.86
                             4431.45  4459.71  4475.19  4504.89  4519.75
                             5452.42

 Zero-point correction=                           0.160489 (Hartree/Particle)
 Thermal correction to Energy=                    0.168097
 Thermal correction to Enthalpy=                  0.169041
 Thermal correction to Gibbs Free Energy=         0.128326
 Sum of electronic and zero-point Energies=           -422.969601
 Sum of electronic and thermal Energies=              -422.961993
 Sum of electronic and thermal Enthalpies=            -422.961049
 Sum of electronic and thermal Free Energies=         -423.001764

                     E (Thermal)             CV                S
                      KCal/Mol        Cal/Mol-Kelvin    Cal/Mol-Kelvin
 Total                  105.483             30.181             85.692
 Electronic               0.000              0.000              0.000
 Translational            0.889              2.981             40.409
 Rotational               0.889              2.981             28.438
 Vibrational            103.705             24.220             16.845
 Vibration     1          0.601              1.960              3.770
 Vibration     2          0.618              1.902              2.667
 Vibration     3          0.644              1.821              2.015
 Vibration     4          0.659              1.774              1.779
 Vibration     5          0.727              1.574              1.164
 Vibration     6          0.783              1.425              0.889
 Vibration     7          0.814              1.349              0.780
 Vibration     8          0.869              1.219              0.624

 Optimization completed.
    -- Stationary point found.
 Normal termination of Gaussian 09 at Tue Jan 28 12:29:50 2020.
