 Gaussian 09, Revision D.01,
 Gaussian 09:  ES64L-G09RevD.01 24-Apr-2013

 -----------------------------
 # b3lyp 6-31G(2df,p) opt Freq
 -----------------------------

 -----
 titel
 -----
 Symbolic Z-matrix:
 Charge =  0 Multiplicity = 1

 SCF Done:  E(RB3LYP) =  -423.207102201     A.U. after   14 cycles
 Optimization completed.
    -- Stationary point found.
 Normal termination of Gaussian 09 at Tue Jan 28 03:04:57 2020.

 ----------------------------------------------------------------------
 #N Geom=AllCheck Guess=TCheck SCRF=Check GenChk RB3LYP/6-31G(2df,p) Fr
 eq
 ----------------------------------------------------------------------

 Structure from the checkpoint file:  "/scratch/puck/g09_6e1fe398-bca1-44eb-b56a-0cd7588fc75a/Gau-196398.chk"
 -----
 titel
 -----
 Charge =  0 Multiplicity = 1

                         Standard orientation:
 ---------------------------------------------------------------------
 Center     Atomic      Atomic             Coordinates (Angstroms)
 Number     Number       Type             X           Y           Z
 ---------------------------------------------------------------------
      1          8           0       -2.746396   -0.532672   -0.584305
      2          6           0       -1.378440   -0.229450   -0.408666
      3          6           0       -1.082904    1.228518    0.007882
      4          6           0        0.351575    1.212479    0.551941
      5          6           0        1.493626    1.139669   -0.510694
      6          6           0        1.705653   -0.335437   -0.131886
      7          8           0        2.419894   -1.204237   -0.541241
      8          6           0        0.626215   -0.286332    0.967020
      9          6           0       -0.654487   -1.076701    0.659703
     10          1           0       -3.195822   -0.365957    0.251835
     11          1           0       -0.928462   -0.428680   -1.389017
     12          1           0       -1.233033    1.937012   -0.811731
     13          1           0       -1.781104    1.506399    0.809651
     14          1           0        0.521592    1.964015    1.322971
     15          1           0        1.210274    1.310758   -1.554517
     16          1           0        2.366310    1.762692   -0.290451
     17          1           0        1.024447   -0.475296    1.967016
     18          1           0       -0.456884   -2.099029    0.328028
     19          1           0       -1.282734   -1.133116    1.558779
 ---------------------------------------------------------------------

 SCF Done:  E(RB3LYP) =  -423.207102201     A.U. after    1 cycles

 The electronic state is 1-A.
 Alpha  occ. eigenvalues --  -19.14019 -19.13715 -10.26791 -10.23680 -10.20050
 Alpha  occ. eigenvalues --  -10.19579 -10.19282 -10.19091 -10.18825  -1.04546
 Alpha  occ. eigenvalues --   -1.02376  -0.86964  -0.76707  -0.72859  -0.66254
 Alpha  occ. eigenvalues --   -0.61131  -0.57709  -0.52644  -0.50195  -0.49333
 Alpha  occ. eigenvalues --   -0.45554  -0.45338  -0.43001  -0.42180  -0.40517
 Alpha  occ. eigenvalues --   -0.39466  -0.37215  -0.36673  -0.34281  -0.33310
 Alpha  occ. eigenvalues --   -0.31992  -0.31605  -0.26670  -0.24018
 Alpha virt. eigenvalues --   -0.02375   0.07140   0.08186   0.09257   0.11854
 Alpha virt. eigenvalues --    0.12503   0.14463   0.15292   0.15943   0.17678
 Alpha virt. eigenvalues --    0.18020   0.18516   0.19562   0.20807   0.23596

 Mulliken charges:
               1
     1  O   -0.432495
     2  C    0.136798
     3  C   -0.245144
     4  C   -0.029050
     5  C   -0.362113
     6  C    0.408593
     7  O   -0.298436
     8  C   -0.150043
     9  C   -0.249737
    10  H    0.275261
    11  H    0.101228
    12  H    0.107550
    13  H    0.087315
    14  H    0.076973
    15  H    0.129390
    16  H    0.131806
    17  H    0.096344
    18  H    0.125236
    19  H    0.090525
 Sum of Mulliken charges =   0.00000

 Dipole moment (field-independent basis, Debye):
    X=             -1.2170    Y=              2.3480    Z=              2.1927  Tot=              3.4354
 Quadrupole moment (field-independent basis, Debye-Ang):
   XX=            -59.4314   YY=            -54.8986   ZZ=            -51.9330
   XY=              3.8976   XZ=             -2.4332   YZ=             -2.0817

  Exact polarizability:  82.713  -0.571  74.219  -4.539  -1.503  66.724
 Approx polarizability: 113.534  -5.387 110.833  -8.191   1.517 104.752

                      1                      2                      3
                      A                      A                      A
 Frequencies --     63.1507               128.5172               206.7896
 Red. masses --      4.8301                 3.2377                 2.7849
 Frc consts  --      0.0113                 0.0315                 0.0702
 IR Inten    --      3.5225                 1.0699                 3.7867

                      4                      5                      6
                      A                      A                      A
 Frequencies --    284.5549               328.3949               370.6391
 Red. masses --      1.2329                 2.1085                 3.5620
 Frc consts  --      0.0588                 0.1340                 0.2883
 IR Inten    --     52.7037                23.9094                21.0197

                      7                      8                      9
                      A                      A                      A
 Frequencies --    427.7802               457.6440               506.0768
 Red. masses --      3.7479                 1.8188                 2.3763
 Frc consts  --      0.4041                 0.2244                 0.3586
 IR Inten    --      2.5024                 2.8675                 1.5418

                     10                     11                     12
                      A                      A                      A
 Frequencies --    565.3662               574.4704               711.3541
 Red. masses --      4.1725                 3.6652                 3.2611
 Frc consts  --      0.7858                 0.7127                 0.9723
 IR Inten    --      0.7158                 1.1504                 0.8008

                     13                     14                     15
                      A                      A                      A
 Frequencies --    754.5969               829.7626               853.1647
 Red. masses --      2.4755                 2.3170                 2.7538
 Frc consts  --      0.8305                 0.9399                 1.1810
 IR Inten    --      1.2777                 0.4678                 0.3079

                     16                     17                     18
                      A                      A                      A
 Frequencies --    858.9757               877.4771               951.2942
 Red. masses --      2.0709                 3.1225                 1.7885
 Frc consts  --      0.9003                 1.4165                 0.9536
 IR Inten    --      1.6036                10.2147                 2.7665

                     19                     20                     21
                      A                      A                      A
 Frequencies --    977.8549               999.1128              1046.4279
 Red. masses --      1.3301                 1.8242                 1.9717
 Frc consts  --      0.7494                 1.0729                 1.2721
 IR Inten    --      9.8787                 9.9624                11.1000

                     22                     23                     24
                      A                      A                      A
 Frequencies --   1070.5906              1099.4505              1106.2137
 Red. masses --      2.8682                 2.3136                 3.2865
 Frc consts  --      1.9369                 1.6478                 2.3695
 IR Inten    --     26.1377                 8.1315               138.0083

                     25                     26                     27
                      A                      A                      A
 Frequencies --   1120.0677              1142.3326              1152.8828
 Red. masses --      1.4854                 1.3036                 2.0027
 Frc consts  --      1.0980                 1.0023                 1.5684
 IR Inten    --      1.1182                10.1292                20.3184

                     28                     29                     30
                      A                      A                      A
 Frequencies --   1198.1242              1222.1651              1248.3318
 Red. masses --      1.2878                 1.6840                 1.6641
 Frc consts  --      1.0892                 1.4820                 1.5279
 IR Inten    --      0.8530                 4.4449                 2.3138

                     31                     32                     33
                      A                      A                      A
 Frequencies --   1260.7894              1291.0839              1306.9874
 Red. masses --      1.5167                 1.5544                 1.5109
 Frc consts  --      1.4205                 1.5266                 1.5207
 IR Inten    --      4.1334                 3.1375                16.0955

                     34                     35                     36
                      A                      A                      A
 Frequencies --   1328.7827              1348.4111              1362.4206
 Red. masses --      1.3734                 1.3972                 1.4444
 Frc consts  --      1.4287                 1.4968                 1.5797
 IR Inten    --      2.1529                 3.0141                 9.3451

                     37                     38                     39
                      A                      A                      A
 Frequencies --   1433.6457              1443.7153              1478.1483
 Red. masses --      1.1106                 1.2178                 1.0908
 Frc consts  --      1.3449                 1.4955                 1.4042
 IR Inten    --      9.0502                54.0962                 4.1806

                     40                     41                     42
                      A                      A                      A
 Frequencies --   1492.1480              1887.1583              3013.0325
 Red. masses --      1.0984                12.7653                 1.0688
 Frc consts  --      1.4408                26.7853                 5.7167
 IR Inten    --      1.9938               253.0930                19.4347

                     43                     44                     45
                      A                      A                      A
 Frequencies --   3019.3137              3044.1163              3049.4502
 Red. masses --      1.0704                 1.0800                 1.0601
 Frc consts  --      5.7492                 5.8965                 5.8080
 IR Inten    --     23.5442                31.4648                16.5191

                     46                     47                     48
                      A                      A                      A
 Frequencies --   3081.8791              3089.6993              3096.8934
 Red. masses --      1.0863                 1.0960                 1.1001
 Frc consts  --      6.0791                 6.1644                 6.2161
 IR Inten    --     15.9175                22.7104                 4.1243

                     49                     50                     51
                      A                      A                      A
 Frequencies --   3104.6303              3109.1808              3796.3573
 Red. masses --      1.0961                 1.0925                 1.0657
 Frc consts  --      6.2249                 6.2227                 9.0495
 IR Inten    --     13.6486                33.7491                13.1605

 - Thermochemistry -
 -------------------
 Temperature   298.150 Kelvin.  Pressure   1.00000 Atm.
 Atom     1 has atomic number  8 and mass  15.99491

 Molecular mass:   126.06808 amu.
 Principal axes and moments of inertia in atomic units:
                           1         2         3
     Eigenvalues --   594.341571428.011761669.04894
           X            0.99975   0.02117  -0.00747
           Y           -0.02149   0.99869  -0.04635
           Z            0.00648   0.04650   0.99890
 This molecule is an asymmetric top.
 Rotational symmetry number  1.
 Warning -- assumption of classical behavior for rotation
           may cause significant error
 Rotational temperatures (Kelvin)      0.14573     0.06065     0.05189
 Rotational constants (GHZ):           3.03654     1.26381     1.08130
 Zero-point vibrational energy     419718.2 (Joules/Mol)
                                  100.31506 (Kcal/Mol)
 Warning -- explicit consideration of  11 degrees of freedom as
           vibrations may cause significant error
 Vibrational temperatures:     90.86   184.91   297.52   409.41   472.49
          (Kelvin)            533.27   615.48   658.45   728.13   813.43
                              826.53  1023.48  1085.70  1193.84  1227.51
                             1235.87  1262.49  1368.70  1406.91  1437.50
                             1505.57  1540.34  1581.86  1591.59  1611.53
                             1643.56  1658.74  1723.83  1758.42  1796.07
                             1813.99  1857.58  1880.46  1911.82  1940.06
                             1960.22  2062.69  2077.18  2126.72  2146.87
                             2715.20  4335.08  4344.11  4379.80  4387.47
                             4434.13  4445.38  4455.73  4466.86  4473.41
                             5462.10

 Zero-point correction=                           0.159862 (Hartree/Particle)
 Thermal correction to Energy=                    0.167898
 Thermal correction to Enthalpy=                  0.168843
 Thermal correction to Gibbs Free Energy=         0.127048
 Sum of electronic and zero-point Energies=           -423.047240
 Sum of electronic and thermal Energies=              -423.039204
 Sum of electronic and thermal Enthalpies=            -423.038260
 Sum of electronic and thermal Free Energies=         -423.080054

                     E (Thermal)             CV                S
                      KCal/Mol        Cal/Mol-Kelvin    Cal/Mol-Kelvin
 Total                  105.358             31.454             87.964
 Electronic               0.000              0.000              0.000
 Translational            0.889              2.981             40.409
 Rotational               0.889              2.981             28.740
 Vibrational            103.580             25.492             18.815
 Vibration     1          0.597              1.972              4.356
 Vibration     2          0.611              1.925              2.968
 Vibration     3          0.641              1.830              2.072
 Vibration     4          0.683              1.702              1.506
 Vibration     5          0.712              1.619              1.268
 Vibration     6          0.743              1.533              1.077
 Vibration     7          0.789              1.410              0.866
 Vibration     8          0.816              1.344              0.773
 Vibration     9          0.861              1.237              0.643
 Vibration    10          0.921              1.106              0.513
 Vibration    11          0.931              1.086              0.496

 Optimization completed.
    -- Stationary point found.
 Normal termination of Gaussian 09 at Tue Jan 28 03:48:23 2020.
