 Gaussian 09, Revision D.01,
 Gaussian 09:  ES64L-G09RevD.01 24-Apr-2013

 -----------------------------
 # b3lyp 6-31G(2df,p) opt Freq
 -----------------------------

 -----
 titel
 -----
 Symbolic Z-matrix:
 Charge =  0 Multiplicity = 1

 SCF Done:  E(RB3LYP) =  -423.118467093     A.U. after   13 cycles
 Optimization completed.
    -- Stationary point found.
 Normal termination of Gaussian 09 at Tue Jan 28 03:59:46 2020.

 ----------------------------------------------------------------------
 #N Geom=AllCheck Guess=TCheck SCRF=Check GenChk RB3LYP/6-31G(2df,p) Fr
 eq
 ----------------------------------------------------------------------

 Structure from the checkpoint file:  "/scratch/puck/g09_36fd0aa0-1997-4aef-a0d7-c6d5cbd5c889/Gau-68061.chk"
 -----
 titel
 -----
 Charge =  0 Multiplicity = 1

                         Standard orientation:
 ---------------------------------------------------------------------
 Center     Atomic      Atomic             Coordinates (Angstroms)
 Number     Number       Type             X           Y           Z
 ---------------------------------------------------------------------
      1          8           0       -2.060499   -1.458849   -0.113565
      2          6           0       -1.556864   -0.266116    0.437148
      3          6           0       -1.931110    1.100698   -0.206027
      4          6           0       -0.457410    1.571705   -0.019053
      5          6           0       -0.077391    0.109339    0.235359
      6          6           0        1.108604   -0.538553    0.901008
      7          6           0        2.383601    0.162494    0.437349
      8          8           0        2.012488    0.007726   -0.962543
      9          6           0        0.852465   -0.733498   -0.578361
     10          1           0       -1.939565   -1.415285   -1.068305
     11          1           0       -1.822489   -0.302475    1.499025
     12          1           0       -2.186122    0.975240   -1.263506
     13          1           0       -2.719952    1.681003    0.276634
     14          1           0        0.025584    2.050313   -0.872930
     15          1           0       -0.326580    2.205966    0.862838
     16          1           0        1.020823   -1.230959    1.728376
     17          1           0        2.521140    1.213409    0.718008
     18          1           0        3.298149   -0.401522    0.650922
     19          1           0        0.581735   -1.603115   -1.166739
 ---------------------------------------------------------------------

 SCF Done:  E(RB3LYP) =  -423.118467093     A.U. after    1 cycles

 The electronic state is 1-A.
 Alpha  occ. eigenvalues --  -19.14142 -19.13831 -10.23875 -10.23578 -10.23576
 Alpha  occ. eigenvalues --  -10.19387 -10.19358 -10.18469 -10.18389  -1.05077
 Alpha  occ. eigenvalues --   -1.02411  -0.85723  -0.79116  -0.69813  -0.65632
 Alpha  occ. eigenvalues --   -0.62104  -0.55802  -0.55075  -0.52907  -0.48918
 Alpha  occ. eigenvalues --   -0.47455  -0.46061  -0.42064  -0.40853  -0.40438
 Alpha  occ. eigenvalues --   -0.38635  -0.37054  -0.35928  -0.33099  -0.31853
 Alpha  occ. eigenvalues --   -0.30352  -0.27184  -0.25723  -0.23329
 Alpha virt. eigenvalues --    0.06829   0.07601   0.08710   0.10490   0.11189
 Alpha virt. eigenvalues --    0.13104   0.13731   0.15482   0.16856   0.17209
 Alpha virt. eigenvalues --    0.18404   0.19147   0.19500   0.20785   0.22018

 Mulliken charges:
               1
     1  O   -0.427779
     2  C    0.067539
     3  C   -0.257170
     4  C   -0.311164
     5  C    0.295515
     6  C   -0.233697
     7  C   -0.091682
     8  O   -0.290017
     9  C    0.031285
    10  H    0.278561
    11  H    0.093296
    12  H    0.097603
    13  H    0.104273
    14  H    0.117914
    15  H    0.104046
    16  H    0.101142
    17  H    0.106659
    18  H    0.111289
    19  H    0.102389
 Sum of Mulliken charges =   0.00000

 Dipole moment (field-independent basis, Debye):
    X=             -0.1181    Y=              0.5222    Z=              0.5339  Tot=              0.7561
 Quadrupole moment (field-independent basis, Debye-Ang):
   XX=            -55.9019   YY=            -54.0582   ZZ=            -51.1724
   XY=             -2.9476   XZ=              5.5965   YZ=              2.3268

  Exact polarizability:  87.610  -1.978  71.656   3.009   1.660  66.665
 Approx polarizability: 113.936   0.295 103.798   1.495   3.469 108.854

                      1                      2                      3
                      A                      A                      A
 Frequencies --     87.2826               147.7983               157.3970
 Red. masses --      2.5550                 4.3119                 3.3107
 Frc consts  --      0.0115                 0.0555                 0.0483
 IR Inten    --      2.1899                 1.8749                 3.0662

                      4                      5                      6
                      A                      A                      A
 Frequencies --    230.7063               289.4376               353.0206
 Red. masses --      3.1063                 2.9590                 1.1591
 Frc consts  --      0.0974                 0.1460                 0.0851
 IR Inten    --      4.7301                 0.5767               103.7307

                      7                      8                      9
                      A                      A                      A
 Frequencies --    430.9816               478.1458               530.7359
 Red. masses --      2.5561                 2.5258                 3.8348
 Frc consts  --      0.2797                 0.3402                 0.6364
 IR Inten    --      5.5787                 8.8745                 4.5610

                     10                     11                     12
                      A                      A                      A
 Frequencies --    595.4174               702.3855               755.9387
 Red. masses --      3.5030                 2.3587                 2.3047
 Frc consts  --      0.7317                 0.6856                 0.7760
 IR Inten    --      7.0475                 3.0065                 8.6306

                     13                     14                     15
                      A                      A                      A
 Frequencies --    804.1314               831.3302               880.2491
 Red. masses --      1.5593                 1.4379                 2.7339
 Frc consts  --      0.5941                 0.5855                 1.2481
 IR Inten    --      9.1719                 4.6857                 0.6851

                     16                     17                     18
                      A                      A                      A
 Frequencies --    928.3193               935.7383               955.3886
 Red. masses --      2.6818                 3.0328                 2.5618
 Frc consts  --      1.3616                 1.5646                 1.3777
 IR Inten    --      1.0654                26.5067                15.5159

                     19                     20                     21
                      A                      A                      A
 Frequencies --    959.6233               990.0670              1023.9962
 Red. masses --      1.6397                 2.4619                 2.4376
 Frc consts  --      0.8897                 1.4218                 1.5060
 IR Inten    --      6.6815                56.1772                20.7475

                     22                     23                     24
                      A                      A                      A
 Frequencies --   1055.8670              1065.8777              1074.0495
 Red. masses --      1.9367                 3.1645                 2.9824
 Frc consts  --      1.2721                 2.1182                 2.0271
 IR Inten    --      3.4676                30.9615                 5.3070

                     25                     26                     27
                      A                      A                      A
 Frequencies --   1090.9128              1130.3520              1153.7566
 Red. masses --      1.6775                 2.0470                 1.6891
 Frc consts  --      1.1762                 1.5410                 1.3247
 IR Inten    --     21.5638                33.4186                50.8120

                     28                     29                     30
                      A                      A                      A
 Frequencies --   1159.1263              1214.7790              1223.5014
 Red. masses --      1.4680                 1.4950                 1.4368
 Frc consts  --      1.1621                 1.2998                 1.2672
 IR Inten    --     17.6141                 7.7361                14.0947

                     31                     32                     33
                      A                      A                      A
 Frequencies --   1232.2356              1237.3742              1267.6249
 Red. masses --      1.3703                 1.3382                 1.5801
 Frc consts  --      1.2259                 1.2072                 1.4960
 IR Inten    --      2.2513                 3.7445                 8.0393

                     34                     35                     36
                      A                      A                      A
 Frequencies --   1289.6106              1307.7098              1332.6184
 Red. masses --      1.5877                 1.5395                 1.5618
 Frc consts  --      1.5558                 1.5511                 1.6341
 IR Inten    --      1.7851                 1.5373                 0.7823

                     37                     38                     39
                      A                      A                      A
 Frequencies --   1423.1649              1434.6929              1477.6192
 Red. masses --      2.1070                 1.6687                 1.1013
 Frc consts  --      2.5143                 2.0237                 1.4167
 IR Inten    --     52.2073                27.7295                 2.8545

                     40                     41                     42
                      A                      A                      A
 Frequencies --   1494.7783              1513.4970              3024.7112
 Red. masses --      1.1360                 1.1055                 1.0547
 Frc consts  --      1.4955                 1.4920                 5.6851
 IR Inten    --      4.5987                 0.4315                72.5192

                     43                     44                     45
                      A                      A                      A
 Frequencies --   3050.3425              3055.6516              3058.1172
 Red. masses --      1.0700                 1.0709                 1.0677
 Frc consts  --      5.8657                 5.8912                 5.8833
 IR Inten    --     28.1235                26.8349                30.5356

                     46                     47                     48
                      A                      A                      A
 Frequencies --   3074.5482              3109.8795              3122.0919
 Red. masses --      1.1113                 1.1029                 1.1057
 Frc consts  --      6.1892                 6.2847                 6.3500
 IR Inten    --     37.4039                13.4811                38.3998

                     49                     50                     51
                      A                      A                      A
 Frequencies --   3172.0860              3195.1712              3804.9331
 Red. masses --      1.0900                 1.0959                 1.0657
 Frc consts  --      6.4622                 6.5917                 9.0905
 IR Inten    --     17.9551                 9.4852                12.7255

 - Thermochemistry -
 -------------------
 Temperature   298.150 Kelvin.  Pressure   1.00000 Atm.
 Atom     1 has atomic number  8 and mass  15.99491

 Molecular mass:   126.06808 amu.
 Principal axes and moments of inertia in atomic units:
                           1         2         3
     Eigenvalues --   558.809871376.934561604.70037
           X            0.99959  -0.02001   0.02038
           Y            0.01979   0.99975   0.01086
           Z           -0.02059  -0.01046   0.99973
 This molecule is an asymmetric top.
 Rotational symmetry number  1.
 Warning -- assumption of classical behavior for rotation
           may cause significant error
 Rotational temperatures (Kelvin)      0.15500     0.06290     0.05398
 Rotational constants (GHZ):           3.22962     1.31069     1.12466
 Zero-point vibrational energy     418183.2 (Joules/Mol)
                                   99.94818 (Kcal/Mol)
 Warning -- explicit consideration of  10 degrees of freedom as
           vibrations may cause significant error
 Vibrational temperatures:    125.58   212.65   226.46   331.93   416.44
          (Kelvin)            507.92   620.09   687.94   763.61   856.67
                             1010.57  1087.63  1156.96  1196.10  1266.48
                             1335.64  1346.32  1374.59  1380.68  1424.48
                             1473.30  1519.16  1533.56  1545.32  1569.58
                             1626.32  1660.00  1667.72  1747.79  1760.34
                             1772.91  1780.30  1823.83  1855.46  1881.50
                             1917.34  2047.61  2064.20  2125.96  2150.65
                             2177.58  4351.88  4388.76  4396.40  4399.94
                             4423.58  4474.42  4491.99  4563.92  4597.13
                             5474.44

 Zero-point correction=                           0.159278 (Hartree/Particle)
 Thermal correction to Energy=                    0.167309
 Thermal correction to Enthalpy=                  0.168253
 Thermal correction to Gibbs Free Energy=         0.126618
 Sum of electronic and zero-point Energies=           -422.959190
 Sum of electronic and thermal Energies=              -422.951158
 Sum of electronic and thermal Enthalpies=            -422.950214
 Sum of electronic and thermal Free Energies=         -422.991849

                     E (Thermal)             CV                S
                      KCal/Mol        Cal/Mol-Kelvin    Cal/Mol-Kelvin
 Total                  104.988             31.246             87.628
 Electronic               0.000              0.000              0.000
 Translational            0.889              2.981             40.409
 Rotational               0.889              2.981             28.603
 Vibrational            103.211             25.284             18.617
 Vibration     1          0.601              1.958              3.720
 Vibration     2          0.617              1.905              2.700
 Vibration     3          0.621              1.894              2.581
 Vibration     4          0.652              1.794              1.873
 Vibration     5          0.686              1.693              1.477
 Vibration     6          0.729              1.569              1.153
 Vibration     7          0.792              1.403              0.855
 Vibration     8          0.835              1.299              0.715
 Vibration     9          0.886              1.182              0.586
 Vibration    10          0.953              1.042              0.458

 Optimization completed.
    -- Stationary point found.
 Normal termination of Gaussian 09 at Tue Jan 28 04:44:20 2020.
