 Gaussian 09, Revision D.01,
 Gaussian 09:  ES64L-G09RevD.01 24-Apr-2013

 -----------------------------
 # b3lyp 6-31G(2df,p) opt Freq
 -----------------------------

 -----
 titel
 -----
 Symbolic Z-matrix:
 Charge =  0 Multiplicity = 1

 SCF Done:  E(RB3LYP) =  -423.149773140     A.U. after   13 cycles
 Optimization completed.
    -- Stationary point found.
 Normal termination of Gaussian 09 at Mon Jan 27 17:10:13 2020.

 ----------------------------------------------------------------------
 #N Geom=AllCheck Guess=TCheck SCRF=Check GenChk RB3LYP/6-31G(2df,p) Fr
 eq
 ----------------------------------------------------------------------

 Structure from the checkpoint file:  "/scratch/puck/g09_46ce3f1d-4e08-401f-bb20-4955443e65cf/Gau-168072.chk"
 -----
 titel
 -----
 Charge =  0 Multiplicity = 1

                         Standard orientation:
 ---------------------------------------------------------------------
 Center     Atomic      Atomic             Coordinates (Angstroms)
 Number     Number       Type             X           Y           Z
 ---------------------------------------------------------------------
      1          6           0        2.010634   -1.276287   -0.115854
      2          6           0        0.964674   -0.216743    0.070271
      3          6           0        1.210194    1.223259    0.607704
      4          6           0       -0.019902    1.449231   -0.303484
      5          8           0        0.479358    0.394854   -1.174161
      6          6           0       -1.146608    0.736055    0.470776
      7          6           0       -2.064733   -0.201326   -0.341447
      8          8           0       -1.273342   -1.363271    0.009614
      9          6           0       -0.366167   -0.567669    0.785435
     10          1           0        1.580317   -2.129587   -0.649258
     11          1           0        2.858516   -0.895519   -0.691377
     12          1           0        2.375354   -1.627134    0.855148
     13          1           0        1.123074    1.416755    1.681324
     14          1           0        2.120688    1.659366    0.195095
     15          1           0       -0.228187    2.386980   -0.818400
     16          1           0       -1.595627    1.316536    1.276028
     17          1           0       -3.087985   -0.290469    0.041616
     18          1           0       -2.081326   -0.031449   -1.422519
     19          1           0       -0.241504   -0.937265    1.808312
 ---------------------------------------------------------------------

 SCF Done:  E(RB3LYP) =  -423.149773140     A.U. after    1 cycles

 The electronic state is 1-A.
 Alpha  occ. eigenvalues --  -19.13330 -19.12801 -10.24056 -10.24020 -10.22945
 Alpha  occ. eigenvalues --  -10.22504 -10.19195 -10.19103 -10.17921  -1.06108
 Alpha  occ. eigenvalues --   -1.02033  -0.78851  -0.76291  -0.70814  -0.68380
 Alpha  occ. eigenvalues --   -0.63333  -0.55285  -0.54021  -0.50291  -0.48890
 Alpha  occ. eigenvalues --   -0.47763  -0.44289  -0.43196  -0.41935  -0.40234
 Alpha  occ. eigenvalues --   -0.38049  -0.36974  -0.36439  -0.33868  -0.32434
 Alpha  occ. eigenvalues --   -0.30332  -0.29429  -0.25695  -0.23755
 Alpha virt. eigenvalues --    0.08048   0.09012   0.09693   0.11998   0.13305
 Alpha virt. eigenvalues --    0.13917   0.15021   0.15574   0.15986   0.16985
 Alpha virt. eigenvalues --    0.17369   0.18015   0.18385   0.18779   0.19992

 Mulliken charges:
               1
     1  C   -0.510302
     2  C    0.390490
     3  C   -0.277850
     4  C    0.051513
     5  O   -0.317642
     6  C   -0.099442
     7  C   -0.085220
     8  O   -0.295730
     9  C    0.096196
    10  H    0.146427
    11  H    0.126669
    12  H    0.120760
    13  H    0.095107
    14  H    0.112593
    15  H    0.081287
    16  H    0.081020
    17  H    0.096517
    18  H    0.112878
    19  H    0.074727
 Sum of Mulliken charges =   0.00000

 Dipole moment (field-independent basis, Debye):
    X=              0.4373    Y=              1.7653    Z=              1.7648  Tot=              2.5342
 Quadrupole moment (field-independent basis, Debye-Ang):
   XX=            -50.2246   YY=            -53.6641   ZZ=            -53.9712
   XY=             -3.2851   XZ=              1.1010   YZ=             -0.2407

  Exact polarizability:  83.284  -1.750  72.528   2.121  -0.477  65.980
 Approx polarizability: 110.154  -1.825 107.672   2.972  -0.765 106.180

                      1                      2                      3
                      A                      A                      A
 Frequencies --    182.2389               204.5636               232.8813
 Red. masses --      2.9630                 1.0569                 3.0818
 Frc consts  --      0.0580                 0.0261                 0.0985
 IR Inten    --      2.0392                 0.1776                 3.3009

                      4                      5                      6
                      A                      A                      A
 Frequencies --    294.2410               322.1871               439.5257
 Red. masses --      2.9994                 2.8024                 2.8261
 Frc consts  --      0.1530                 0.1714                 0.3217
 IR Inten    --      1.9874                 2.1242                 0.8345

                      7                      8                      9
                      A                      A                      A
 Frequencies --    459.1610               580.6131               644.0164
 Red. masses --      2.4535                 4.0541                 4.6154
 Frc consts  --      0.3048                 0.8052                 1.1279
 IR Inten    --      0.7330                 1.9914                17.5991

                     10                     11                     12
                      A                      A                      A
 Frequencies --    710.3892               790.6118               810.8115
 Red. masses --      3.7454                 2.5964                 2.8297
 Frc consts  --      1.1136                 0.9562                 1.0961
 IR Inten    --      4.0527                 1.3442                 7.7187

                     13                     14                     15
                      A                      A                      A
 Frequencies --    836.5151               873.1356               882.9718
 Red. masses --      2.2932                 3.6745                 1.9619
 Frc consts  --      0.9454                 1.6505                 0.9012
 IR Inten    --      8.2055                 9.8245                20.8494

                     16                     17                     18
                      A                      A                      A
 Frequencies --    884.5720               940.9749               958.6113
 Red. masses --      2.4199                 2.8481                 1.6449
 Frc consts  --      1.1156                 1.4858                 0.8906
 IR Inten    --     10.0911                 3.7849                 3.6206

                     19                     20                     21
                      A                      A                      A
 Frequencies --    986.9051              1019.8188              1025.0960
 Red. masses --      2.9994                 1.7175                 3.2274
 Frc consts  --      1.7212                 1.0524                 1.9982
 IR Inten    --     10.7689                 8.8299                70.6690

                     22                     23                     24
                      A                      A                      A
 Frequencies --   1034.4444              1066.1176              1093.9991
 Red. masses --      2.7375                 1.9830                 1.6403
 Frc consts  --      1.7259                 1.3279                 1.1566
 IR Inten    --     37.1752                17.0480                 4.4811

                     25                     26                     27
                      A                      A                      A
 Frequencies --   1119.3005              1162.1277              1169.7792
 Red. masses --      2.3834                 1.7056                 1.3182
 Frc consts  --      1.7593                 1.3571                 1.0627
 IR Inten    --     13.0934                 8.6117                 2.7869

                     28                     29                     30
                      A                      A                      A
 Frequencies --   1210.2792              1215.5863              1226.1267
 Red. masses --      1.5926                 1.5400                 1.5732
 Frc consts  --      1.3744                 1.3407                 1.3935
 IR Inten    --      9.7314                 1.7408                 0.5447

                     31                     32                     33
                      A                      A                      A
 Frequencies --   1252.2426              1292.0630              1304.1863
 Red. masses --      1.7060                 1.3933                 1.6609
 Frc consts  --      1.5762                 1.3704                 1.6644
 IR Inten    --      9.8034                 0.1887                11.7319

                     34                     35                     36
                      A                      A                      A
 Frequencies --   1320.9337              1348.7125              1362.0703
 Red. masses --      1.7983                 2.0242                 1.4434
 Frc consts  --      1.8487                 2.1695                 1.5778
 IR Inten    --      1.5907                 8.3756                 2.7201

                     37                     38                     39
                      A                      A                      A
 Frequencies --   1413.0199              1478.6942              1486.4301
 Red. masses --      1.5375                 1.0520                 1.1609
 Frc consts  --      1.8087                 1.3552                 1.5113
 IR Inten    --     14.9250                 3.4243                 4.0444

                     40                     41                     42
                      A                      A                      A
 Frequencies --   1495.0370              1506.6493              3026.9831
 Red. masses --      1.0537                 1.1078                 1.0578
 Frc consts  --      1.3876                 1.4816                 5.7107
 IR Inten    --      3.9911                 0.8073                82.6108

                     43                     44                     45
                      A                      A                      A
 Frequencies --   3039.5916              3054.6334              3061.0329
 Red. masses --      1.0355                 1.0699                 1.0779
 Frc consts  --      5.6367                 5.8820                 5.9507
 IR Inten    --     13.6558                13.8699                58.2550

                     46                     47                     48
                      A                      A                      A
 Frequencies --   3083.5690              3111.0925              3116.9059
 Red. masses --      1.1074                 1.1004                 1.0890
 Frc consts  --      6.2041                 6.2751                 6.2334
 IR Inten    --     20.9074                12.0750                22.0379

                     49                     50                     51
                      A                      A                      A
 Frequencies --   3120.3111              3126.4699              3139.7182
 Red. masses --      1.1023                 1.0923                 1.1046
 Frc consts  --      6.3233                 6.2909                 6.4157
 IR Inten    --     11.5461                48.6379                24.1165

 - Thermochemistry -
 -------------------
 Temperature   298.150 Kelvin.  Pressure   1.00000 Atm.
 Atom     1 has atomic number  6 and mass  12.00000

 Molecular mass:   126.06808 amu.
 Principal axes and moments of inertia in atomic units:
                           1         2         3
     Eigenvalues --   637.84052 950.120571221.06988
           X            0.99750  -0.06984   0.01108
           Y            0.06964   0.99742   0.01724
           Z           -0.01226  -0.01643   0.99979
 This molecule is an asymmetric top.
 Rotational symmetry number  1.
 Warning -- assumption of classical behavior for rotation
           may cause significant error
 Rotational temperatures (Kelvin)      0.13579     0.09116     0.07093
 Rotational constants (GHZ):           2.82946     1.89949     1.47800
 Zero-point vibrational energy     421791.0 (Joules/Mol)
                                  100.81047 (Kcal/Mol)
 Warning -- explicit consideration of   8 degrees of freedom as
           vibrations may cause significant error
 Vibrational temperatures:    262.20   294.32   335.06   423.35   463.55
          (Kelvin)            632.38   660.63   835.37   926.59  1022.09
                             1137.51  1166.58  1203.56  1256.25  1270.40
                             1272.70  1353.85  1379.23  1419.93  1467.29
                             1474.88  1488.33  1533.90  1574.02  1610.42
                             1672.04  1683.05  1741.32  1748.96  1764.12
                             1801.70  1858.99  1876.43  1900.53  1940.49
                             1959.71  2033.02  2127.51  2138.64  2151.02
                             2167.73  4355.15  4373.29  4394.93  4404.14
                             4436.56  4476.16  4484.53  4489.43  4498.29
                             4517.35

 Zero-point correction=                           0.160652 (Hartree/Particle)
 Thermal correction to Energy=                    0.167786
 Thermal correction to Enthalpy=                  0.168730
 Thermal correction to Gibbs Free Energy=         0.129526
 Sum of electronic and zero-point Energies=           -422.989121
 Sum of electronic and thermal Energies=              -422.981987
 Sum of electronic and thermal Enthalpies=            -422.981043
 Sum of electronic and thermal Free Energies=         -423.020247

                     E (Thermal)             CV                S
                      KCal/Mol        Cal/Mol-Kelvin    Cal/Mol-Kelvin
 Total                  105.287             29.262             82.513
 Electronic               0.000              0.000              0.000
 Translational            0.889              2.981             40.409
 Rotational               0.889              2.981             28.094
 Vibrational            103.510             23.300             14.010
 Vibration     1          0.630              1.864              2.305
 Vibration     2          0.640              1.833              2.092
 Vibration     3          0.654              1.791              1.857
 Vibration     4          0.689              1.684              1.449
 Vibration     5          0.707              1.631              1.299
 Vibration     6          0.800              1.384              0.828
 Vibration     7          0.817              1.341              0.769
 Vibration     8          0.937              1.073              0.484

 Optimization completed.
    -- Stationary point found.
 Normal termination of Gaussian 09 at Mon Jan 27 17:56:41 2020.
