 Gaussian 09, Revision D.01,
 Gaussian 09:  ES64L-G09RevD.01 24-Apr-2013

 -----------------------------
 # b3lyp 6-31G(2df,p) opt Freq
 -----------------------------

 -----
 titel
 -----
 Symbolic Z-matrix:
 Charge =  0 Multiplicity = 1

 SCF Done:  E(RB3LYP) =  -423.203887029     A.U. after   14 cycles
 Optimization completed.
    -- Stationary point found.
 Normal termination of Gaussian 09 at Tue Jan 28 13:37:13 2020.

 ----------------------------------------------------------------------
 #N Geom=AllCheck Guess=TCheck SCRF=Check GenChk RB3LYP/6-31G(2df,p) Fr
 eq
 ----------------------------------------------------------------------

 Structure from the checkpoint file:  "/scratch/puck/g09_ee63c069-d853-49ca-811b-78a7d4301faa/Gau-94093.chk"
 -----
 titel
 -----
 Charge =  0 Multiplicity = 1

                         Standard orientation:
 ---------------------------------------------------------------------
 Center     Atomic      Atomic             Coordinates (Angstroms)
 Number     Number       Type             X           Y           Z
 ---------------------------------------------------------------------
      1          6           0        3.166205   -0.757363   -0.071778
      2          6           0        2.288874    0.493637    0.033293
      3          6           0        0.854103    0.267476   -0.440149
      4          6           0       -0.102301    1.493814   -0.269105
      5          6           0       -0.985192    0.674603    0.724845
      6          6           0       -0.045028   -0.538672    0.530662
      7          8           0       -1.111959   -1.258099   -0.166934
      8          6           0       -1.999392   -0.216817    0.015251
      9          8           0       -3.136036   -0.168799   -0.327724
     10          1           0        2.758758   -1.586516    0.516566
     11          1           0        3.243294   -1.097850   -1.109739
     12          1           0        4.178968   -0.560686    0.292156
     13          1           0        2.275755    0.854028    1.071443
     14          1           0        2.727932    1.305271   -0.560296
     15          1           0        0.850836   -0.168289   -1.443548
     16          1           0        0.388172    2.338549    0.220016
     17          1           0       -0.612769    1.857825   -1.162499
     18          1           0       -1.280000    1.120076    1.672282
     19          1           0        0.389400   -1.147292    1.322771
 ---------------------------------------------------------------------

 SCF Done:  E(RB3LYP) =  -423.203887029     A.U. after    1 cycles

 The electronic state is 1-A.
 Alpha  occ. eigenvalues --  -19.17758 -19.13223 -10.30535 -10.25323 -10.21188
 Alpha  occ. eigenvalues --  -10.20469 -10.20364 -10.19741 -10.18558  -1.10303
 Alpha  occ. eigenvalues --   -1.03074  -0.85600  -0.77856  -0.70148  -0.67464
 Alpha  occ. eigenvalues --   -0.63111  -0.58586  -0.52387  -0.51953  -0.50509
 Alpha  occ. eigenvalues --   -0.46937  -0.44715  -0.44023  -0.42769  -0.40588
 Alpha  occ. eigenvalues --   -0.39768  -0.37760  -0.36647  -0.34904  -0.34004
 Alpha  occ. eigenvalues --   -0.33670  -0.31027  -0.28934  -0.27022
 Alpha virt. eigenvalues --    0.00908   0.07036   0.07898   0.09708   0.10643
 Alpha virt. eigenvalues --    0.12011   0.12840   0.13833   0.15071   0.15884
 Alpha virt. eigenvalues --    0.17528   0.18464   0.18796   0.19487   0.21501

 Mulliken charges:
               1
     1  C   -0.386340
     2  C   -0.197438
     3  C    0.015737
     4  C   -0.277543
     5  C   -0.227711
     6  C    0.103798
     7  O   -0.256868
     8  C    0.447515
     9  O   -0.323461
    10  H    0.120647
    11  H    0.123283
    12  H    0.119180
    13  H    0.096178
    14  H    0.105071
    15  H    0.092175
    16  H    0.115819
    17  H    0.124361
    18  H    0.108510
    19  H    0.097088
 Sum of Mulliken charges =   0.00000

 Dipole moment (field-independent basis, Debye):
    X=              3.8678    Y=              1.5343    Z=              1.3400  Tot=              4.3714
 Quadrupole moment (field-independent basis, Debye-Ang):
   XX=            -63.9743   YY=            -53.8871   ZZ=            -51.0362
   XY=             -2.0909   XZ=             -2.7077   YZ=             -0.9198

  Exact polarizability:  94.486  -1.924  69.433   1.535   0.052  62.332
 Approx polarizability: 126.391  -2.906 104.880   5.145   1.047  97.006

                      1                      2                      3
                      A                      A                      A
 Frequencies --     71.2005               117.0541               146.4981
 Red. masses --      4.9005                 2.2517                 2.9088
 Frc consts  --      0.0146                 0.0182                 0.0368
 IR Inten    --      1.7051                 0.0899                 1.9885

                      4                      5                      6
                      A                      A                      A
 Frequencies --    197.4757               251.3140               303.2491
 Red. masses --      2.0810                 1.5282                 2.6681
 Frc consts  --      0.0478                 0.0569                 0.1446
 IR Inten    --      0.3500                 0.2149                 2.0853

                      7                      8                      9
                      A                      A                      A
 Frequencies --    406.6697               413.9263               480.6280
 Red. masses --      2.9736                 3.6495                 5.0087
 Frc consts  --      0.2897                 0.3684                 0.6817
 IR Inten    --      0.7324                 0.9266                 2.4723

                     10                     11                     12
                      A                      A                      A
 Frequencies --    647.8363               730.1750               768.2156
 Red. masses --      3.0312                 3.2776                 3.4494
 Frc consts  --      0.7495                 1.0296                 1.1994
 IR Inten    --      2.2859                 0.5380                 7.1597

                     13                     14                     15
                      A                      A                      A
 Frequencies --    788.6848               832.1127               874.3994
 Red. masses --      1.4509                 1.8790                 2.6227
 Frc consts  --      0.5317                 0.7666                 1.1815
 IR Inten    --      5.2398                 1.4457                 2.6450

                     16                     17                     18
                      A                      A                      A
 Frequencies --    896.7492               926.7076               948.2185
 Red. masses --      2.0505                 3.3848                 2.0165
 Frc consts  --      0.9715                 1.7127                 1.0682
 IR Inten    --      5.3419                62.2981                46.3869

                     19                     20                     21
                      A                      A                      A
 Frequencies --    980.0426               988.6813               999.5263
 Red. masses --      2.0432                 2.6365                 2.5925
 Frc consts  --      1.1563                 1.5184                 1.5260
 IR Inten    --      9.3008                 3.0766                 2.4615

                     22                     23                     24
                      A                      A                      A
 Frequencies --   1059.1631              1091.5513              1111.6843
 Red. masses --      1.9208                 3.1247                 1.6636
 Frc consts  --      1.2696                 2.1935                 1.2113
 IR Inten    --     10.6864                59.3718                 1.2675

                     25                     26                     27
                      A                      A                      A
 Frequencies --   1118.4072              1181.3664              1188.5094
 Red. masses --      1.7151                 1.8258                 1.9328
 Frc consts  --      1.2640                 1.5013                 1.6086
 IR Inten    --     11.2418                 6.9450                 1.9484

                     28                     29                     30
                      A                      A                      A
 Frequencies --   1224.6273              1241.8413              1246.0936
 Red. masses --      1.6777                 1.5965                 1.4124
 Frc consts  --      1.4824                 1.4506                 1.2921
 IR Inten    --      7.8755                 3.9116                 1.7353

                     31                     32                     33
                      A                      A                      A
 Frequencies --   1280.5677              1302.9414              1310.7075
 Red. masses --      1.3743                 1.5480                 1.3231
 Frc consts  --      1.3278                 1.5484                 1.3393
 IR Inten    --      9.7791                 6.5980                13.4924

                     34                     35                     36
                      A                      A                      A
 Frequencies --   1347.3916              1383.7519              1415.6602
 Red. masses --      1.4357                 1.5454                 1.2326
 Frc consts  --      1.5356                 1.7435                 1.4554
 IR Inten    --      6.5935                 2.8734                 2.2319

                     37                     38                     39
                      A                      A                      A
 Frequencies --   1485.4422              1487.1841              1500.3800
 Red. masses --      1.0958                 1.0614                 1.0402
 Frc consts  --      1.4246                 1.3831                 1.3796
 IR Inten    --      3.6892                 1.0257                 5.4904

                     40                     41                     42
                      A                      A                      A
 Frequencies --   1506.0879              1934.8566              3011.4045
 Red. masses --      1.0704                12.7912                 1.0628
 Frc consts  --      1.4306                28.2136                 5.6784
 IR Inten    --      3.5386               479.8945                20.2619

                     43                     44                     45
                      A                      A                      A
 Frequencies --   3035.4366              3046.6168              3070.1848
 Red. masses --      1.0359                 1.0962                 1.0742
 Frc consts  --      5.6233                 5.9946                 5.9655
 IR Inten    --     19.9950                12.4971                23.4805

                     46                     47                     48
                      A                      A                      A
 Frequencies --   3071.1778              3101.7838              3108.7198
 Red. masses --      1.0724                 1.1014                 1.1013
 Frc consts  --      5.9599                 6.2434                 6.2707
 IR Inten    --     18.4642                37.2322                30.1504

                     49                     50                     51
                      A                      A                      A
 Frequencies --   3125.3502              3126.8227              3146.9544
 Red. masses --      1.1039                 1.0929                 1.0917
 Frc consts  --      6.3528                 6.2954                 6.3699
 IR Inten    --     25.0551                13.2342                13.5347

 - Thermochemistry -
 -------------------
 Temperature   298.150 Kelvin.  Pressure   1.00000 Atm.
 Atom     1 has atomic number  6 and mass  12.00000

 Molecular mass:   126.06808 amu.
 Principal axes and moments of inertia in atomic units:
                           1         2         3
     Eigenvalues --   417.607241803.661132033.69781
           X            0.99984  -0.01712  -0.00425
           Y            0.01708   0.99981  -0.00891
           Z            0.00440   0.00884   0.99995
 This molecule is an asymmetric top.
 Rotational symmetry number  1.
 Rotational temperatures (Kelvin)      0.20740     0.04802     0.04259
 Rotational constants (GHZ):           4.32162     1.00060     0.88742
 Zero-point vibrational energy     418884.6 (Joules/Mol)
                                  100.11581 (Kcal/Mol)
 Warning -- explicit consideration of   9 degrees of freedom as
           vibrations may cause significant error
 Vibrational temperatures:    102.44   168.41   210.78   284.12   361.58
          (Kelvin)            436.31   585.11   595.55   691.52   932.09
                             1050.56  1105.29  1134.74  1197.22  1258.06
                             1290.22  1333.32  1364.27  1410.06  1422.49
                             1438.09  1523.90  1570.50  1599.46  1609.14
                             1699.72  1710.00  1761.96  1786.73  1792.85
                             1842.45  1874.64  1885.81  1938.59  1990.91
                             2036.82  2137.22  2139.72  2158.71  2166.92
                             2783.82  4332.73  4367.31  4383.40  4417.31
                             4418.73  4462.77  4472.75  4496.68  4498.79
                             4527.76

 Zero-point correction=                           0.159545 (Hartree/Particle)
 Thermal correction to Energy=                    0.167883
 Thermal correction to Enthalpy=                  0.168827
 Thermal correction to Gibbs Free Energy=         0.126160
 Sum of electronic and zero-point Energies=           -423.044342
 Sum of electronic and thermal Energies=              -423.036004
 Sum of electronic and thermal Enthalpies=            -423.035060
 Sum of electronic and thermal Free Energies=         -423.077727

                     E (Thermal)             CV                S
                      KCal/Mol        Cal/Mol-Kelvin    Cal/Mol-Kelvin
 Total                  105.348             31.241             89.799
 Electronic               0.000              0.000              0.000
 Translational            0.889              2.981             40.409
 Rotational               0.889              2.981             28.817
 Vibrational            103.570             25.279             20.573
 Vibration     1          0.598              1.968              4.120
 Vibration     2          0.608              1.935              3.148
 Vibration     3          0.617              1.906              2.717
 Vibration     4          0.637              1.843              2.156
 Vibration     5          0.663              1.761              1.721
 Vibration     6          0.695              1.668              1.399
 Vibration     7          0.771              1.456              0.938
 Vibration     8          0.778              1.440              0.913
 Vibration     9          0.837              1.293              0.708

 Optimization completed.
    -- Stationary point found.
 Normal termination of Gaussian 09 at Tue Jan 28 15:00:27 2020.
