 Gaussian 09, Revision D.01,
 Gaussian 09:  ES64L-G09RevD.01 24-Apr-2013

 -----------------------------
 # b3lyp 6-31G(2df,p) opt Freq
 -----------------------------

 -----
 titel
 -----
 Symbolic Z-matrix:
 Charge =  0 Multiplicity = 1

 SCF Done:  E(RB3LYP) =  -423.123253496     A.U. after   14 cycles
 Optimization completed.
    -- Stationary point found.
 Normal termination of Gaussian 09 at Tue Jan 28 08:16:44 2020.

 ----------------------------------------------------------------------
 #N Geom=AllCheck Guess=TCheck SCRF=Check GenChk RB3LYP/6-31G(2df,p) Fr
 eq
 ----------------------------------------------------------------------

 Structure from the checkpoint file:  "/scratch/puck/g09_8c39e088-7ffc-41d6-9273-136f1ece968a/Gau-79824.chk"
 -----
 titel
 -----
 Charge =  0 Multiplicity = 1

                         Standard orientation:
 ---------------------------------------------------------------------
 Center     Atomic      Atomic             Coordinates (Angstroms)
 Number     Number       Type             X           Y           Z
 ---------------------------------------------------------------------
      1          8           0        4.001591    0.179552   -0.100610
      2          6           0        3.020068   -0.793024    0.228818
      3          6           0        1.647143   -0.318199    0.058835
      4          6           0        0.532095    0.093439   -0.143818
      5          6           0       -0.829858    0.616455   -0.308950
      6          8           0       -0.906123    1.991827    0.061816
      7          6           0       -1.838500   -0.242723    0.435395
      8          6           0       -3.284199   -0.202269    0.021463
      9          6           0       -2.457782   -1.434489   -0.249149
     10          1           0        3.781146    0.527309   -0.971116
     11          1           0        3.155245   -1.716422   -0.357512
     12          1           0        3.203497   -1.057233    1.276307
     13          1           0       -1.094075    0.606679   -1.374511
     14          1           0       -0.520247    2.074959    0.940923
     15          1           0       -1.627645   -0.345264    1.496637
     16          1           0       -4.039878   -0.245389    0.797585
     17          1           0       -3.547966    0.430857   -0.819138
     18          1           0       -2.641228   -2.325345    0.340536
     19          1           0       -2.166388   -1.636321   -1.274926
 ---------------------------------------------------------------------

 SCF Done:  E(RB3LYP) =  -423.123253496     A.U. after    1 cycles

 The electronic state is 1-A.
 Alpha  occ. eigenvalues --  -19.14208 -19.13933 -10.25818 -10.25420 -10.19575
 Alpha  occ. eigenvalues --  -10.19018 -10.18803 -10.18224 -10.17972  -1.02403
 Alpha  occ. eigenvalues --   -1.02285  -0.86222  -0.77634  -0.72751  -0.67291
 Alpha  occ. eigenvalues --   -0.60381  -0.58915  -0.54437  -0.51534  -0.50367
 Alpha  occ. eigenvalues --   -0.47831  -0.46949  -0.44635  -0.43575  -0.39320
 Alpha  occ. eigenvalues --   -0.36764  -0.35754  -0.35598  -0.30664  -0.30066
 Alpha  occ. eigenvalues --   -0.28864  -0.27869  -0.26324  -0.25556
 Alpha virt. eigenvalues --    0.02486   0.03739   0.09031   0.09789   0.10652
 Alpha virt. eigenvalues --    0.11068   0.12799   0.14011   0.15404   0.15522
 Alpha virt. eigenvalues --    0.17792   0.18379   0.21196   0.22226   0.22769

 Mulliken charges:
               1
     1  O   -0.401292
     2  C   -0.190161
     3  C    0.052564
     4  C    0.053654
     5  C   -0.079171
     6  O   -0.414857
     7  C    0.027205
     8  C   -0.275346
     9  C   -0.260232
    10  H    0.289003
    11  H    0.119634
    12  H    0.139221
    13  H    0.107853
    14  H    0.282680
    15  H    0.084918
    16  H    0.114050
    17  H    0.120165
    18  H    0.114872
    19  H    0.115240
 Sum of Mulliken charges =   0.00000

 Dipole moment (field-independent basis, Debye):
    X=             -0.8171    Y=             -1.4130    Z=              0.0647  Tot=              1.6336
 Quadrupole moment (field-independent basis, Debye-Ang):
   XX=            -57.9226   YY=            -55.0080   ZZ=            -48.0710
   XY=             -0.0913   XZ=             -3.6741   YZ=              0.5276

  Exact polarizability: 110.719  -5.654  71.299   2.893  -0.770  62.786
 Approx polarizability: 146.216 -14.799 104.863   8.996  -2.139  95.946

                      1                      2                      3
                      A                      A                      A
 Frequencies --     17.9328                57.4288                79.8277
 Red. masses --      3.2790                 3.6716                 3.1985
 Frc consts  --      0.0006                 0.0071                 0.0120
 IR Inten    --      1.5717                 0.1932                 0.2938

                      4                      5                      6
                      A                      A                      A
 Frequencies --    130.2896               158.8033               235.6253
 Red. masses --      3.3858                 3.4099                 1.7341
 Frc consts  --      0.0339                 0.0507                 0.0567
 IR Inten    --      5.6704                 6.1416                36.5570

                      7                      8                      9
                      A                      A                      A
 Frequencies --    263.8357               269.4019               315.6040
 Red. masses --      1.7224                 2.3170                 1.6411
 Frc consts  --      0.0706                 0.0991                 0.0963
 IR Inten    --     56.0884                21.7505               116.9563

                     10                     11                     12
                      A                      A                      A
 Frequencies --    361.0737               426.3010               494.1499
 Red. masses --      2.4812                 5.2561                 5.1217
 Frc consts  --      0.1906                 0.5628                 0.7369
 IR Inten    --     14.2110                12.3099                 4.7052

                     13                     14                     15
                      A                      A                      A
 Frequencies --    524.1856               616.2358               756.8545
 Red. masses --      4.6523                 6.4374                 1.3168
 Frc consts  --      0.7532                 1.4403                 0.4444
 IR Inten    --      8.4472                 4.8672                 7.4812

                     16                     17                     18
                      A                      A                      A
 Frequencies --    802.2269               835.8117               869.3879
 Red. masses --      1.8284                 1.4007                 2.2135
 Frc consts  --      0.6933                 0.5765                 0.9857
 IR Inten    --     12.7950                 3.1283                 9.5507

                     19                     20                     21
                      A                      A                      A
 Frequencies --    941.9322               961.0380               990.7479
 Red. masses --      3.4201                 3.0702                 1.6165
 Frc consts  --      1.7878                 1.6707                 0.9349
 IR Inten    --     17.2665                28.7254                13.7787

                     22                     23                     24
                      A                      A                      A
 Frequencies --   1031.2893              1053.3430              1062.4359
 Red. masses --      3.8459                 3.4871                 1.6112
 Frc consts  --      2.4099                 2.2796                 1.0715
 IR Inten    --     42.3899               100.7680                61.4675

                     25                     26                     27
                      A                      A                      A
 Frequencies --   1077.5213              1130.5877              1136.1092
 Red. masses --      1.3562                 1.1863                 2.4817
 Frc consts  --      0.9278                 0.8934                 1.8873
 IR Inten    --      1.4829                 3.1377                20.3993

                     28                     29                     30
                      A                      A                      A
 Frequencies --   1164.8469              1195.1759              1215.5933
 Red. masses --      2.2428                 1.3904                 1.0858
 Frc consts  --      1.7930                 1.1702                 0.9453
 IR Inten    --     37.5509                 0.0569                15.7136

                     31                     32                     33
                      A                      A                      A
 Frequencies --   1223.6598              1265.4269              1298.8907
 Red. masses --      1.8891                 1.3334                 1.3504
 Frc consts  --      1.6666                 1.2580                 1.3423
 IR Inten    --      0.7543                17.6292                28.3163

                     34                     35                     36
                      A                      A                      A
 Frequencies --   1355.5195              1410.2998              1413.9451
 Red. masses --      1.2179                 1.4315                 1.3351
 Frc consts  --      1.3185                 1.6775                 1.5726
 IR Inten    --      5.0881                13.8475                95.5375

                     37                     38                     39
                      A                      A                      A
 Frequencies --   1421.6546              1472.1536              1492.3129
 Red. masses --      1.2174                 1.0864                 1.0783
 Frc consts  --      1.4497                 1.3873                 1.4148
 IR Inten    --     72.4910                 2.5112                 0.9051

                     40                     41                     42
                      A                      A                      A
 Frequencies --   1506.5052              2352.0929              2973.5155
 Red. masses --      1.3665                11.8923                 1.0715
 Frc consts  --      1.8273                38.7635                 5.5822
 IR Inten    --      0.9508                 1.4821                46.3664

                     43                     44                     45
                      A                      A                      A
 Frequencies --   3025.2086              3060.9323              3132.6122
 Red. masses --      1.0829                 1.0880                 1.0515
 Frc consts  --      5.8390                 6.0061                 6.0795
 IR Inten    --     17.7914                18.3391                16.7604

                     46                     47                     48
                      A                      A                      A
 Frequencies --   3136.5273              3143.3564              3210.8685
 Red. masses --      1.0595                 1.0875                 1.1175
 Frc consts  --      6.1409                 6.3311                 6.7883
 IR Inten    --     16.3894                 7.0943                 0.4798

                     49                     50                     51
                      A                      A                      A
 Frequencies --   3225.6276              3805.9510              3816.6862
 Red. masses --      1.1152                 1.0662                 1.0663
 Frc consts  --      6.8363                 9.0991                 9.1514
 IR Inten    --     17.3243                22.9885                22.1520

 - Thermochemistry -
 -------------------
 Temperature   298.150 Kelvin.  Pressure   1.00000 Atm.
 Atom     1 has atomic number  8 and mass  15.99491

 Molecular mass:   126.06808 amu.
 Principal axes and moments of inertia in atomic units:
                           1         2         3
     Eigenvalues --   489.033122718.153623091.78229
           X            1.00000   0.00209  -0.00080
           Y           -0.00209   1.00000   0.00092
           Z            0.00080  -0.00092   1.00000
 This molecule is an asymmetric top.
 Rotational symmetry number  1.
 Warning -- assumption of classical behavior for rotation
           may cause significant error
 Rotational temperatures (Kelvin)      0.17711     0.03186     0.02801
 Rotational constants (GHZ):           3.69043     0.66396     0.58372
 Zero-point vibrational energy     412229.2 (Joules/Mol)
                                   98.52515 (Kcal/Mol)
 Warning -- explicit consideration of  14 degrees of freedom as
           vibrations may cause significant error
 Vibrational temperatures:     25.80    82.63   114.85   187.46   228.48
          (Kelvin)            339.01   379.60   387.61   454.08   519.50
                              613.35   710.97   754.19   886.62  1088.94
                             1154.22  1202.55  1250.85  1355.23  1382.72
                             1425.46  1483.79  1515.52  1528.61  1550.31
                             1626.66  1634.61  1675.95  1719.59  1748.97
                             1760.57  1820.66  1868.81  1950.29  2029.10
                             2034.35  2045.44  2118.10  2147.10  2167.52
                             3384.13  4278.22  4352.59  4403.99  4507.12
                             4512.76  4522.58  4619.72  4640.95  5475.91
                             5491.35

 Zero-point correction=                           0.157010 (Hartree/Particle)
 Thermal correction to Energy=                    0.167427
 Thermal correction to Enthalpy=                  0.168371
 Thermal correction to Gibbs Free Energy=         0.119458
 Sum of electronic and zero-point Energies=           -422.966244
 Sum of electronic and thermal Energies=              -422.955827
 Sum of electronic and thermal Enthalpies=            -422.954883
 Sum of electronic and thermal Free Energies=         -423.003796

                     E (Thermal)             CV                S
                      KCal/Mol        Cal/Mol-Kelvin    Cal/Mol-Kelvin
 Total                  105.062             36.368            102.946
 Electronic               0.000              0.000              0.000
 Translational            0.889              2.981             40.409
 Rotational               0.889              2.981             29.798
 Vibrational            103.284             30.406             32.740
 Vibration     1          0.593              1.986              6.851
 Vibration     2          0.596              1.975              4.544
 Vibration     3          0.600              1.963              3.895
 Vibration     4          0.612              1.923              2.942
 Vibration     5          0.621              1.893              2.564
 Vibration     6          0.655              1.786              1.836
 Vibration     7          0.670              1.739              1.636
 Vibration     8          0.674              1.729              1.600
 Vibration     9          0.703              1.644              1.333
 Vibration    10          0.735              1.552              1.117
 Vibration    11          0.788              1.413              0.871
 Vibration    12          0.850              1.263              0.673
 Vibration    13          0.879              1.196              0.600
 Vibration    14          0.976              0.998              0.423

 Optimization completed on the basis of negligible forces.
    -- Stationary point found.
 Normal termination of Gaussian 09 at Tue Jan 28 09:00:06 2020.
