 Gaussian 09, Revision D.01,
 Gaussian 09:  ES64L-G09RevD.01 24-Apr-2013

 -----------------------------
 # b3lyp 6-31G(2df,p) opt Freq
 -----------------------------

 -----
 titel
 -----
 Symbolic Z-matrix:
 Charge =  0 Multiplicity = 1

 SCF Done:  E(RB3LYP) =  -423.111817940     A.U. after   14 cycles
 Optimization completed.
    -- Stationary point found.
 Normal termination of Gaussian 09 at Tue Jan 28 14:25:01 2020.

 ----------------------------------------------------------------------
 #N Geom=AllCheck Guess=TCheck SCRF=Check GenChk RB3LYP/6-31G(2df,p) Fr
 eq
 ----------------------------------------------------------------------

 Structure from the checkpoint file:  "/scratch/puck/g09_e256acaf-9334-4688-9e71-95ad5af67671/Gau-163941.chk"
 -----
 titel
 -----
 Charge =  0 Multiplicity = 1

                         Standard orientation:
 ---------------------------------------------------------------------
 Center     Atomic      Atomic             Coordinates (Angstroms)
 Number     Number       Type             X           Y           Z
 ---------------------------------------------------------------------
      1          6           0       -3.271494    0.731200    0.218439
      2          8           0       -1.913705    0.667511   -0.149583
      3          6           0       -1.384306   -0.634394   -0.085962
      4          6           0        0.071912   -0.564050   -0.503511
      5          8           0        0.705422   -1.855236   -0.410611
      6          6           0        1.762098   -1.339352    0.421691
      7          6           0        1.076728    0.053457    0.514335
      8          6           0        1.843357    1.211766    0.112913
      9          6           0        2.494109    2.160837   -0.235291
     10          1           0       -3.429635    0.392483    1.254517
     11          1           0       -3.583455    1.774923    0.135897
     12          1           0       -3.901940    0.116600   -0.443037
     13          1           0       -1.457878   -1.049395    0.933985
     14          1           0       -1.922796   -1.323664   -0.758610
     15          1           0        0.157866   -0.133870   -1.508491
     16          1           0        1.856184   -1.894324    1.361314
     17          1           0        2.727446   -1.326915   -0.096453
     18          1           0        0.604826    0.223838    1.486252
     19          1           0        3.061229    3.005346   -0.539508
 ---------------------------------------------------------------------

 SCF Done:  E(RB3LYP) =  -423.111817940     A.U. after    1 cycles

 The electronic state is 1-A.
 Alpha  occ. eigenvalues --  -19.14658 -19.13881 -10.24071 -10.23833 -10.23114
 Alpha  occ. eigenvalues --  -10.22852 -10.21671 -10.18217 -10.17339  -1.04895
 Alpha  occ. eigenvalues --   -1.03721  -0.79304  -0.75716  -0.71533  -0.68060
 Alpha  occ. eigenvalues --   -0.63181  -0.57664  -0.54135  -0.50163  -0.49722
 Alpha  occ. eigenvalues --   -0.49437  -0.47090  -0.44752  -0.43633  -0.40942
 Alpha  occ. eigenvalues --   -0.40432  -0.37796  -0.34460  -0.33041  -0.32500
 Alpha  occ. eigenvalues --   -0.26472  -0.26323  -0.25934  -0.25455
 Alpha virt. eigenvalues --    0.04265   0.04527   0.07284   0.09812   0.11701
 Alpha virt. eigenvalues --    0.11929   0.13196   0.13995   0.14845   0.15848
 Alpha virt. eigenvalues --    0.16748   0.17389   0.18581   0.19148   0.20318

 Mulliken charges:
               1
     1  C   -0.223661
     2  O   -0.232481
     3  C   -0.080228
     4  C    0.120374
     5  O   -0.294509
     6  C   -0.077714
     7  C   -0.241970
     8  C    0.331088
     9  C   -0.459527
    10  H    0.105387
    11  H    0.130604
    12  H    0.107297
    13  H    0.086972
    14  H    0.097884
    15  H    0.095661
    16  H    0.109787
    17  H    0.113851
    18  H    0.112606
    19  H    0.198582
 Sum of Mulliken charges =   0.00000

 Dipole moment (field-independent basis, Debye):
    X=             -0.7820    Y=              0.2847    Z=              0.9900  Tot=              1.2934
 Quadrupole moment (field-independent basis, Debye-Ang):
   XX=            -46.1299   YY=            -55.3498   ZZ=            -52.4685
   XY=              1.6286   XZ=             -0.5581   YZ=             -2.5300

  Exact polarizability:  89.936   8.253  84.446  -1.694  -5.792  61.605
 Approx polarizability: 112.106  19.210 127.459  -4.836 -11.429  94.038

                      1                      2                      3
                      A                      A                      A
 Frequencies --     49.3377                65.6736                86.7458
 Red. masses --      3.4772                 3.0753                 2.3408
 Frc consts  --      0.0050                 0.0078                 0.0104
 IR Inten    --      0.7243                 0.8715                 3.9461

                      4                      5                      6
                      A                      A                      A
 Frequencies --    149.0080               185.2258               202.0597
 Red. masses --      3.5588                 2.8871                 3.1932
 Frc consts  --      0.0466                 0.0584                 0.0768
 IR Inten    --      2.1171                 2.3943                 0.0452

                      7                      8                      9
                      A                      A                      A
 Frequencies --    235.6540               323.6289               397.7462
 Red. masses --      1.3195                 2.9234                 6.2079
 Frc consts  --      0.0432                 0.1804                 0.5786
 IR Inten    --      4.1328                 0.9848                 1.8696

                     10                     11                     12
                      A                      A                      A
 Frequencies --    437.2510               511.2502               534.7645
 Red. masses --      3.5540                 4.5903                 4.0084
 Frc consts  --      0.4003                 0.7069                 0.6754
 IR Inten    --      4.4278                 5.8303                 3.7143

                     13                     14                     15
                      A                      A                      A
 Frequencies --    623.9289               633.5215               721.4317
 Red. masses --      1.2241                 1.2204                 3.4196
 Frc consts  --      0.2808                 0.2886                 1.0486
 IR Inten    --     41.0883                41.9890                 4.8694

                     16                     17                     18
                      A                      A                      A
 Frequencies --    838.9973               913.4273               977.1976
 Red. masses --      2.3303                 1.7034                 4.3847
 Frc consts  --      0.9664                 0.8373                 2.4669
 IR Inten    --      6.4801                 1.5750                44.9454

                     19                     20                     21
                      A                      A                      A
 Frequencies --   1009.9861              1032.6587              1045.1534
 Red. masses --      3.9540                 2.6233                 6.8117
 Frc consts  --      2.3764                 1.6482                 4.3840
 IR Inten    --     17.9518                 1.2129                76.9322

                     22                     23                     24
                      A                      A                      A
 Frequencies --   1074.7182              1113.3889              1130.1736
 Red. masses --      2.8075                 2.3955                 2.1682
 Frc consts  --      1.9106                 1.7496                 1.6317
 IR Inten    --     20.7761                 0.3043                33.9387

                     25                     26                     27
                      A                      A                      A
 Frequencies --   1166.5449              1171.3936              1183.6052
 Red. masses --      1.1457                 3.4087                 1.2915
 Frc consts  --      0.9186                 2.7558                 1.0660
 IR Inten    --      2.8595               123.5455                 6.4816

                     28                     29                     30
                      A                      A                      A
 Frequencies --   1211.4844              1227.0634              1244.8816
 Red. masses --      1.3373                 1.6398                 1.2461
 Frc consts  --      1.1564                 1.4547                 1.1378
 IR Inten    --      9.0143                49.6158                 5.1662

                     31                     32                     33
                      A                      A                      A
 Frequencies --   1273.9230              1325.7495              1342.7192
 Red. masses --      1.2736                 1.3531                 1.3162
 Frc consts  --      1.2178                 1.4012                 1.3981
 IR Inten    --      0.6934                16.4716                 8.5716

                     34                     35                     36
                      A                      A                      A
 Frequencies --   1386.1522              1424.9874              1482.1646
 Red. masses --      1.5274                 1.5513                 1.1485
 Frc consts  --      1.7292                 1.8560                 1.4865
 IR Inten    --     16.7736                 4.4172                 2.2805

                     37                     38                     39
                      A                      A                      A
 Frequencies --   1487.4758              1503.1593              1523.2253
 Red. masses --      1.0562                 1.0635                 1.0903
 Frc consts  --      1.3769                 1.4158                 1.4904
 IR Inten    --      4.8433                11.0795                 1.5350

                     40                     41                     42
                      A                      A                      A
 Frequencies --   1526.2765              2238.8207              2952.2308
 Red. masses --      1.1013                 5.9674                 1.0526
 Frc consts  --      1.5115                17.6228                 5.4054
 IR Inten    --      0.7063                 2.9364                34.3818

                     43                     44                     45
                      A                      A                      A
 Frequencies --   2974.4140              2983.9107              3018.2615
 Red. masses --      1.0386                 1.1035                 1.1033
 Frc consts  --      5.4140                 5.7890                 5.9217
 IR Inten    --     72.4609                46.2398                54.2692

                     46                     47                     48
                      A                      A                      A
 Frequencies --   3027.8990              3042.2602              3064.0951
 Red. masses --      1.0560                 1.0858                 1.0896
 Frc consts  --      5.7042                 5.9210                 6.0270
 IR Inten    --     81.3489                21.9718                 1.6925

                     49                     50                     51
                      A                      A                      A
 Frequencies --   3082.8930              3117.4862              3504.0822
 Red. masses --      1.1068                 1.0962                 1.1616
 Frc consts  --      6.1980                 6.2770                 8.4036
 IR Inten    --     48.6069                26.0686                71.3649

 - Thermochemistry -
 -------------------
 Temperature   298.150 Kelvin.  Pressure   1.00000 Atm.
 Atom     1 has atomic number  6 and mass  12.00000

 Molecular mass:   126.06808 amu.
 Principal axes and moments of inertia in atomic units:
                           1         2         3
     Eigenvalues --   771.437681692.484482301.39341
           X            0.99996  -0.00746  -0.00404
           Y            0.00739   0.99984  -0.01643
           Z            0.00416   0.01640   0.99986
 This molecule is an asymmetric top.
 Rotational symmetry number  1.
 Warning -- assumption of classical behavior for rotation
           may cause significant error
 Rotational temperatures (Kelvin)      0.11228     0.05118     0.03764
 Rotational constants (GHZ):           2.33945     1.06633     0.78420
 Zero-point vibrational energy     411396.3 (Joules/Mol)
                                   98.32607 (Kcal/Mol)
 Warning -- explicit consideration of  12 degrees of freedom as
           vibrations may cause significant error
 Vibrational temperatures:     70.99    94.49   124.81   214.39   266.50
          (Kelvin)            290.72   339.05   465.63   572.27   629.11
                              735.57   769.41   897.69   911.49  1037.98
                             1207.13  1314.22  1405.97  1453.14  1485.76
                             1503.74  1546.28  1601.92  1626.07  1678.40
                             1685.37  1702.94  1743.05  1765.47  1791.10
                             1832.89  1907.46  1931.87  1994.36  2050.24
                             2132.50  2140.14  2162.71  2191.58  2195.97
                             3221.16  4247.60  4279.51  4293.18  4342.60
                             4356.47  4377.13  4408.54  4435.59  4485.36
                             5041.59

 Zero-point correction=                           0.156693 (Hartree/Particle)
 Thermal correction to Energy=                    0.166509
 Thermal correction to Enthalpy=                  0.167453
 Thermal correction to Gibbs Free Energy=         0.120738
 Sum of electronic and zero-point Energies=           -422.955125
 Sum of electronic and thermal Energies=              -422.945309
 Sum of electronic and thermal Enthalpies=            -422.944365
 Sum of electronic and thermal Free Energies=         -422.991080

                     E (Thermal)             CV                S
                      KCal/Mol        Cal/Mol-Kelvin    Cal/Mol-Kelvin
 Total                  104.486             34.457             98.319
 Electronic               0.000              0.000              0.000
 Translational            0.889              2.981             40.409
 Rotational               0.889              2.981             29.487
 Vibrational            102.708             28.495             28.424
 Vibration     1          0.595              1.978              4.844
 Vibration     2          0.597              1.971              4.279
 Vibration     3          0.601              1.958              3.732
 Vibration     4          0.618              1.904              2.685
 Vibration     5          0.631              1.860              2.275
 Vibration     6          0.639              1.837              2.114
 Vibration     7          0.655              1.786              1.835
 Vibration     8          0.708              1.628              1.292
 Vibration     9          0.764              1.475              0.971
 Vibration    10          0.798              1.389              0.835
 Vibration    11          0.866              1.225              0.631
 Vibration    12          0.890              1.173              0.577

 Normal termination of Gaussian 09 at Tue Jan 28 15:06:16 2020.
