 Gaussian 09, Revision D.01,
 Gaussian 09:  ES64L-G09RevD.01 24-Apr-2013

 -----------------------------
 # b3lyp 6-31G(2df,p) opt Freq
 -----------------------------

 -----
 titel
 -----
 Symbolic Z-matrix:
 Charge =  0 Multiplicity = 1

 SCF Done:  E(RB3LYP) =  -423.161251493     A.U. after   14 cycles
 Optimization completed.
    -- Stationary point found.
 Normal termination of Gaussian 09 at Mon Jan 27 14:03:15 2020.

 ----------------------------------------------------------------------
 #N Geom=AllCheck Guess=TCheck SCRF=Check GenChk RB3LYP/6-31G(2df,p) Fr
 eq
 ----------------------------------------------------------------------

 Structure from the checkpoint file:  "/scratch/puck/g09_d3c5a3a8-8639-4b1a-b0d8-cecbaf7505a3/Gau-170312.chk"
 -----
 titel
 -----
 Charge =  0 Multiplicity = 1

                         Standard orientation:
 ---------------------------------------------------------------------
 Center     Atomic      Atomic             Coordinates (Angstroms)
 Number     Number       Type             X           Y           Z
 ---------------------------------------------------------------------
      1          6           0       -2.815149    0.670461    0.266798
      2          6           0       -1.520606    0.049136   -0.233989
      3          8           0       -1.523166   -0.860480   -1.036011
      4          6           0       -0.271480    0.625458    0.350366
      5          6           0        0.730058   -0.193491    1.171623
      6          8           0        0.837646   -1.527577    0.722150
      7          6           0        1.341168   -1.057703   -0.563763
      8          6           0        1.158566    0.406403   -0.137225
      9          6           0        2.079124    1.536402   -0.494239
     10          1           0       -2.865711    0.623598    1.360427
     11          1           0       -2.859138    1.730553   -0.009740
     12          1           0       -3.666927    0.145138   -0.166320
     13          1           0       -0.399302    1.612751    0.790580
     14          1           0        0.950319    0.021383    2.212083
     15          1           0        2.399820   -1.322319   -0.665891
     16          1           0        0.751798   -1.430777   -1.399805
     17          1           0        1.925548    1.859545   -1.530421
     18          1           0        1.909352    2.404957    0.149862
     19          1           0        3.128321    1.239625   -0.387313
 ---------------------------------------------------------------------

 SCF Done:  E(RB3LYP) =  -423.161251493     A.U. after    1 cycles

 The electronic state is 1-A.
 Alpha  occ. eigenvalues --  -19.14201 -19.12036 -10.26584 -10.25102 -10.22980
 Alpha  occ. eigenvalues --  -10.21239 -10.20066 -10.19248 -10.18552  -1.05897
 Alpha  occ. eigenvalues --   -1.02955  -0.84863  -0.75318  -0.72811  -0.68579
 Alpha  occ. eigenvalues --   -0.63586  -0.55178  -0.53470  -0.49647  -0.47533
 Alpha  occ. eigenvalues --   -0.45788  -0.43752  -0.43120  -0.42028  -0.41274
 Alpha  occ. eigenvalues --   -0.40924  -0.39319  -0.38490  -0.36256  -0.32790
 Alpha  occ. eigenvalues --   -0.32081  -0.28319  -0.24728  -0.22829
 Alpha virt. eigenvalues --   -0.01117   0.07632   0.08825   0.11283   0.11778
 Alpha virt. eigenvalues --    0.12694   0.13146   0.15086   0.15644   0.16487
 Alpha virt. eigenvalues --    0.17097   0.18447   0.18879   0.20292   0.21260

 Mulliken charges:
               1
     1  C   -0.482422
     2  C    0.387730
     3  O   -0.316121
     4  C   -0.211768
     5  C    0.055095
     6  O   -0.275196
     7  C   -0.122435
     8  C    0.222291
     9  C   -0.496900
    10  H    0.139000
    11  H    0.135537
    12  H    0.140928
    13  H    0.090036
    14  H    0.109604
    15  H    0.102793
    16  H    0.143293
    17  H    0.130656
    18  H    0.122453
    19  H    0.125426
 Sum of Mulliken charges =   0.00000

 Dipole moment (field-independent basis, Debye):
    X=              0.9683    Y=              3.2881    Z=              1.0434  Tot=              3.5830
 Quadrupole moment (field-independent basis, Debye-Ang):
   XX=            -49.8592   YY=            -55.8280   ZZ=            -52.8349
   XY=             -2.1912   XZ=             -3.5849   YZ=              0.9532

  Exact polarizability:  90.854  -2.728  72.412  -1.926   4.725  68.889
 Approx polarizability: 115.472  -4.414 112.553   0.350   9.389 112.418

                      1                      2                      3
                      A                      A                      A
 Frequencies --     46.6616               119.2714               139.0389
 Red. masses --      3.8224                 1.2245                 2.7786
 Frc consts  --      0.0049                 0.0103                 0.0316
 IR Inten    --      2.3981                 0.4093                 0.9874

                      4                      5                      6
                      A                      A                      A
 Frequencies --    182.9612               200.0357               245.1247
 Red. masses --      1.3740                 2.2488                 3.0239
 Frc consts  --      0.0271                 0.0530                 0.1071
 IR Inten    --      0.5241                 1.5913                 1.9257

                      7                      8                      9
                      A                      A                      A
 Frequencies --    306.8172               341.8138               416.4513
 Red. masses --      2.4583                 2.8238                 3.3397
 Frc consts  --      0.1363                 0.1944                 0.3413
 IR Inten    --      0.5779                 1.1852                 6.6106

                     10                     11                     12
                      A                      A                      A
 Frequencies --    434.4022               594.9237               623.7819
 Red. masses --      3.4043                 3.1780                 2.6509
 Frc consts  --      0.3785                 0.6627                 0.6077
 IR Inten    --      2.0604                15.7677                 0.2629

                     13                     14                     15
                      A                      A                      A
 Frequencies --    646.6581               765.5576               815.0860
 Red. masses --      3.2898                 4.0721                 3.5275
 Frc consts  --      0.8105                 1.4061                 1.3808
 IR Inten    --      1.2245                14.7460                 1.8182

                     16                     17                     18
                      A                      A                      A
 Frequencies --    874.7643               907.7645               924.9558
 Red. masses --      2.3366                 2.2806                 1.6544
 Frc consts  --      1.0535                 1.1072                 0.8339
 IR Inten    --     34.5591                45.1897                 1.6871

                     19                     20                     21
                      A                      A                      A
 Frequencies --    967.6287               982.3243              1006.2749
 Red. masses --      2.1405                 3.1346                 1.8510
 Frc consts  --      1.1808                 1.7822                 1.1043
 IR Inten    --      9.5955                40.3619                 9.1321

                     22                     23                     24
                      A                      A                      A
 Frequencies --   1014.4943              1044.5761              1073.7245
 Red. masses --      1.8158                 1.8797                 2.3368
 Frc consts  --      1.1011                 1.2084                 1.5873
 IR Inten    --      5.9008                 2.0580                38.1848

                     25                     26                     27
                      A                      A                      A
 Frequencies --   1084.4299              1126.6522              1170.6430
 Red. masses --      1.7471                 1.8243                 1.3541
 Frc consts  --      1.2105                 1.3644                 1.0933
 IR Inten    --      6.6154                 0.6646                27.8232

                     28                     29                     30
                      A                      A                      A
 Frequencies --   1186.8590              1244.4160              1253.7393
 Red. masses --      1.7944                 1.4045                 3.1380
 Frc consts  --      1.4892                 1.2815                 2.9062
 IR Inten    --     61.5899                 2.0841                71.2800

                     31                     32                     33
                      A                      A                      A
 Frequencies --   1297.9929              1365.8047              1379.4819
 Red. masses --      1.6696                 1.4314                 1.4283
 Frc consts  --      1.6573                 1.5732                 1.6014
 IR Inten    --      1.9712                12.4781                31.4132

                     34                     35                     36
                      A                      A                      A
 Frequencies --   1417.5424              1461.9278              1472.7987
 Red. masses --      1.2347                 1.1513                 1.3560
 Frc consts  --      1.4617                 1.4497                 1.7330
 IR Inten    --      3.5906                16.8883                22.0667

                     37                     38                     39
                      A                      A                      A
 Frequencies --   1477.9270              1486.7764              1493.7802
 Red. masses --      1.4865                 1.1352                 1.1069
 Frc consts  --      1.9130                 1.4785                 1.4552
 IR Inten    --     28.7911                11.3902                 3.1466

                     40                     41                     42
                      A                      A                      A
 Frequencies --   1498.0802              1792.1400              3025.6727
 Red. masses --      1.0699                10.1971                 1.0362
 Frc consts  --      1.4147                19.2961                 5.5888
 IR Inten    --      7.0867               131.4385                27.6391

                     43                     44                     45
                      A                      A                      A
 Frequencies --   3032.6743              3040.0433              3087.2001
 Red. masses --      1.0372                 1.0655                 1.1008
 Frc consts  --      5.6206                 5.8015                 6.1815
 IR Inten    --      3.6058                64.2999                19.5496

                     46                     47                     48
                      A                      A                      A
 Frequencies --   3093.0459              3100.6779              3130.6562
 Red. masses --      1.0981                 1.1005                 1.0853
 Frc consts  --      6.1898                 6.2337                 6.2671
 IR Inten    --      9.0205                18.9223                 7.9378

                     49                     50                     51
                      A                      A                      A
 Frequencies --   3151.6131              3152.7107              3170.0515
 Red. masses --      1.1001                 1.1014                 1.0934
 Frc consts  --      6.4379                 6.4503                 6.4739
 IR Inten    --      7.4234                13.4709                20.1767

 - Thermochemistry -
 -------------------
 Temperature   298.150 Kelvin.  Pressure   1.00000 Atm.
 Atom     1 has atomic number  6 and mass  12.00000

 Molecular mass:   126.06808 amu.
 Principal axes and moments of inertia in atomic units:
                           1         2         3
     Eigenvalues --   671.158871382.265681596.08576
           X            0.99953   0.00126  -0.03058
           Y           -0.00021   0.99941   0.03424
           Z            0.03060  -0.03422   0.99895
 This molecule is an asymmetric top.
 Rotational symmetry number  1.
 Warning -- assumption of classical behavior for rotation
           may cause significant error
 Rotational temperatures (Kelvin)      0.12905     0.06266     0.05427
 Rotational constants (GHZ):           2.68899     1.30564     1.13073
 Zero-point vibrational energy     411936.6 (Joules/Mol)
                                   98.45522 (Kcal/Mol)
 Warning -- explicit consideration of  11 degrees of freedom as
           vibrations may cause significant error
 Vibrational temperatures:     67.14   171.60   200.05   263.24   287.81
          (Kelvin)            352.68   441.44   491.79   599.18   625.01
                              855.96   897.48   930.40  1101.47  1172.73
                             1258.59  1306.07  1330.80  1392.20  1413.34
                             1447.80  1459.63  1502.91  1544.85  1560.25
                             1621.00  1684.29  1707.62  1790.43  1803.85
                             1867.52  1965.09  1984.76  2039.52  2103.39
                             2119.03  2126.40  2139.14  2149.21  2155.40
                             2578.49  4353.26  4363.34  4373.94  4441.79
                             4450.20  4461.18  4504.31  4534.46  4536.04
                             4560.99

 Zero-point correction=                           0.156898 (Hartree/Particle)
 Thermal correction to Energy=                    0.166091
 Thermal correction to Enthalpy=                  0.167035
 Thermal correction to Gibbs Free Energy=         0.122527
 Sum of electronic and zero-point Energies=           -423.004353
 Sum of electronic and thermal Energies=              -422.995161
 Sum of electronic and thermal Enthalpies=            -422.994216
 Sum of electronic and thermal Free Energies=         -423.038725

                     E (Thermal)             CV                S
                      KCal/Mol        Cal/Mol-Kelvin    Cal/Mol-Kelvin
 Total                  104.224             33.635             93.675
 Electronic               0.000              0.000              0.000
 Translational            0.889              2.981             40.409
 Rotational               0.889              2.981             28.784
 Vibrational            102.446             27.673             24.483
 Vibration     1          0.595              1.979              4.954
 Vibration     2          0.609              1.933              3.112
 Vibration     3          0.615              1.914              2.817
 Vibration     4          0.630              1.863              2.298
 Vibration     5          0.638              1.840              2.133
 Vibration     6          0.660              1.771              1.765
 Vibration     7          0.697              1.661              1.379
 Vibration     8          0.721              1.592              1.204
 Vibration     9          0.780              1.435              0.904
 Vibration    10          0.795              1.395              0.844
 Vibration    11          0.953              1.043              0.458

 Normal termination of Gaussian 09 at Mon Jan 27 14:42:33 2020.
