 Gaussian 09, Revision D.01,
 Gaussian 09:  ES64L-G09RevD.01 24-Apr-2013

 -----------------------------
 # b3lyp 6-31G(2df,p) opt Freq
 -----------------------------

 -----
 titel
 -----
 Symbolic Z-matrix:
 Charge =  0 Multiplicity = 1

 SCF Done:  E(RB3LYP) =  -423.185899329     A.U. after   13 cycles
 Optimization completed.
    -- Stationary point found.
 Normal termination of Gaussian 09 at Mon Jan 27 11:19:36 2020.

 ----------------------------------------------------------------------
 #N Geom=AllCheck Guess=TCheck SCRF=Check GenChk RB3LYP/6-31G(2df,p) Fr
 eq
 ----------------------------------------------------------------------

 Structure from the checkpoint file:  "/scratch/puck/g09_196adb62-66cf-4d54-a31c-33fe1219808e/Gau-164778.chk"
 -----
 titel
 -----
 Charge =  0 Multiplicity = 1

                         Standard orientation:
 ---------------------------------------------------------------------
 Center     Atomic      Atomic             Coordinates (Angstroms)
 Number     Number       Type             X           Y           Z
 ---------------------------------------------------------------------
      1          6           0        1.620727    0.436776   -0.703018
      2          6           0        1.171916   -0.943031   -0.151065
      3          6           0       -0.106012   -1.496410   -0.804140
      4          6           0       -1.227207   -0.700624   -0.098485
      5          6           0       -1.413426    0.732613   -0.639333
      6          8           0       -0.500837    1.663284   -0.066239
      7          6           0        0.736783    1.143779    0.365138
      8          6           0        0.577687   -0.227177    1.111413
      9          8           0       -0.774412   -0.609308    1.254606
     10          1           0        2.683499    0.632826   -0.536899
     11          1           0        1.388122    0.655931   -1.748876
     12          1           0        1.945406   -1.698982   -0.013492
     13          1           0       -0.123745   -1.380759   -1.891797
     14          1           0       -0.221856   -2.558489   -0.571035
     15          1           0       -2.184621   -1.227238   -0.103781
     16          1           0       -1.335456    0.734263   -1.738436
     17          1           0       -2.409102    1.103234   -0.376287
     18          1           0        1.213229    1.955721    0.918453
     19          1           0        1.083701   -0.323878    2.072155
 ---------------------------------------------------------------------

 SCF Done:  E(RB3LYP) =  -423.185899329     A.U. after    1 cycles

 The electronic state is 1-A.
 Alpha  occ. eigenvalues --  -19.14144 -19.13828 -10.23362 -10.22697 -10.22634
 Alpha  occ. eigenvalues --  -10.22493 -10.18776 -10.18546 -10.17942  -1.05827
 Alpha  occ. eigenvalues --   -1.01402  -0.83191  -0.77910  -0.68706  -0.66878
 Alpha  occ. eigenvalues --   -0.63711  -0.57085  -0.53370  -0.51518  -0.49241
 Alpha  occ. eigenvalues --   -0.47479  -0.45107  -0.43160  -0.41958  -0.41040
 Alpha  occ. eigenvalues --   -0.38300  -0.37042  -0.34874  -0.33388  -0.32573
 Alpha  occ. eigenvalues --   -0.31065  -0.30086  -0.25519  -0.22898
 Alpha virt. eigenvalues --    0.06643   0.09167   0.10762   0.12360   0.13117
 Alpha virt. eigenvalues --    0.13670   0.14677   0.16011   0.16561   0.17702
 Alpha virt. eigenvalues --    0.18096   0.18982   0.20967   0.21853   0.22530

 Mulliken charges:
               1
     1  C   -0.271746
     2  C   -0.061587
     3  C   -0.233214
     4  C    0.041290
     5  C   -0.078748
     6  O   -0.255905
     7  C    0.085725
     8  C    0.093898
     9  O   -0.245875
    10  H    0.103175
    11  H    0.101639
    12  H    0.069969
    13  H    0.100285
    14  H    0.107499
    15  H    0.083900
    16  H    0.086862
    17  H    0.112037
    18  H    0.083327
    19  H    0.077470
 Sum of Mulliken charges =   0.00000

 Dipole moment (field-independent basis, Debye):
    X=              0.8610    Y=             -1.1397    Z=             -1.1734  Tot=              1.8485
 Quadrupole moment (field-independent basis, Debye-Ang):
   XX=            -49.7493   YY=            -55.7637   ZZ=            -53.7994
   XY=              1.2613   XZ=              3.5415   YZ=              1.3372

  Exact polarizability:  78.762   1.502  70.956   3.474   1.541  67.812
 Approx polarizability: 110.823   1.870 102.526   3.350   1.527 105.202

                      1                      2                      3
                      A                      A                      A
 Frequencies --    146.5251               295.2974               360.2822
 Red. masses --      2.6206                 2.3039                 3.1150
 Frc consts  --      0.0331                 0.1184                 0.2382
 IR Inten    --      3.1913                 0.0208                 2.3055

                      4                      5                      6
                      A                      A                      A
 Frequencies --    407.6027               446.4826               537.5694
 Red. masses --      2.0595                 3.8760                 4.5156
 Frc consts  --      0.2016                 0.4552                 0.7688
 IR Inten    --      0.9332                 2.4560                 0.3507

                      7                      8                      9
                      A                      A                      A
 Frequencies --    587.3324               647.3543               743.6421
 Red. masses --      4.6890                 5.6863                 2.3346
 Frc consts  --      0.9530                 1.4040                 0.7607
 IR Inten    --      5.8365                 5.5085                 4.5671

                     10                     11                     12
                      A                      A                      A
 Frequencies --    808.1105               817.0195               836.2007
 Red. masses --      2.8363                 2.6127                 3.3092
 Frc consts  --      1.0913                 1.0276                 1.3633
 IR Inten    --     16.8699                 3.0926                13.1475

                     13                     14                     15
                      A                      A                      A
 Frequencies --    851.1239               881.6879               910.5162
 Red. masses --      2.7608                 2.1707                 2.2800
 Frc consts  --      1.1784                 0.9942                 1.1137
 IR Inten    --      5.7702                 7.3530                 4.7493

                     16                     17                     18
                      A                      A                      A
 Frequencies --    943.4570               951.1484               975.2637
 Red. masses --      3.0658                 2.0097                 2.1788
 Frc consts  --      1.6078                 1.0712                 1.2210
 IR Inten    --     13.0790                19.8691                13.2700

                     19                     20                     21
                      A                      A                      A
 Frequencies --   1001.0195              1048.4396              1061.3202
 Red. masses --      2.4540                 1.8593                 1.9745
 Frc consts  --      1.4488                 1.2042                 1.3104
 IR Inten    --      3.2183                 1.8940                 4.7506

                     22                     23                     24
                      A                      A                      A
 Frequencies --   1085.0694              1105.2416              1129.9321
 Red. masses --      2.0042                 5.0754                 1.8031
 Frc consts  --      1.3903                 3.6529                 1.3564
 IR Inten    --      8.7964                57.4125                18.5011

                     25                     26                     27
                      A                      A                      A
 Frequencies --   1145.8773              1187.2250              1210.4376
 Red. masses --      1.6399                 1.8924                 1.5788
 Frc consts  --      1.2686                 1.5715                 1.3629
 IR Inten    --     15.1418                36.8717                40.5853

                     28                     29                     30
                      A                      A                      A
 Frequencies --   1238.8445              1240.1342              1253.7524
 Red. masses --      1.3943                 1.5780                 1.3402
 Frc consts  --      1.2607                 1.4298                 1.2412
 IR Inten    --      0.2122                13.3052                 0.4863

                     31                     32                     33
                      A                      A                      A
 Frequencies --   1273.8871              1295.9310              1302.1374
 Red. masses --      1.4156                 1.5784                 1.3000
 Frc consts  --      1.3535                 1.5618                 1.2987
 IR Inten    --      0.7536                 7.1235                 3.2840

                     34                     35                     36
                      A                      A                      A
 Frequencies --   1332.0743              1354.6585              1370.7509
 Red. masses --      1.3992                 1.4824                 1.2656
 Frc consts  --      1.4628                 1.6028                 1.4011
 IR Inten    --      2.2724                 0.8169                 1.7033

                     37                     38                     39
                      A                      A                      A
 Frequencies --   1378.6483              1416.4179              1471.9654
 Red. masses --      1.4900                 1.3661                 1.1040
 Frc consts  --      1.6686                 1.6148                 1.4093
 IR Inten    --      7.3467                 5.2479                 3.4605

                     40                     41                     42
                      A                      A                      A
 Frequencies --   1486.4373              1512.9452              2974.4954
 Red. masses --      1.1014                 1.0866                 1.0710
 Frc consts  --      1.4337                 1.4655                 5.5828
 IR Inten    --      4.8904                 2.2927                59.0724

                     43                     44                     45
                      A                      A                      A
 Frequencies --   3054.9604              3055.1997              3067.5979
 Red. masses --      1.0590                 1.0610                 1.0910
 Frc consts  --      5.8233                 5.8350                 6.0486
 IR Inten    --     22.5943                17.3945                24.1131

                     46                     47                     48
                      A                      A                      A
 Frequencies --   3084.7919              3087.7932              3097.7961
 Red. masses --      1.0897                 1.0882                 1.0930
 Frc consts  --      6.1096                 6.1129                 6.1800
 IR Inten    --     44.6790                44.8097                28.1801

                     49                     50                     51
                      A                      A                      A
 Frequencies --   3104.5437              3109.7428              3118.1178
 Red. masses --      1.1045                 1.1009                 1.0927
 Frc consts  --      6.2724                 6.2724                 6.2594
 IR Inten    --     25.6775                 7.4899                61.0803

 - Thermochemistry -
 -------------------
 Temperature   298.150 Kelvin.  Pressure   1.00000 Atm.
 Atom     1 has atomic number  6 and mass  12.00000

 Molecular mass:   126.06808 amu.
 Principal axes and moments of inertia in atomic units:
                           1         2         3
     Eigenvalues --   764.25779 781.379591002.96636
           X            0.97831   0.20139   0.04843
           Y           -0.20322   0.97846   0.03638
           Z           -0.04006  -0.04543   0.99816
 This molecule is an asymmetric top.
 Rotational symmetry number  1.
 Warning -- assumption of classical behavior for rotation
           may cause significant error
 Rotational temperatures (Kelvin)      0.11333     0.11085     0.08636
 Rotational constants (GHZ):           2.36143     2.30969     1.79940
 Zero-point vibrational energy     429488.1 (Joules/Mol)
                                  102.65012 (Kcal/Mol)
 Warning -- explicit consideration of   7 degrees of freedom as
           vibrations may cause significant error
 Vibrational temperatures:    210.82   424.87   518.37   586.45   642.39
          (Kelvin)            773.44   845.04   931.40  1069.93  1162.69
                             1175.51  1203.10  1224.58  1268.55  1310.03
                             1357.42  1368.49  1403.19  1440.24  1508.47
                             1527.00  1561.17  1590.19  1625.72  1648.66
                             1708.15  1741.55  1782.42  1784.27  1803.87
                             1832.84  1864.55  1873.48  1916.56  1949.05
                             1972.20  1983.56  2037.91  2117.83  2138.65
                             2176.79  4279.63  4395.40  4395.75  4413.58
                             4438.32  4442.64  4457.03  4466.74  4474.22
                             4486.27

 Zero-point correction=                           0.163583 (Hartree/Particle)
 Thermal correction to Energy=                    0.169889
 Thermal correction to Enthalpy=                  0.170833
 Thermal correction to Gibbs Free Energy=         0.133183
 Sum of electronic and zero-point Energies=           -423.022316
 Sum of electronic and thermal Energies=              -423.016010
 Sum of electronic and thermal Enthalpies=            -423.015066
 Sum of electronic and thermal Free Energies=         -423.052717

                     E (Thermal)             CV                S
                      KCal/Mol        Cal/Mol-Kelvin    Cal/Mol-Kelvin
 Total                  106.607             26.861             79.242
 Electronic               0.000              0.000              0.000
 Translational            0.889              2.981             40.409
 Rotational               0.889              2.981             27.884
 Vibrational            104.830             20.899             10.950
 Vibration     1          0.617              1.906              2.717
 Vibration     2          0.690              1.683              1.443
 Vibration     3          0.735              1.554              1.121
 Vibration     4          0.772              1.454              0.935
 Vibration     5          0.806              1.369              0.806
 Vibration     6          0.893              1.167              0.571
 Vibration     7          0.944              1.059              0.472

 Normal termination of Gaussian 09 at Mon Jan 27 12:11:27 2020.
