 Gaussian 09, Revision D.01,
 Gaussian 09:  ES64L-G09RevD.01 24-Apr-2013

 -----------------------------
 # b3lyp 6-31G(2df,p) opt Freq
 -----------------------------

 -----
 titel
 -----
 Symbolic Z-matrix:
 Charge =  0 Multiplicity = 1

 SCF Done:  E(RB3LYP) =  -423.194742185     A.U. after   14 cycles
 Optimization completed.
    -- Stationary point found.
 Normal termination of Gaussian 09 at Mon Jan 27 22:03:46 2020.

 ----------------------------------------------------------------------
 #N Geom=AllCheck Guess=TCheck SCRF=Check GenChk RB3LYP/6-31G(2df,p) Fr
 eq
 ----------------------------------------------------------------------

 Structure from the checkpoint file:  "/scratch/puck/g09_d1f1318a-0a89-4051-a670-1aca80240828/Gau-15037.chk"
 -----
 titel
 -----
 Charge =  0 Multiplicity = 1

                         Standard orientation:
 ---------------------------------------------------------------------
 Center     Atomic      Atomic             Coordinates (Angstroms)
 Number     Number       Type             X           Y           Z
 ---------------------------------------------------------------------
      1          6           0        0.000378    2.219625    0.096221
      2          6           0        0.000123    0.736354   -0.230093
      3          6           0        1.095724   -0.182367    0.406644
      4          6           0       -0.000222   -1.277056    0.552536
      5          6           0       -1.095820   -0.182004    0.406527
      6          6           0       -2.289889   -0.503507   -0.446451
      7          8           0       -3.438275   -0.306844   -0.143174
      8          6           0        2.289779   -0.504068   -0.446282
      9          8           0        3.438142   -0.306832   -0.143291
     10          1           0        0.886099    2.712085   -0.318797
     11          1           0       -0.885062    2.712440   -0.318978
     12          1           0        0.000302    2.384026    1.178578
     13          1           0        0.000147    0.586301   -1.318408
     14          1           0        1.432168    0.202607    1.372389
     15          1           0       -0.000284   -1.957688   -0.307097
     16          1           0       -0.000387   -1.869338    1.468352
     17          1           0       -1.432256    0.203019    1.372255
     18          1           0       -2.026157   -0.952365   -1.435811
     19          1           0        2.026057   -0.953529   -1.435372
 ---------------------------------------------------------------------

 SCF Done:  E(RB3LYP) =  -423.194742185     A.U. after    1 cycles

 The electronic state is 1-A.
 Alpha  occ. eigenvalues --  -19.14701 -19.14701 -10.27722 -10.27722 -10.22278
 Alpha  occ. eigenvalues --  -10.21551 -10.21018 -10.21017 -10.19349  -1.05355
 Alpha  occ. eigenvalues --   -1.05333  -0.88264  -0.75083  -0.73560  -0.65335
 Alpha  occ. eigenvalues --   -0.62649  -0.58159  -0.57194  -0.50320  -0.47801
 Alpha  occ. eigenvalues --   -0.46008  -0.44963  -0.43851  -0.43361  -0.42898
 Alpha  occ. eigenvalues --   -0.40185  -0.40168  -0.38563  -0.35765  -0.35724
 Alpha  occ. eigenvalues --   -0.34011  -0.31968  -0.26744  -0.24847
 Alpha virt. eigenvalues --   -0.04638  -0.02042   0.07818   0.08699   0.09738
 Alpha virt. eigenvalues --    0.11139   0.12951   0.13584   0.14704   0.16100
 Alpha virt. eigenvalues --    0.16216   0.16295   0.17823   0.18077   0.19551

 Mulliken charges:
               1
     1  C   -0.415656
     2  C   -0.004785
     3  C   -0.073664
     4  C   -0.283556
     5  C   -0.073671
     6  C    0.153832
     7  O   -0.245812
     8  C    0.153826
     9  O   -0.245812
    10  H    0.131382
    11  H    0.131369
    12  H    0.125094
    13  H    0.083370
    14  H    0.095670
    15  H    0.112742
    16  H    0.127592
    17  H    0.095668
    18  H    0.066206
    19  H    0.066206
 Sum of Mulliken charges =   0.00000

 Dipole moment (field-independent basis, Debye):
    X=              0.0001    Y=             -0.0469    Z=             -0.2703  Tot=              0.2744
 Quadrupole moment (field-independent basis, Debye-Ang):
   XX=            -79.7301   YY=            -50.4081   ZZ=            -50.6996
   XY=             -0.0017   XZ=              0.0013   YZ=              0.0714

  Exact polarizability:  97.611   0.001  70.525  -0.001   3.025  67.229
 Approx polarizability: 142.875   0.004  97.577  -0.003   5.209 104.448

                      1                      2                      3
                      A                      A                      A
 Frequencies --     54.8445                63.8076                68.9351
 Red. masses --      7.1380                 4.9832                 3.9420
 Frc consts  --      0.0127                 0.0120                 0.0110
 IR Inten    --     11.8015                 5.9987                 0.1170

                      4                      5                      6
                      A                      A                      A
 Frequencies --    208.3999               215.1983               218.6180
 Red. masses --      1.3502                 1.6587                 2.3154
 Frc consts  --      0.0346                 0.0453                 0.0652
 IR Inten    --      0.0775                 0.0964                 2.2895

                      7                      8                      9
                      A                      A                      A
 Frequencies --    296.2491               308.6837               374.4199
 Red. masses --      2.1319                 2.8660                11.5552
 Frc consts  --      0.1102                 0.1609                 0.9544
 IR Inten    --      2.6532                 1.7192                 1.2331

                     10                     11                     12
                      A                      A                      A
 Frequencies --    381.9264               469.1620               533.2212
 Red. masses --      2.2730                 2.5247                 4.6542
 Frc consts  --      0.1953                 0.3274                 0.7797
 IR Inten    --      0.0255                 7.0166                 7.4294

                     13                     14                     15
                      A                      A                      A
 Frequencies --    644.3134               796.4658               853.9334
 Red. masses --      2.9659                 1.8684                 2.0129
 Frc consts  --      0.7254                 0.6983                 0.8648
 IR Inten    --     15.4693                 2.9300                 4.5660

                     16                     17                     18
                      A                      A                      A
 Frequencies --    892.7927               893.6638               951.6064
 Red. masses --      2.0094                 2.5052                 1.4556
 Frc consts  --      0.9437                 1.1788                 0.7766
 IR Inten    --      2.3934                 3.3270                 3.0539

                     19                     20                     21
                      A                      A                      A
 Frequencies --   1010.8148              1049.2681              1081.0219
 Red. masses --      1.2677                 2.8067                 2.9541
 Frc consts  --      0.7632                 1.8206                 2.0339
 IR Inten    --      0.2908                73.5733                 4.9323

                     22                     23                     24
                      A                      A                      A
 Frequencies --   1086.0232              1091.8135              1115.8821
 Red. masses --      1.9126                 2.6648                 2.4770
 Frc consts  --      1.3291                 1.8716                 1.8173
 IR Inten    --      4.9548                 0.4388                 1.4158

                     25                     26                     27
                      A                      A                      A
 Frequencies --   1170.1219              1176.5367              1213.6954
 Red. masses --      1.7671                 2.5391                 1.3305
 Frc consts  --      1.4255                 2.0708                 1.1547
 IR Inten    --      1.1905                19.5124                12.3909

                     28                     29                     30
                      A                      A                      A
 Frequencies --   1248.0349              1267.6468              1272.1949
 Red. masses --      1.3533                 1.3648                 1.1695
 Frc consts  --      1.2419                 1.2921                 1.1152
 IR Inten    --      3.7131                 1.9095                 2.0652

                     31                     32                     33
                      A                      A                      A
 Frequencies --   1308.7496              1332.6910              1378.8933
 Red. masses --      1.4785                 1.3941                 1.5059
 Frc consts  --      1.4921                 1.4588                 1.6870
 IR Inten    --      1.2615                 1.3494                 6.4759

                     34                     35                     36
                      A                      A                      A
 Frequencies --   1412.8780              1427.4601              1432.7185
 Red. masses --      1.2576                 1.1854                 1.2431
 Frc consts  --      1.4791                 1.4231                 1.5034
 IR Inten    --      2.7370                 3.1747                 3.5995

                     37                     38                     39
                      A                      A                      A
 Frequencies --   1486.0058              1490.5837              1495.3539
 Red. masses --      1.1104                 1.0444                 1.0484
 Frc consts  --      1.4447                 1.3672                 1.3812
 IR Inten    --      4.5555                 8.0856                 1.3741

                     40                     41                     42
                      A                      A                      A
 Frequencies --   1828.4341              1831.4936              2829.8220
 Red. masses --     10.5230                10.4805                 1.0802
 Frc consts  --     20.7275                20.7130                 5.0967
 IR Inten    --    407.0080                 7.8424                 0.7357

                     43                     44                     45
                      A                      A                      A
 Frequencies --   2832.8390              3014.0606              3032.4652
 Red. masses --      1.0812                 1.0823                 1.0351
 Frc consts  --      5.1122                 5.7931                 5.6082
 IR Inten    --    186.4792                14.6508                18.3859

                     46                     47                     48
                      A                      A                      A
 Frequencies --   3042.3487              3087.3898              3089.9127
 Red. masses --      1.0652                 1.0854                 1.0864
 Frc consts  --      5.8089                 6.0956                 6.1116
 IR Inten    --     19.5066                 2.8883                15.1996

                     49                     50                     51
                      A                      A                      A
 Frequencies --   3103.2406              3105.6768              3125.7847
 Red. masses --      1.1014                 1.1013                 1.1007
 Frc consts  --      6.2494                 6.2584                 6.3363
 IR Inten    --     14.9773                23.3498                23.6043

 - Thermochemistry -
 -------------------
 Temperature   298.150 Kelvin.  Pressure   1.00000 Atm.
 Atom     1 has atomic number  6 and mass  12.00000

 Molecular mass:   126.06808 amu.
 Principal axes and moments of inertia in atomic units:
                           1         2         3
     Eigenvalues --   544.994752050.419952399.94672
           X            1.00000   0.00000   0.00000
           Y            0.00000   0.99989   0.01483
           Z            0.00000  -0.01483   0.99989
 This molecule is an asymmetric top.
 Rotational symmetry number  1.
 Warning -- assumption of classical behavior for rotation
           may cause significant error
 Rotational temperatures (Kelvin)      0.15893     0.04224     0.03609
 Rotational constants (GHZ):           3.31148     0.88018     0.75199
 Zero-point vibrational energy     410905.9 (Joules/Mol)
                                   98.20886 (Kcal/Mol)
 Warning -- explicit consideration of  12 degrees of freedom as
           vibrations may cause significant error
 Vibrational temperatures:     78.91    91.80    99.18   299.84   309.62
          (Kelvin)            314.54   426.24   444.13   538.71   549.51
                              675.02   767.19   927.02  1145.94  1228.62
                             1284.53  1285.78  1369.15  1454.34  1509.66
                             1555.35  1562.54  1570.87  1605.50  1683.54
                             1692.77  1746.23  1795.64  1823.86  1830.40
                             1883.00  1917.44  1983.92  2032.81  2053.79
                             2061.36  2138.03  2144.61  2151.48  2630.71
                             2635.11  4071.48  4075.82  4336.56  4363.04
                             4377.26  4442.06  4445.69  4464.87  4468.37
                             4497.30

 Zero-point correction=                           0.156506 (Hartree/Particle)
 Thermal correction to Energy=                    0.166091
 Thermal correction to Enthalpy=                  0.167035
 Thermal correction to Gibbs Free Energy=         0.120875
 Sum of electronic and zero-point Energies=           -423.038236
 Sum of electronic and thermal Energies=              -423.028651
 Sum of electronic and thermal Enthalpies=            -423.027707
 Sum of electronic and thermal Free Energies=         -423.073868

                     E (Thermal)             CV                S
                      KCal/Mol        Cal/Mol-Kelvin    Cal/Mol-Kelvin
 Total                  104.223             33.757             97.153
 Electronic               0.000              0.000              0.000
 Translational            0.889              2.981             40.409
 Rotational               0.889              2.981             29.374
 Vibrational            102.446             27.796             27.370
 Vibration     1          0.596              1.976              4.635
 Vibration     2          0.597              1.972              4.336
 Vibration     3          0.598              1.969              4.184
 Vibration     4          0.642              1.828              2.058
 Vibration     5          0.645              1.818              1.999
 Vibration     6          0.646              1.813              1.971
 Vibration     7          0.690              1.681              1.438
 Vibration     8          0.698              1.657              1.369
 Vibration     9          0.746              1.525              1.062
 Vibration    10          0.751              1.509              1.032
 Vibration    11          0.826              1.318              0.740
 Vibration    12          0.888              1.177              0.580

 Optimization completed.
    -- Stationary point found.
 Normal termination of Gaussian 09 at Mon Jan 27 22:47:47 2020.
