 Gaussian 09, Revision D.01,
 Gaussian 09:  ES64L-G09RevD.01 24-Apr-2013

 -----------------------------
 # b3lyp 6-31G(2df,p) opt Freq
 -----------------------------

 -----
 titel
 -----
 Symbolic Z-matrix:
 Charge =  0 Multiplicity = 1

 SCF Done:  E(RB3LYP) =  -423.129965054     A.U. after   13 cycles
 Optimization completed.
    -- Stationary point found.
 Normal termination of Gaussian 09 at Mon Jan 27 12:13:27 2020.

 ----------------------------------------------------------------------
 #N Geom=AllCheck Guess=TCheck SCRF=Check GenChk RB3LYP/6-31G(2df,p) Fr
 eq
 ----------------------------------------------------------------------

 Structure from the checkpoint file:  "/scratch/puck/g09_e86d216f-e350-490e-a73c-72d05b936226/Gau-71712.chk"
 -----
 titel
 -----
 Charge =  0 Multiplicity = 1

                         Standard orientation:
 ---------------------------------------------------------------------
 Center     Atomic      Atomic             Coordinates (Angstroms)
 Number     Number       Type             X           Y           Z
 ---------------------------------------------------------------------
      1          6           0        1.893695    0.811593    0.051551
      2          8           0        2.013519   -0.574008   -0.405607
      3          6           0        0.597356   -0.628699   -0.739317
      4          6           0       -0.420132   -1.353079    0.160246
      5          6           0        0.028329   -0.434370    1.324701
      6          6           0        0.396061    0.590091    0.183673
      7          8           0       -0.607244    1.495959   -0.119252
      8          6           0       -1.866074    0.784871   -0.118060
      9          6           0       -1.759271   -0.755510   -0.368224
     10          1           0        2.477219    1.000930    0.958213
     11          1           0        2.177019    1.517419   -0.740103
     12          1           0        0.438795   -0.622712   -1.822378
     13          1           0       -0.450485   -2.440085    0.273074
     14          1           0       -0.722522   -0.127261    2.054654
     15          1           0        0.917281   -0.798778    1.838175
     16          1           0       -2.350713    0.956685    0.850383
     17          1           0       -2.487623    1.256505   -0.883464
     18          1           0       -2.606791   -1.227898    0.139066
     19          1           0       -1.862159   -0.979794   -1.436157
 ---------------------------------------------------------------------

 SCF Done:  E(RB3LYP) =  -423.129965054     A.U. after    1 cycles

 The electronic state is 1-A.
 Alpha  occ. eigenvalues --  -19.14850 -19.13668 -10.23932 -10.23792 -10.23150
 Alpha  occ. eigenvalues --  -10.22013 -10.19896 -10.19705 -10.18169  -1.05581
 Alpha  occ. eigenvalues --   -1.02586  -0.83832  -0.76345  -0.69589  -0.66467
 Alpha  occ. eigenvalues --   -0.63215  -0.59317  -0.52461  -0.50788  -0.49902
 Alpha  occ. eigenvalues --   -0.47116  -0.45892  -0.43174  -0.41085  -0.40577
 Alpha  occ. eigenvalues --   -0.39612  -0.37650  -0.35686  -0.34314  -0.32536
 Alpha  occ. eigenvalues --   -0.31265  -0.28107  -0.24915  -0.23766
 Alpha virt. eigenvalues --    0.07029   0.08635   0.10507   0.10990   0.12326
 Alpha virt. eigenvalues --    0.13365   0.14067   0.15270   0.15801   0.16776
 Alpha virt. eigenvalues --    0.17763   0.19430   0.19511   0.21068   0.21938

 Mulliken charges:
               1
     1  C   -0.170599
     2  O   -0.316022
     3  C    0.108303
     4  C   -0.086422
     5  C   -0.300774
     6  C    0.404706
     7  O   -0.322251
     8  C   -0.090172
     9  C   -0.238465
    10  H    0.107700
    11  H    0.109151
    12  H    0.070355
    13  H    0.066170
    14  H    0.097252
    15  H    0.117328
    16  H    0.110083
    17  H    0.114668
    18  H    0.108695
    19  H    0.110297
 Sum of Mulliken charges =   0.00000

 Dipole moment (field-independent basis, Debye):
    X=             -1.8685    Y=             -0.2221    Z=              0.4197  Tot=              1.9279
 Quadrupole moment (field-independent basis, Debye-Ang):
   XX=            -52.7546   YY=            -55.8235   ZZ=            -51.7610
   XY=              3.8783   XZ=              1.5552   YZ=              0.0114

  Exact polarizability:  83.785   4.644  69.094   1.829  -0.170  68.462
 Approx polarizability: 114.637   3.559 105.625   1.405   0.739 104.150

                      1                      2                      3
                      A                      A                      A
 Frequencies --    194.1157               268.2612               306.8755
 Red. masses --      2.1445                 2.4239                 3.0266
 Frc consts  --      0.0476                 0.1028                 0.1679
 IR Inten    --      0.4866                 3.4248                 7.0138

                      4                      5                      6
                      A                      A                      A
 Frequencies --    355.5072               427.2726               449.7722
 Red. masses --      3.9183                 2.3959                 2.4114
 Frc consts  --      0.2918                 0.2577                 0.2874
 IR Inten    --      5.0304                 1.6127                 1.8997

                      7                      8                      9
                      A                      A                      A
 Frequencies --    462.0733               578.6771               657.4252
 Red. masses --      5.4760                 3.9688                 4.1372
 Frc consts  --      0.6889                 0.7830                 1.0535
 IR Inten    --      0.6213                 0.1015                 8.7263

                     10                     11                     12
                      A                      A                      A
 Frequencies --    737.3876               800.0336               815.1668
 Red. masses --      2.3806                 2.1695                 2.2987
 Frc consts  --      0.7627                 0.8181                 0.8999
 IR Inten    --      6.7947                 5.5951                 0.5220

                     13                     14                     15
                      A                      A                      A
 Frequencies --    869.1668               886.9337               920.1906
 Red. masses --      3.2928                 2.3289                 1.9968
 Frc consts  --      1.4656                 1.0794                 0.9962
 IR Inten    --     16.5057                 1.4514                 5.2913

                     16                     17                     18
                      A                      A                      A
 Frequencies --    925.3911               941.8677               969.6576
 Red. masses --      3.0126                 2.5683                 2.3954
 Frc consts  --      1.5200                 1.3424                 1.3270
 IR Inten    --     26.7555                12.4919                35.6003

                     19                     20                     21
                      A                      A                      A
 Frequencies --    999.0267              1014.9966              1041.9637
 Red. masses --      3.1317                 3.1946                 2.4357
 Frc consts  --      1.8415                 1.9391                 1.5581
 IR Inten    --     29.2367                 0.5958                50.4165

                     22                     23                     24
                      A                      A                      A
 Frequencies --   1065.2941              1089.9213              1114.7887
 Red. masses --      1.5940                 1.5877                 1.7691
 Frc consts  --      1.0658                 1.1112                 1.2953
 IR Inten    --     12.1923                 6.8250                 0.9956

                     25                     26                     27
                      A                      A                      A
 Frequencies --   1144.5368              1159.7864              1209.7023
 Red. masses --      1.7410                 1.6460                 1.3319
 Frc consts  --      1.3437                 1.3045                 1.1484
 IR Inten    --      9.6217                 7.2281                 0.9971

                     28                     29                     30
                      A                      A                      A
 Frequencies --   1211.4932              1235.6498              1271.6486
 Red. masses --      1.7952                 1.5813                 1.6242
 Frc consts  --      1.5524                 1.4225                 1.5475
 IR Inten    --      2.0408                 2.9613                52.2810

                     31                     32                     33
                      A                      A                      A
 Frequencies --   1284.5459              1291.8180              1297.1128
 Red. masses --      1.3629                 1.9658                 1.4591
 Frc consts  --      1.3250                 1.9328                 1.4464
 IR Inten    --      5.2393                17.4218                 2.1392

                     34                     35                     36
                      A                      A                      A
 Frequencies --   1326.1271              1350.5872              1370.6285
 Red. masses --      1.3266                 1.6233                 1.5226
 Frc consts  --      1.3745                 1.7446                 1.6853
 IR Inten    --     28.5369                18.4804                10.8663

                     37                     38                     39
                      A                      A                      A
 Frequencies --   1418.2696              1488.2496              1492.9532
 Red. masses --      1.5158                 1.1122                 1.0853
 Frc consts  --      1.7964                 1.4514                 1.4253
 IR Inten    --     22.4464                 6.1185                 2.2679

                     40                     41                     42
                      A                      A                      A
 Frequencies --   1512.5554              1523.7487              3017.2197
 Red. masses --      1.1216                 1.0990                 1.0579
 Frc consts  --      1.5119                 1.5034                 5.6741
 IR Inten    --      2.6391                 3.6202                71.5060

                     43                     44                     45
                      A                      A                      A
 Frequencies --   3027.2288              3036.1463              3056.4157
 Red. masses --      1.0686                 1.0625                 1.0855
 Frc consts  --      5.7696                 5.7706                 5.9748
 IR Inten    --     33.5178                20.3874                44.8375

                     46                     47                     48
                      A                      A                      A
 Frequencies --   3071.1109              3079.5836              3082.9716
 Red. masses --      1.0867                 1.0948                 1.1075
 Frc consts  --      6.0388                 6.1176                 6.2022
 IR Inten    --     65.1363                24.2912                29.2148

                     49                     50                     51
                      A                      A                      A
 Frequencies --   3087.6302              3096.6544              3148.2737
 Red. masses --      1.0658                 1.1001                 1.1082
 Frc consts  --      5.9864                 6.2156                 6.4714
 IR Inten    --     19.8534                52.0401                15.4092

 - Thermochemistry -
 -------------------
 Temperature   298.150 Kelvin.  Pressure   1.00000 Atm.
 Atom     1 has atomic number  6 and mass  12.00000

 Molecular mass:   126.06808 amu.
 Principal axes and moments of inertia in atomic units:
                           1         2         3
     Eigenvalues --   573.587401018.300631240.91957
           X            0.99889   0.04527   0.01312
           Y           -0.04519   0.99896  -0.00674
           Z           -0.01341   0.00614   0.99989
 This molecule is an asymmetric top.
 Rotational symmetry number  1.
 Warning -- assumption of classical behavior for rotation
           may cause significant error
 Rotational temperatures (Kelvin)      0.15100     0.08506     0.06980
 Rotational constants (GHZ):           3.14641     1.77231     1.45436
 Zero-point vibrational energy     425777.3 (Joules/Mol)
                                  101.76323 (Kcal/Mol)
 Warning -- explicit consideration of   8 degrees of freedom as
           vibrations may cause significant error
 Vibrational temperatures:    279.29   385.97   441.52   511.49   614.75
          (Kelvin)            647.12   664.82   832.59   945.89  1060.93
                             1151.07  1172.84  1250.54  1276.10  1323.95
                             1331.43  1355.14  1395.12  1437.37  1460.35
                             1499.15  1532.72  1568.15  1603.93  1646.73
                             1668.67  1740.49  1743.07  1777.82  1829.62
                             1848.17  1858.64  1866.25  1908.00  1943.19
                             1972.03  2040.57  2141.26  2148.02  2176.23
                             2192.33  4341.10  4355.50  4368.33  4397.50
                             4418.64  4430.83  4435.70  4442.41  4455.39
                             4529.66

 Zero-point correction=                           0.162170 (Hartree/Particle)
 Thermal correction to Energy=                    0.168830
 Thermal correction to Enthalpy=                  0.169774
 Thermal correction to Gibbs Free Energy=         0.131554
 Sum of electronic and zero-point Energies=           -422.967795
 Sum of electronic and thermal Energies=              -422.961135
 Sum of electronic and thermal Enthalpies=            -422.960191
 Sum of electronic and thermal Free Energies=         -422.998411

                     E (Thermal)             CV                S
                      KCal/Mol        Cal/Mol-Kelvin    Cal/Mol-Kelvin
 Total                  105.942             28.146             80.440
 Electronic               0.000              0.000              0.000
 Translational            0.889              2.981             40.409
 Rotational               0.889              2.981             28.074
 Vibrational            104.165             22.185             11.958
 Vibration     1          0.635              1.848              2.188
 Vibration     2          0.673              1.731              1.607
 Vibration     3          0.697              1.661              1.379
 Vibration     4          0.731              1.564              1.142
 Vibration     5          0.789              1.411              0.868
 Vibration     6          0.809              1.361              0.796
 Vibration     7          0.820              1.334              0.760
 Vibration     8          0.935              1.077              0.488

 Optimization completed.
    -- Stationary point found.
 Normal termination of Gaussian 09 at Mon Jan 27 13:01:50 2020.
