 Gaussian 09, Revision D.01,
 Gaussian 09:  ES64L-G09RevD.01 24-Apr-2013

 -----------------------------
 # b3lyp 6-31G(2df,p) opt Freq
 -----------------------------

 -----
 titel
 -----
 Symbolic Z-matrix:
 Charge =  0 Multiplicity = 1

 SCF Done:  E(RB3LYP) =  -423.131421659     A.U. after   13 cycles
 Optimization completed.
    -- Stationary point found.
 Normal termination of Gaussian 09 at Mon Jan 27 18:47:08 2020.

 ----------------------------------------------------------------------
 #N Geom=AllCheck Guess=TCheck SCRF=Check GenChk RB3LYP/6-31G(2df,p) Fr
 eq
 ----------------------------------------------------------------------

 Structure from the checkpoint file:  "/scratch/puck/g09_b4718fc1-4526-4051-8cfa-f679128cfda7/Gau-43447.chk"
 -----
 titel
 -----
 Charge =  0 Multiplicity = 1

                         Standard orientation:
 ---------------------------------------------------------------------
 Center     Atomic      Atomic             Coordinates (Angstroms)
 Number     Number       Type             X           Y           Z
 ---------------------------------------------------------------------
      1          8           0        0.521922    1.892878   -0.558702
      2          6           0        0.569973    0.623560   -0.001006
      3          6           0        1.897939    0.127578    0.633539
      4          6           0        1.787478   -1.220261   -0.137600
      5          6           0        0.435003   -0.789373   -0.753799
      6          6           0       -0.766288   -1.121452    0.152702
      7          6           0       -2.107194   -0.573450   -0.363192
      8          8           0       -1.895310    0.706095    0.273901
      9          6           0       -0.657961    0.272944    0.855766
     10          1           0        1.334322    2.042780   -1.053424
     11          1           0        2.752686    0.737940    0.324991
     12          1           0        1.906873    0.072596    1.726864
     13          1           0        2.577743   -1.352132   -0.880572
     14          1           0        1.752652   -2.121537    0.480853
     15          1           0        0.295367   -0.914814   -1.829382
     16          1           0       -0.770803   -2.080469    0.671421
     17          1           0       -2.208212   -0.487015   -1.452521
     18          1           0       -2.996749   -1.074992    0.039491
     19          1           0       -0.610475    0.468589    1.932228
 ---------------------------------------------------------------------

 SCF Done:  E(RB3LYP) =  -423.131421659     A.U. after    1 cycles

 The electronic state is 1-A.
 Alpha  occ. eigenvalues --  -19.14198 -19.12715 -10.23394 -10.22691 -10.22632
 Alpha  occ. eigenvalues --  -10.19051 -10.18639 -10.18557 -10.18439  -1.04224
 Alpha  occ. eigenvalues --   -1.02138  -0.85656  -0.74513  -0.70574  -0.65684
 Alpha  occ. eigenvalues --   -0.61553  -0.57334  -0.52805  -0.50862  -0.50054
 Alpha  occ. eigenvalues --   -0.48731  -0.43635  -0.42451  -0.41092  -0.39855
 Alpha  occ. eigenvalues --   -0.38568  -0.37477  -0.34422  -0.33344  -0.30896
 Alpha  occ. eigenvalues --   -0.29805  -0.28144  -0.24534  -0.23512
 Alpha virt. eigenvalues --    0.06620   0.07388   0.09631   0.10500   0.11154
 Alpha virt. eigenvalues --    0.12568   0.13938   0.15292   0.15644   0.16826
 Alpha virt. eigenvalues --    0.18478   0.18880   0.20327   0.21026   0.23096

 Mulliken charges:
               1
     1  O   -0.465519
     2  C    0.398300
     3  C   -0.298263
     4  C   -0.231089
     5  C   -0.122740
     6  C   -0.070908
     7  C   -0.090254
     8  O   -0.282509
     9  C    0.074971
    10  H    0.278806
    11  H    0.096318
    12  H    0.103483
    13  H    0.101289
    14  H    0.099190
    15  H    0.066044
    16  H    0.072718
    17  H    0.100844
    18  H    0.099025
    19  H    0.070297
 Sum of Mulliken charges =   0.00000

 Dipole moment (field-independent basis, Debye):
    X=              2.1462    Y=             -1.9488    Z=             -0.4424  Tot=              2.9326
 Quadrupole moment (field-independent basis, Debye-Ang):
   XX=            -51.8764   YY=            -55.5479   ZZ=            -50.6511
   XY=              5.9012   XZ=             -1.0167   YZ=             -1.1131

  Exact polarizability:  84.277   3.136  71.148   1.147   0.892  68.071
 Approx polarizability: 110.696   2.110 108.163   0.831   1.548 103.955

                      1                      2                      3
                      A                      A                      A
 Frequencies --     77.4654               179.1827               236.6791
 Red. masses --      2.6249                 2.5507                 3.3967
 Frc consts  --      0.0093                 0.0483                 0.1121
 IR Inten    --      1.9305                 1.8308                 1.1527

                      4                      5                      6
                      A                      A                      A
 Frequencies --    278.8220               301.5482               354.0379
 Red. masses --      1.2482                 2.2791                 3.1074
 Frc consts  --      0.0572                 0.1221                 0.2295
 IR Inten    --     60.2466                25.5850                 5.3698

                      7                      8                      9
                      A                      A                      A
 Frequencies --    403.8103               470.0095               580.8745
 Red. masses --      3.2025                 4.8861                 3.4415
 Frc consts  --      0.3077                 0.6360                 0.6842
 IR Inten    --      9.2369                 8.3300                 0.3001

                     10                     11                     12
                      A                      A                      A
 Frequencies --    697.9614               734.8705               785.2239
 Red. masses --      4.6496                 1.3073                 1.9325
 Frc consts  --      1.3345                 0.4160                 0.7020
 IR Inten    --     16.3095                 3.1335                 1.6572

                     13                     14                     15
                      A                      A                      A
 Frequencies --    809.8241               862.9733               885.1346
 Red. masses --      1.7664                 3.0615                 2.9154
 Frc consts  --      0.6825                 1.3433                 1.3457
 IR Inten    --      2.6673                 1.4188                10.1846

                     16                     17                     18
                      A                      A                      A
 Frequencies --    933.9630               951.4052               967.2792
 Red. masses --      2.5764                 2.3802                 1.9958
 Frc consts  --      1.3241                 1.2694                 1.1002
 IR Inten    --      4.4292                 0.5330                12.6261

                     19                     20                     21
                      A                      A                      A
 Frequencies --   1001.1080              1016.7897              1037.1998
 Red. masses --      2.3421                 3.5821                 2.4366
 Frc consts  --      1.3830                 2.1820                 1.5444
 IR Inten    --      6.1018                51.0991                27.0155

                     22                     23                     24
                      A                      A                      A
 Frequencies --   1047.1495              1060.6855              1095.6162
 Red. masses --      2.9524                 2.2419                 1.8496
 Frc consts  --      1.9074                 1.4861                 1.3081
 IR Inten    --     14.0188                33.3217                27.8846

                     25                     26                     27
                      A                      A                      A
 Frequencies --   1101.5407              1147.9365              1168.4543
 Red. masses --      1.7098                 1.5669                 1.3614
 Frc consts  --      1.2223                 1.2165                 1.0951
 IR Inten    --      1.4163                 1.6022                 0.2630

                     28                     29                     30
                      A                      A                      A
 Frequencies --   1189.1303              1215.0871              1219.9703
 Red. masses --      1.7457                 1.5554                 1.4451
 Frc consts  --      1.4544                 1.3530                 1.2672
 IR Inten    --      5.8425                 0.4151                21.1260

                     31                     32                     33
                      A                      A                      A
 Frequencies --   1229.3958              1265.6112              1270.4103
 Red. masses --      1.4792                 1.5051                 1.4664
 Frc consts  --      1.3172                 1.4204                 1.3944
 IR Inten    --     45.8401                19.3283                 7.9716

                     34                     35                     36
                      A                      A                      A
 Frequencies --   1292.3458              1301.7075              1326.2484
 Red. masses --      2.0198                 1.2938                 1.9469
 Frc consts  --      1.9876                 1.2916                 2.0176
 IR Inten    --     93.9244                 7.4993                16.4602

                     37                     38                     39
                      A                      A                      A
 Frequencies --   1359.5262              1402.9511              1472.4619
 Red. masses --      1.4508                 1.9899                 1.0915
 Frc consts  --      1.5800                 2.3077                 1.3943
 IR Inten    --      3.3650                 1.3062                 1.1270

                     40                     41                     42
                      A                      A                      A
 Frequencies --   1493.7656              1521.6598              3005.6682
 Red. masses --      1.1136                 1.0998                 1.0552
 Frc consts  --      1.4641                 1.5004                 5.6166
 IR Inten    --      3.8582                 0.9318                92.2988

                     43                     44                     45
                      A                      A                      A
 Frequencies --   3040.1488              3048.6754              3052.1485
 Red. masses --      1.0588                 1.1103                 1.0871
 Frc consts  --      5.7659                 6.0801                 5.9668
 IR Inten    --     31.4430                39.7672                57.3755

                     46                     47                     48
                      A                      A                      A
 Frequencies --   3056.4999              3082.7289              3088.5937
 Red. masses --      1.0602                 1.1037                 1.0933
 Frc consts  --      5.8359                 6.1797                 6.1449
 IR Inten    --     39.6235                18.7000                11.8117

                     49                     50                     51
                      A                      A                      A
 Frequencies --   3104.2734              3109.4250              3808.5564
 Red. masses --      1.0912                 1.1050                 1.0659
 Frc consts  --      6.1956                 6.2945                 9.1095
 IR Inten    --     25.2087                60.5207                16.5769

 - Thermochemistry -
 -------------------
 Temperature   298.150 Kelvin.  Pressure   1.00000 Atm.
 Atom     1 has atomic number  8 and mass  15.99491

 Molecular mass:   126.06808 amu.
 Principal axes and moments of inertia in atomic units:
                           1         2         3
     Eigenvalues --   631.354021059.175981378.81405
           X            0.99966   0.02385   0.01048
           Y           -0.02388   0.99971   0.00286
           Z           -0.01040  -0.00311   0.99994
 This molecule is an asymmetric top.
 Rotational symmetry number  1.
 Warning -- assumption of classical behavior for rotation
           may cause significant error
 Rotational temperatures (Kelvin)      0.13719     0.08177     0.06282
 Rotational constants (GHZ):           2.85852     1.70391     1.30891
 Zero-point vibrational energy     419557.5 (Joules/Mol)
                                  100.27665 (Kcal/Mol)
 Warning -- explicit consideration of   9 degrees of freedom as
           vibrations may cause significant error
 Vibrational temperatures:    111.46   257.80   340.53   401.16   433.86
          (Kelvin)            509.38   580.99   676.24   835.75  1004.21
                             1057.31  1129.76  1165.15  1241.62  1273.51
                             1343.76  1368.86  1391.70  1440.37  1462.93
                             1492.30  1506.61  1526.09  1576.35  1584.87
                             1651.62  1681.14  1710.89  1748.24  1755.26
                             1768.82  1820.93  1827.83  1859.40  1872.86
                             1908.17  1956.05  2018.53  2118.54  2149.19
                             2189.33  4324.48  4374.09  4386.36  4391.36
                             4397.62  4435.35  4443.79  4466.35  4473.76
                             5479.66

 Zero-point correction=                           0.159801 (Hartree/Particle)
 Thermal correction to Energy=                    0.167488
 Thermal correction to Enthalpy=                  0.168432
 Thermal correction to Gibbs Free Energy=         0.127683
 Sum of electronic and zero-point Energies=           -422.971621
 Sum of electronic and thermal Energies=              -422.963934
 Sum of electronic and thermal Enthalpies=            -422.962990
 Sum of electronic and thermal Free Energies=         -423.003739

                     E (Thermal)             CV                S
                      KCal/Mol        Cal/Mol-Kelvin    Cal/Mol-Kelvin
 Total                  105.100             30.417             85.764
 Electronic               0.000              0.000              0.000
 Translational            0.889              2.981             40.409
 Rotational               0.889              2.981             28.313
 Vibrational            103.323             24.455             17.043
 Vibration     1          0.599              1.964              3.954
 Vibration     2          0.629              1.868              2.337
 Vibration     3          0.656              1.785              1.828
 Vibration     4          0.679              1.713              1.541
 Vibration     5          0.694              1.671              1.408
 Vibration     6          0.730              1.567              1.148
 Vibration     7          0.769              1.462              0.949
 Vibration     8          0.827              1.317              0.738
 Vibration     9          0.938              1.073              0.484

 Optimization completed.
    -- Stationary point found.
 Normal termination of Gaussian 09 at Mon Jan 27 19:49:50 2020.
