 Gaussian 09, Revision D.01,
 Gaussian 09:  ES64L-G09RevD.01 24-Apr-2013

 -----------------------------
 # b3lyp 6-31G(2df,p) opt Freq
 -----------------------------

 -----
 titel
 -----
 Symbolic Z-matrix:
 Charge =  0 Multiplicity = 1

 SCF Done:  E(RB3LYP) =  -423.121984495     A.U. after   14 cycles
 Optimization completed.
    -- Stationary point found.
 Normal termination of Gaussian 09 at Tue Jan 28 14:06:02 2020.

 ----------------------------------------------------------------------
 #N Geom=AllCheck Guess=TCheck SCRF=Check GenChk RB3LYP/6-31G(2df,p) Fr
 eq
 ----------------------------------------------------------------------

 Structure from the checkpoint file:  "/scratch/puck/g09_ba837758-7b11-47f6-8935-8a337c9914c6/Gau-98270.chk"
 -----
 titel
 -----
 Charge =  0 Multiplicity = 1

                         Standard orientation:
 ---------------------------------------------------------------------
 Center     Atomic      Atomic             Coordinates (Angstroms)
 Number     Number       Type             X           Y           Z
 ---------------------------------------------------------------------
      1          8           0       -2.828977   -0.474131    0.215571
      2          6           0       -1.530222   -0.672461   -0.335218
      3          6           0       -0.737813    0.628528   -0.326187
      4          6           0        0.166414    1.069061    0.875796
      5          6           0        0.758336    2.135748   -0.093058
      6          6           0        0.702692    0.812456   -0.919261
      7          6           0        1.298092    0.121699    0.338920
      8          6           0        1.334063   -1.371329    0.506551
      9          8           0        1.392237   -2.162992   -0.402005
     10          1           0       -2.723323   -0.263563    1.148729
     11          1           0       -1.018493   -1.496324    0.173273
     12          1           0       -1.694812   -0.994006   -1.369288
     13          1           0       -1.427219    1.416893   -0.649018
     14          1           0       -0.123932    1.219025    1.917585
     15          1           0        0.079353    2.932057   -0.405264
     16          1           0        1.752129    2.521014    0.148517
     17          1           0        1.014346    0.663043   -1.952375
     18          1           0        2.301887    0.472430    0.626640
     19          1           0        1.384606   -1.715801    1.567419
 ---------------------------------------------------------------------

 SCF Done:  E(RB3LYP) =  -423.121984495     A.U. after    1 cycles

 The electronic state is 1-A.
 Alpha  occ. eigenvalues --  -19.14203 -19.13468 -10.27449 -10.22536 -10.21932
 Alpha  occ. eigenvalues --  -10.21301 -10.20957 -10.20044 -10.19975  -1.04884
 Alpha  occ. eigenvalues --   -1.01486  -0.92450  -0.72979  -0.71506  -0.64012
 Alpha  occ. eigenvalues --   -0.63117  -0.59627  -0.53090  -0.51021  -0.50868
 Alpha  occ. eigenvalues --   -0.48374  -0.44946  -0.43834  -0.43260  -0.39091
 Alpha  occ. eigenvalues --   -0.37472  -0.36693  -0.33917  -0.33433  -0.33148
 Alpha  occ. eigenvalues --   -0.31562  -0.30922  -0.26673  -0.25134
 Alpha virt. eigenvalues --   -0.02776   0.06835   0.10334   0.10476   0.11908
 Alpha virt. eigenvalues --    0.13156   0.13664   0.13919   0.14014   0.14490
 Alpha virt. eigenvalues --    0.16688   0.17221   0.18731   0.19628   0.20514

 Mulliken charges:
               1
     1  O   -0.417523
     2  C   -0.136922
     3  C    0.044368
     4  C   -0.102129
     5  C   -0.223965
     6  C   -0.085156
     7  C   -0.035306
     8  C    0.098363
     9  O   -0.246934
    10  H    0.280586
    11  H    0.101576
    12  H    0.122066
    13  H    0.079977
    14  H    0.073058
    15  H    0.100089
    16  H    0.094086
    17  H    0.088054
    18  H    0.093728
    19  H    0.071985
 Sum of Mulliken charges =   0.00000

 Dipole moment (field-independent basis, Debye):
    X=              0.9551    Y=              2.3523    Z=              2.0593  Tot=              3.2690
 Quadrupole moment (field-independent basis, Debye-Ang):
   XX=            -58.7497   YY=            -58.3885   ZZ=            -49.7501
   XY=              1.8104   XZ=             -0.3343   YZ=             -2.6538

  Exact polarizability:  76.951   0.040  81.677   1.030   0.747  71.015
 Approx polarizability: 109.020  -2.088 116.506   0.003   7.570 115.816

                      1                      2                      3
                      A                      A                      A
 Frequencies --     50.9493                87.1539               144.5868
 Red. masses --      3.2658                 2.9483                 3.3813
 Frc consts  --      0.0050                 0.0132                 0.0416
 IR Inten    --      3.2185                10.5266                 0.6465

                      4                      5                      6
                      A                      A                      A
 Frequencies --    170.5336               232.5804               284.4164
 Red. masses --      4.2926                 2.3139                 2.0028
 Frc consts  --      0.0736                 0.0737                 0.0955
 IR Inten    --      0.3605                21.9089                47.7543

                      7                      8                      9
                      A                      A                      A
 Frequencies --    316.4768               406.5959               477.1740
 Red. masses --      1.5939                 4.3638                 3.5637
 Frc consts  --      0.0941                 0.4250                 0.4781
 IR Inten    --     41.4066                 3.0980                 2.5758

                     10                     11                     12
                      A                      A                      A
 Frequencies --    584.0060               693.6631               746.8142
 Red. masses --      3.0396                 3.6280                 2.6461
 Frc consts  --      0.6108                 1.0285                 0.8695
 IR Inten    --      1.0967                20.1797                 4.9489

                     13                     14                     15
                      A                      A                      A
 Frequencies --    764.9805               807.3845               881.1289
 Red. masses --      2.6860                 2.4463                 2.3281
 Frc consts  --      0.9261                 0.9395                 1.0650
 IR Inten    --      2.5572                 4.4795                 2.0845

                     16                     17                     18
                      A                      A                      A
 Frequencies --    894.0890               912.6148               988.5377
 Red. masses --      2.4271                 1.9520                 1.5263
 Frc consts  --      1.1431                 0.9579                 0.8788
 IR Inten    --      2.7024                 2.6929                19.1276

                     19                     20                     21
                      A                      A                      A
 Frequencies --   1012.5742              1019.2880              1034.2421
 Red. masses --      1.3074                 2.0093                 1.4073
 Frc consts  --      0.7898                 1.2300                 0.8869
 IR Inten    --      3.9995                15.4181                 6.0618

                     22                     23                     24
                      A                      A                      A
 Frequencies --   1062.9283              1069.8998              1089.6438
 Red. masses --      3.0266                 1.6982                 1.8178
 Frc consts  --      2.0147                 1.1453                 1.2717
 IR Inten    --     71.0131                 6.5840                 2.4100

                     25                     26                     27
                      A                      A                      A
 Frequencies --   1101.0018              1131.5405              1161.3641
 Red. masses --      1.9577                 1.6492                 1.7847
 Frc consts  --      1.3982                 1.2441                 1.4183
 IR Inten    --      2.1881                 6.3953                 1.2266

                     28                     29                     30
                      A                      A                      A
 Frequencies --   1170.6295              1205.0892              1215.8717
 Red. masses --      2.2353                 1.3062                 1.4489
 Frc consts  --      1.8047                 1.1177                 1.2620
 IR Inten    --      8.4012                 7.1483                13.0056

                     31                     32                     33
                      A                      A                      A
 Frequencies --   1224.8406              1246.0789              1277.4313
 Red. masses --      1.6432                 1.5596                 1.7017
 Frc consts  --      1.4524                 1.4268                 1.6360
 IR Inten    --      1.4544                 5.7304                 2.0964

                     34                     35                     36
                      A                      A                      A
 Frequencies --   1356.1697              1388.8094              1405.1091
 Red. masses --      1.3577                 1.4451                 1.1804
 Frc consts  --      1.4713                 1.6422                 1.3731
 IR Inten    --      5.3439                 2.6474                50.6608

                     37                     38                     39
                      A                      A                      A
 Frequencies --   1420.8785              1442.9930              1497.1020
 Red. masses --      1.2054                 1.3303                 1.0914
 Frc consts  --      1.4338                 1.6321                 1.4413
 IR Inten    --      8.8104                 5.1785                 1.3565

                     40                     41                     42
                      A                      A                      A
 Frequencies --   1522.8530              1814.3730              2842.9936
 Red. masses --      1.1337                10.7430                 1.0812
 Frc consts  --      1.5491                20.8367                 5.1488
 IR Inten    --      0.1077               144.5625               129.0120

                     43                     44                     45
                      A                      A                      A
 Frequencies --   2987.4430              3039.9031              3046.7663
 Red. masses --      1.0803                 1.0668                 1.0736
 Frc consts  --      5.6807                 5.8086                 5.8718
 IR Inten    --     34.0068                11.7874                41.7107

                     46                     47                     48
                      A                      A                      A
 Frequencies --   3058.2931              3084.6346              3092.6739
 Red. masses --      1.0547                 1.1054                 1.0907
 Frc consts  --      5.8119                 6.1969                 6.1464
 IR Inten    --     47.2543                37.5842                55.7859

                     49                     50                     51
                      A                      A                      A
 Frequencies --   3124.7402              3127.2541              3816.7672
 Red. masses --      1.0925                 1.1108                 1.0663
 Frc consts  --      6.2847                 6.4004                 9.1518
 IR Inten    --     31.9875                38.8245                12.7671

 - Thermochemistry -
 -------------------
 Temperature   298.150 Kelvin.  Pressure   1.00000 Atm.
 Atom     1 has atomic number  8 and mass  15.99491

 Molecular mass:   126.06808 amu.
 Principal axes and moments of inertia in atomic units:
                           1         2         3
     Eigenvalues --   916.559591135.287881736.94333
           X            0.99555   0.09406   0.00641
           Y           -0.09397   0.99549  -0.01291
           Z           -0.00759   0.01225   0.99990
 This molecule is an asymmetric top.
 Rotational symmetry number  1.
 Warning -- assumption of classical behavior for rotation
           may cause significant error
 Rotational temperatures (Kelvin)      0.09450     0.07629     0.04987
 Rotational constants (GHZ):           1.96904     1.58968     1.03903
 Zero-point vibrational energy     415916.8 (Joules/Mol)
                                   99.40651 (Kcal/Mol)
 Warning -- explicit consideration of  10 degrees of freedom as
           vibrations may cause significant error
 Vibrational temperatures:     73.30   125.39   208.03   245.36   334.63
          (Kelvin)            409.21   455.34   585.00   686.55   840.25
                              998.03  1074.50  1100.63  1161.64  1267.75
                             1286.39  1313.05  1422.28  1456.87  1466.53
                             1488.04  1529.31  1539.35  1567.75  1584.09
                             1628.03  1670.94  1684.27  1733.85  1749.37
                             1762.27  1792.83  1837.94  1951.22  1998.18
                             2021.64  2044.32  2076.14  2153.99  2191.04
                             2610.47  4090.43  4298.26  4373.74  4383.61
                             4400.20  4438.10  4449.66  4495.80  4499.42
                             5491.47

 Zero-point correction=                           0.158414 (Hartree/Particle)
 Thermal correction to Energy=                    0.167135
 Thermal correction to Enthalpy=                  0.168080
 Thermal correction to Gibbs Free Energy=         0.124178
 Sum of electronic and zero-point Energies=           -422.963570
 Sum of electronic and thermal Energies=              -422.954849
 Sum of electronic and thermal Enthalpies=            -422.953905
 Sum of electronic and thermal Free Energies=         -422.997807

                     E (Thermal)             CV                S
                      KCal/Mol        Cal/Mol-Kelvin    Cal/Mol-Kelvin
 Total                  104.879             32.061             92.399
 Electronic               0.000              0.000              0.000
 Translational            0.889              2.981             40.409
 Rotational               0.889              2.981             28.982
 Vibrational            103.102             26.100             23.009
 Vibration     1          0.595              1.977              4.780
 Vibration     2          0.601              1.958              3.723
 Vibration     3          0.616              1.909              2.742
 Vibration     4          0.626              1.879              2.430
 Vibration     5          0.653              1.791              1.859
 Vibration     6          0.683              1.703              1.507
 Vibration     7          0.703              1.642              1.328
 Vibration     8          0.771              1.456              0.939
 Vibration     9          0.834              1.301              0.718
 Vibration    10          0.941              1.066              0.478

 Optimization completed.
    -- Stationary point found.
 Normal termination of Gaussian 09 at Tue Jan 28 14:53:25 2020.
