 Gaussian 09, Revision D.01,
 Gaussian 09:  ES64L-G09RevD.01 24-Apr-2013

 -----------------------------
 # b3lyp 6-31G(2df,p) opt Freq
 -----------------------------

 -----
 titel
 -----
 Symbolic Z-matrix:
 Charge =  0 Multiplicity = 1

 SCF Done:  E(RB3LYP) =  -423.187529205     A.U. after   13 cycles
 Optimization completed.
    -- Stationary point found.
 Normal termination of Gaussian 09 at Mon Jan 27 18:16:38 2020.

 ----------------------------------------------------------------------
 #N Geom=AllCheck Guess=TCheck SCRF=Check GenChk RB3LYP/6-31G(2df,p) Fr
 eq
 ----------------------------------------------------------------------

 Structure from the checkpoint file:  "/scratch/puck/g09_5fc8bbbd-596a-4d69-bcd6-6f88416b0bb8/Gau-171143.chk"
 -----
 titel
 -----
 Charge =  0 Multiplicity = 1

                         Standard orientation:
 ---------------------------------------------------------------------
 Center     Atomic      Atomic             Coordinates (Angstroms)
 Number     Number       Type             X           Y           Z
 ---------------------------------------------------------------------
      1          8           0       -2.186920   -0.548635    0.019991
      2          6           0       -0.802448   -0.381843    0.050263
      3          6           0        0.140335   -1.582863    0.008920
      4          6           0        1.387112   -0.694158   -0.111708
      5          6           0        1.290370    0.188354    1.153203
      6          6           0       -0.177785    0.675163    1.061664
      7          6           0       -0.312059    1.743843   -0.053002
      8          6           0       -0.259520    0.575839   -1.061596
      9          8           0        1.086154    0.123183   -1.258390
     10          1           0       -2.459942   -0.967323    0.843189
     11          1           0        0.124688   -2.189089    0.920252
     12          1           0       -0.016097   -2.216781   -0.867105
     13          1           0        2.345929   -1.183042   -0.283465
     14          1           0        1.466626   -0.413259    2.051473
     15          1           0        2.011673    1.010108    1.145045
     16          1           0       -0.667884    0.846640    2.022118
     17          1           0       -1.298750    2.214528   -0.048939
     18          1           0        0.468278    2.504587   -0.135516
     19          1           0       -0.764427    0.651232   -2.026315
 ---------------------------------------------------------------------

 SCF Done:  E(RB3LYP) =  -423.187529205     A.U. after    1 cycles

 The electronic state is 1-A.
 Alpha  occ. eigenvalues --  -19.14744 -19.13240 -10.23425 -10.23087 -10.22241
 Alpha  occ. eigenvalues --  -10.18692 -10.18146 -10.17774 -10.17382  -1.04362
 Alpha  occ. eigenvalues --   -1.02395  -0.83896  -0.77772  -0.71949  -0.63194
 Alpha  occ. eigenvalues --   -0.61042  -0.59202  -0.54509  -0.51740  -0.47374
 Alpha  occ. eigenvalues --   -0.46128  -0.44394  -0.43028  -0.41279  -0.38818
 Alpha  occ. eigenvalues --   -0.37358  -0.37059  -0.36160  -0.34049  -0.32815
 Alpha  occ. eigenvalues --   -0.31603  -0.27212  -0.26253  -0.23476
 Alpha virt. eigenvalues --    0.07167   0.08696   0.11573   0.12774   0.13528
 Alpha virt. eigenvalues --    0.14632   0.15006   0.15682   0.16388   0.17333
 Alpha virt. eigenvalues --    0.17787   0.19233   0.20798   0.21911   0.23242

 Mulliken charges:
               1
     1  O   -0.504924
     2  C    0.412899
     3  C   -0.305454
     4  C    0.090403
     5  C   -0.229425
     6  C   -0.109348
     7  C   -0.243003
     8  C    0.086027
     9  O   -0.285743
    10  H    0.279694
    11  H    0.089361
    12  H    0.109065
    13  H    0.076340
    14  H    0.093898
    15  H    0.103209
    16  H    0.057945
    17  H    0.106320
    18  H    0.094756
    19  H    0.077978
 Sum of Mulliken charges =   0.00000

 Dipole moment (field-independent basis, Debye):
    X=             -0.2319    Y=             -0.8398    Z=              2.2984  Tot=              2.4580
 Quadrupole moment (field-independent basis, Debye-Ang):
   XX=            -54.1680   YY=            -51.1793   ZZ=            -53.0465
   XY=             -0.0862   XZ=             -0.7011   YZ=             -1.5762

  Exact polarizability:  74.356  -1.825  75.201   1.860  -1.174  69.612
 Approx polarizability: 108.992  -1.112 106.263   0.522  -3.175 107.214

                      1                      2                      3
                      A                      A                      A
 Frequencies --    250.1836               268.8074               309.9873
 Red. masses --      1.4299                 2.8728                 1.9823
 Frc consts  --      0.0527                 0.1223                 0.1122
 IR Inten    --     33.5080                 2.6077                61.4636

                      4                      5                      6
                      A                      A                      A
 Frequencies --    385.5152               404.4999               449.8774
 Red. masses --      2.9143                 2.9915                 1.7399
 Frc consts  --      0.2552                 0.2884                 0.2075
 IR Inten    --      5.2579                 2.6594                 0.4181

                      7                      8                      9
                      A                      A                      A
 Frequencies --    473.8217               573.3086               586.4044
 Red. masses --      2.6135                 4.4792                 4.4964
 Frc consts  --      0.3457                 0.8674                 0.9110
 IR Inten    --      5.3165                 2.6828                 1.8924

                     10                     11                     12
                      A                      A                      A
 Frequencies --    651.8425               765.5247               832.6142
 Red. masses --      3.9183                 3.6207                 3.9118
 Frc consts  --      0.9809                 1.2501                 1.5978
 IR Inten    --      4.8014                 1.3946                 2.9739

                     13                     14                     15
                      A                      A                      A
 Frequencies --    835.5427               868.0219               890.3352
 Red. masses --      2.2224                 2.4691                 2.3026
 Frc consts  --      0.9141                 1.0961                 1.0754
 IR Inten    --      3.5181                 4.0648                11.4904

                     16                     17                     18
                      A                      A                      A
 Frequencies --    904.7245               933.1301               954.2316
 Red. masses --      2.2231                 2.0421                 2.3486
 Frc consts  --      1.0721                 1.0476                 1.2600
 IR Inten    --      2.9621                 8.8603                 5.1298

                     19                     20                     21
                      A                      A                      A
 Frequencies --    965.1023               981.4429              1038.2505
 Red. masses --      1.9050                 2.1954                 1.8226
 Frc consts  --      1.0454                 1.2459                 1.1576
 IR Inten    --     15.8553                34.6565                18.1357

                     22                     23                     24
                      A                      A                      A
 Frequencies --   1043.9243              1078.9530              1091.6375
 Red. masses --      1.7871                 1.6299                 1.7945
 Frc consts  --      1.1475                 1.1179                 1.2599
 IR Inten    --      6.3357                 4.8767                29.4926

                     25                     26                     27
                      A                      A                      A
 Frequencies --   1129.6375              1144.1992              1160.8757
 Red. masses --      1.6779                 1.6496                 1.5603
 Frc consts  --      1.2615                 1.2724                 1.2389
 IR Inten    --     25.2917                38.4453                 5.5864

                     28                     29                     30
                      A                      A                      A
 Frequencies --   1193.8536              1213.1645              1239.3846
 Red. masses --      2.1582                 1.3604                 1.8964
 Frc consts  --      1.8124                 1.1797                 1.7163
 IR Inten    --      5.9713                 7.0862                 1.8093

                     31                     32                     33
                      A                      A                      A
 Frequencies --   1248.3003              1262.6857              1293.8460
 Red. masses --      2.0471                 1.6154                 1.3451
 Frc consts  --      1.8795                 1.5175                 1.3267
 IR Inten    --     11.0600                45.7759                25.8338

                     34                     35                     36
                      A                      A                      A
 Frequencies --   1308.3730              1322.8409              1337.6262
 Red. masses --      1.6949                 1.5766                 1.6046
 Frc consts  --      1.7095                 1.6255                 1.6916
 IR Inten    --     64.9721                 6.3372                13.7267

                     37                     38                     39
                      A                      A                      A
 Frequencies --   1367.3722              1388.4575              1468.9732
 Red. masses --      1.4364                 1.9159                 1.1197
 Frc consts  --      1.5823                 2.1762                 1.4235
 IR Inten    --      6.7301                 1.6498                 0.6276

                     40                     41                     42
                      A                      A                      A
 Frequencies --   1476.2646              1495.8635              3043.1245
 Red. masses --      1.1264                 1.1119                 1.0617
 Frc consts  --      1.4464                 1.4659                 5.7927
 IR Inten    --      5.5159                 3.0029                25.5722

                     43                     44                     45
                      A                      A                      A
 Frequencies --   3055.3138              3056.9238              3085.4047
 Red. masses --      1.0597                 1.0572                 1.0881
 Frc consts  --      5.8285                 5.8209                 6.1033
 IR Inten    --     15.2255                36.5496                51.8316

                     46                     47                     48
                      A                      A                      A
 Frequencies --   3096.4946              3097.3173              3116.7658
 Red. masses --      1.0927                 1.1010                 1.1046
 Frc consts  --      6.1727                 6.2232                 6.3219
 IR Inten    --     49.7964                19.3181                23.5954

                     49                     50                     51
                      A                      A                      A
 Frequencies --   3117.8559              3122.3539              3805.5769
 Red. masses --      1.1083                 1.0917                 1.0660
 Frc consts  --      6.3477                 6.2709                 9.0960
 IR Inten    --     24.8158                37.2184                21.0111

 - Thermochemistry -
 -------------------
 Temperature   298.150 Kelvin.  Pressure   1.00000 Atm.
 Atom     1 has atomic number  8 and mass  15.99491

 Molecular mass:   126.06808 amu.
 Principal axes and moments of inertia in atomic units:
                           1         2         3
     Eigenvalues --   711.75344 908.416761015.92219
           X            0.99880  -0.03475   0.03443
           Y            0.03520   0.99930  -0.01250
           Z           -0.03397   0.01370   0.99933
 This molecule is an asymmetric top.
 Rotational symmetry number  1.
 Warning -- assumption of classical behavior for rotation
           may cause significant error
 Rotational temperatures (Kelvin)      0.12169     0.09535     0.08526
 Rotational constants (GHZ):           2.53563     1.98669     1.77646
 Zero-point vibrational energy     425790.0 (Joules/Mol)
                                  101.76626 (Kcal/Mol)
 Warning -- explicit consideration of   9 degrees of freedom as
           vibrations may cause significant error
 Vibrational temperatures:    359.96   386.75   446.00   554.67   581.98
          (Kelvin)            647.27   681.72   824.86   843.70   937.85
                             1101.42  1197.94  1202.16  1248.89  1280.99
                             1301.70  1342.56  1372.92  1388.57  1412.08
                             1493.81  1501.97  1552.37  1570.62  1625.29
                             1646.25  1670.24  1717.69  1745.47  1783.20
                             1796.02  1816.72  1861.55  1882.45  1903.27
                             1924.54  1967.34  1997.68  2113.52  2124.01
                             2152.21  4378.37  4395.91  4398.23  4439.20
                             4455.16  4456.34  4484.33  4485.89  4492.37
                             5475.37

 Zero-point correction=                           0.162175 (Hartree/Particle)
 Thermal correction to Energy=                    0.168873
 Thermal correction to Enthalpy=                  0.169817
 Thermal correction to Gibbs Free Energy=         0.131711
 Sum of electronic and zero-point Energies=           -423.025354
 Sum of electronic and thermal Energies=              -423.018656
 Sum of electronic and thermal Enthalpies=            -423.017712
 Sum of electronic and thermal Free Energies=         -423.055818

                     E (Thermal)             CV                S
                      KCal/Mol        Cal/Mol-Kelvin    Cal/Mol-Kelvin
 Total                  105.969             28.917             80.201
 Electronic               0.000              0.000              0.000
 Translational            0.889              2.981             40.409
 Rotational               0.889              2.981             27.976
 Vibrational            104.192             22.956             11.816
 Vibration     1          0.663              1.762              1.729
 Vibration     2          0.673              1.731              1.604
 Vibration     3          0.699              1.655              1.362
 Vibration     4          0.754              1.501              1.017
 Vibration     5          0.770              1.460              0.946
 Vibration     6          0.809              1.361              0.796
 Vibration     7          0.831              1.308              0.727
 Vibration     8          0.930              1.089              0.498
 Vibration     9          0.943              1.061              0.474

 Optimization completed.
    -- Stationary point found.
 Normal termination of Gaussian 09 at Mon Jan 27 19:05:27 2020.
