 Gaussian 09, Revision D.01,
 Gaussian 09:  ES64L-G09RevD.01 24-Apr-2013

 -----------------------------
 # b3lyp 6-31G(2df,p) opt Freq
 -----------------------------

 -----
 titel
 -----
 Symbolic Z-matrix:
 Charge =  0 Multiplicity = 1

 SCF Done:  E(RB3LYP) =  -423.161272547     A.U. after   14 cycles
 Optimization completed.
    -- Stationary point found.
 Normal termination of Gaussian 09 at Mon Jan 27 13:17:35 2020.

 ----------------------------------------------------------------------
 #N Geom=AllCheck Guess=TCheck SCRF=Check GenChk RB3LYP/6-31G(2df,p) Fr
 eq
 ----------------------------------------------------------------------

 Structure from the checkpoint file:  "/scratch/puck/g09_2daa8caa-f0be-4ddf-b913-3c04f3f27fdd/Gau-28321.chk"
 -----
 titel
 -----
 Charge =  0 Multiplicity = 1

                         Standard orientation:
 ---------------------------------------------------------------------
 Center     Atomic      Atomic             Coordinates (Angstroms)
 Number     Number       Type             X           Y           Z
 ---------------------------------------------------------------------
      1          8           0        1.838677   -1.857595   -0.347390
      2          6           0        1.903856   -0.727634    0.063447
      3          6           0        0.801622    0.282446   -0.064825
      4          6           0        1.242368    1.667379   -0.351985
      5          8           0        0.870155    1.290427    0.963223
      6          6           0       -0.559446   -0.227310   -0.451891
      7          6           0       -1.749868    0.765626   -0.543824
      8          6           0       -2.649864   -0.317255    0.111387
      9          6           0       -1.366578   -1.033513    0.609549
     10          1           0        2.803899   -0.332893    0.586151
     11          1           0        2.298996    1.891044   -0.496155
     12          1           0        0.547406    2.323410   -0.873072
     13          1           0       -0.454757   -0.813541   -1.369322
     14          1           0       -1.598011    1.614189    0.129365
     15          1           0       -2.028052    1.136274   -1.533286
     16          1           0       -3.368342    0.014816    0.863638
     17          1           0       -3.180327   -0.911093   -0.638308
     18          1           0       -1.099996   -0.721138    1.623463
     19          1           0       -1.324009   -2.122157    0.549717
 ---------------------------------------------------------------------

 SCF Done:  E(RB3LYP) =  -423.161272547     A.U. after    1 cycles

 The electronic state is 1-A.
 Alpha  occ. eigenvalues --  -19.17340 -19.14863 -10.27677 -10.25434 -10.25380
 Alpha  occ. eigenvalues --  -10.19631 -10.18509 -10.18318 -10.18179  -1.09366
 Alpha  occ. eigenvalues --   -1.05393  -0.84798  -0.73564  -0.67604  -0.66301
 Alpha  occ. eigenvalues --   -0.65159  -0.57699  -0.54340  -0.50774  -0.50527
 Alpha  occ. eigenvalues --   -0.48092  -0.45480  -0.44117  -0.42237  -0.40455
 Alpha  occ. eigenvalues --   -0.38753  -0.38312  -0.36067  -0.33388  -0.32370
 Alpha  occ. eigenvalues --   -0.31181  -0.30077  -0.29225  -0.25632
 Alpha virt. eigenvalues --   -0.03629   0.08660   0.09045   0.09892   0.10905
 Alpha virt. eigenvalues --    0.12219   0.13042   0.13889   0.14953   0.16824
 Alpha virt. eigenvalues --    0.18507   0.18788   0.19240   0.20388   0.22092

 Mulliken charges:
               1
     1  O   -0.257557
     2  C    0.131345
     3  C    0.267367
     4  C   -0.221837
     5  O   -0.259833
     6  C   -0.039165
     7  C   -0.249919
     8  C   -0.218371
     9  C   -0.227824
    10  H    0.086316
    11  H    0.123381
    12  H    0.131365
    13  H    0.092926
    14  H    0.116643
    15  H    0.095758
    16  H    0.101032
    17  H    0.104970
    18  H    0.112084
    19  H    0.111320
 Sum of Mulliken charges =   0.00000

 Dipole moment (field-independent basis, Debye):
    X=             -0.4816    Y=              1.8716    Z=             -0.9550  Tot=              2.1557
 Quadrupole moment (field-independent basis, Debye-Ang):
   XX=            -51.6619   YY=            -56.9138   ZZ=            -53.8715
   XY=              4.8298   XZ=             -0.0209   YZ=             -3.6625

  Exact polarizability:  84.382   2.081  82.251   1.283  -1.633  61.340
 Approx polarizability: 105.199   1.888 130.066   1.029   4.981 100.045

                      1                      2                      3
                      A                      A                      A
 Frequencies --     52.9739               122.4163               131.2019
 Red. masses --      3.3173                 2.7584                 3.5315
 Frc consts  --      0.0055                 0.0244                 0.0358
 IR Inten    --      1.3634                 0.7317                 5.1667

                      4                      5                      6
                      A                      A                      A
 Frequencies --    157.2960               239.5367               257.7174
 Red. masses --      3.2902                 2.9772                 3.2229
 Frc consts  --      0.0480                 0.1006                 0.1261
 IR Inten    --      5.6006                 1.9144                 6.8916

                      7                      8                      9
                      A                      A                      A
 Frequencies --    355.0838               433.4333               486.1550
 Red. masses --      2.4274                 3.5734                 4.0258
 Frc consts  --      0.1803                 0.3955                 0.5606
 IR Inten    --      6.3776                 2.0795                 4.6436

                     10                     11                     12
                      A                      A                      A
 Frequencies --    575.0228               602.9219               731.6449
 Red. masses --      2.3230                 4.9529                 1.6533
 Frc consts  --      0.4526                 1.0608                 0.5214
 IR Inten    --      5.0366                13.2593                 2.7643

                     13                     14                     15
                      A                      A                      A
 Frequencies --    784.9940               830.8241               877.9894
 Red. masses --      1.2078                 3.6589                 2.3773
 Frc consts  --      0.4385                 1.4881                 1.0797
 IR Inten    --      1.5754                12.4807                25.6033

                     16                     17                     18
                      A                      A                      A
 Frequencies --    890.5673               914.0032               936.3323
 Red. masses --      1.8979                 2.2143                 2.3138
 Frc consts  --      0.8869                 1.0899                 1.1952
 IR Inten    --     12.8168                 6.0769                 1.3495

                     19                     20                     21
                      A                      A                      A
 Frequencies --    957.6334               970.5971              1026.0286
 Red. masses --      1.6681                 2.1456                 1.8946
 Frc consts  --      0.9013                 1.1909                 1.1751
 IR Inten    --      1.2535                 5.9734                 5.8213

                     22                     23                     24
                      A                      A                      A
 Frequencies --   1046.8200              1063.9842              1128.8415
 Red. masses --      2.4655                 2.3959                 1.5903
 Frc consts  --      1.5919                 1.5980                 1.1940
 IR Inten    --      1.4140                 3.8851                 0.7960

                     25                     26                     27
                      A                      A                      A
 Frequencies --   1140.6856              1165.6960              1203.5256
 Red. masses --      1.7002                 1.3227                 1.3457
 Frc consts  --      1.3034                 1.0589                 1.1485
 IR Inten    --      4.7694                 1.4151                 2.5741

                     28                     29                     30
                      A                      A                      A
 Frequencies --   1236.7156              1252.1440              1260.5585
 Red. masses --      1.6193                 1.2886                 1.5362
 Frc consts  --      1.4592                 1.1903                 1.4382
 IR Inten    --      5.3325                 0.5930                 3.0674

                     31                     32                     33
                      A                      A                      A
 Frequencies --   1264.7161              1284.5983              1290.9953
 Red. masses --      1.1737                 1.4321                 1.6108
 Frc consts  --      1.1061                 1.3923                 1.5818
 IR Inten    --      0.9302                 0.4091                 3.3248

                     34                     35                     36
                      A                      A                      A
 Frequencies --   1340.3428              1388.2980              1425.5732
 Red. masses --      2.1709                 1.9385                 1.5458
 Frc consts  --      2.2978                 2.2013                 1.8509
 IR Inten    --      3.4641                 3.0395                 6.9864

                     37                     38                     39
                      A                      A                      A
 Frequencies --   1476.6615              1487.1871              1508.4758
 Red. masses --      1.0897                 1.0838                 1.1589
 Frc consts  --      1.3999                 1.4123                 1.5537
 IR Inten    --      0.5321                 2.2650                 1.2757

                     40                     41                     42
                      A                      A                      A
 Frequencies --   1520.1142              1826.1968              2887.8990
 Red. masses --      1.2352                10.8336                 1.0845
 Frc consts  --      1.6817                21.2872                 5.3288
 IR Inten    --      1.2428               165.9470                97.3754

                     43                     44                     45
                      A                      A                      A
 Frequencies --   3056.7617              3060.7136              3063.9460
 Red. masses --      1.0566                 1.0582                 1.0656
 Frc consts  --      5.8170                 5.8407                 5.8939
 IR Inten    --     38.3062                42.0369                 8.9069

                     46                     47                     48
                      A                      A                      A
 Frequencies --   3072.5783              3084.3125              3105.4559
 Red. masses --      1.0819                 1.0499                 1.1060
 Frc consts  --      6.0180                 5.8844                 6.2840
 IR Inten    --      7.5753                22.2043                 9.7028

                     49                     50                     51
                      A                      A                      A
 Frequencies --   3117.3061              3129.5526              3174.9438
 Red. masses --      1.1072                 1.1071                 1.1194
 Frc consts  --      6.3393                 6.3885                 6.6481
 IR Inten    --     21.6489                44.3093                14.3935

 - Thermochemistry -
 -------------------
 Temperature   298.150 Kelvin.  Pressure   1.00000 Atm.
 Atom     1 has atomic number  8 and mass  15.99491

 Molecular mass:   126.06808 amu.
 Principal axes and moments of inertia in atomic units:
                           1         2         3
     Eigenvalues --   722.274401308.785341756.15603
           X            0.99923   0.03926  -0.00016
           Y           -0.03923   0.99834  -0.04220
           Z           -0.00149   0.04218   0.99911
 This molecule is an asymmetric top.
 Rotational symmetry number  1.
 Warning -- assumption of classical behavior for rotation
           may cause significant error
 Rotational temperatures (Kelvin)      0.11992     0.06618     0.04932
 Rotational constants (GHZ):           2.49869     1.37894     1.02767
 Zero-point vibrational energy     415104.0 (Joules/Mol)
                                   99.21224 (Kcal/Mol)
 Warning -- explicit consideration of  11 degrees of freedom as
           vibrations may cause significant error
 Vibrational temperatures:     76.22   176.13   188.77   226.31   344.64
          (Kelvin)            370.80   510.89   623.61   699.47   827.33
                              867.47  1052.67  1129.43  1195.37  1263.23
                             1281.33  1315.05  1347.17  1377.82  1396.47
                             1476.22  1506.14  1530.83  1624.15  1641.19
                             1677.17  1731.60  1779.36  1801.55  1813.66
                             1819.64  1848.25  1857.45  1928.45  1997.45
                             2051.08  2124.58  2139.73  2170.36  2187.10
                             2627.49  4155.04  4397.99  4403.68  4408.33
                             4420.75  4437.63  4468.05  4485.10  4502.72
                             4568.03

 Zero-point correction=                           0.158105 (Hartree/Particle)
 Thermal correction to Energy=                    0.166790
 Thermal correction to Enthalpy=                  0.167734
 Thermal correction to Gibbs Free Energy=         0.124089
 Sum of electronic and zero-point Energies=           -423.003168
 Sum of electronic and thermal Energies=              -422.994483
 Sum of electronic and thermal Enthalpies=            -422.993539
 Sum of electronic and thermal Free Energies=         -423.037184

                     E (Thermal)             CV                S
                      KCal/Mol        Cal/Mol-Kelvin    Cal/Mol-Kelvin
 Total                  104.662             32.016             91.859
 Electronic               0.000              0.000              0.000
 Translational            0.889              2.981             40.409
 Rotational               0.889              2.981             28.897
 Vibrational            102.885             26.054             22.553
 Vibration     1          0.596              1.976              4.703
 Vibration     2          0.610              1.930              3.062
 Vibration     3          0.612              1.922              2.928
 Vibration     4          0.621              1.894              2.582
 Vibration     5          0.657              1.780              1.806
 Vibration     6          0.667              1.750              1.677
 Vibration     7          0.731              1.565              1.144
 Vibration     8          0.794              1.397              0.848
 Vibration     9          0.842              1.281              0.694
 Vibration    10          0.931              1.085              0.495
 Vibration    11          0.961              1.026              0.445

 Optimization completed.
    -- Stationary point found.
 Normal termination of Gaussian 09 at Mon Jan 27 14:34:29 2020.
