 Gaussian 09, Revision D.01,
 Gaussian 09:  ES64L-G09RevD.01 24-Apr-2013

 -----------------------------
 # b3lyp 6-31G(2df,p) opt Freq
 -----------------------------

 -----
 titel
 -----
 Symbolic Z-matrix:
 Charge =  0 Multiplicity = 1

 SCF Done:  E(RB3LYP) =  -423.128832287     A.U. after   13 cycles
 Optimization completed.
    -- Stationary point found.
 Normal termination of Gaussian 09 at Mon Jan 27 17:10:25 2020.

 ----------------------------------------------------------------------
 #N Geom=AllCheck Guess=TCheck SCRF=Check GenChk RB3LYP/6-31G(2df,p) Fr
 eq
 ----------------------------------------------------------------------

 Structure from the checkpoint file:  "/scratch/puck/g09_c53c4dde-fce2-407f-8597-e5d5600fd8ae/Gau-179230.chk"
 -----
 titel
 -----
 Charge =  0 Multiplicity = 1

                         Standard orientation:
 ---------------------------------------------------------------------
 Center     Atomic      Atomic             Coordinates (Angstroms)
 Number     Number       Type             X           Y           Z
 ---------------------------------------------------------------------
      1          8           0        2.064071   -1.071218   -0.021496
      2          6           0        0.948027   -0.230249    0.001360
      3          6           0        0.739872    0.951783   -0.999219
      4          6           0       -0.281449    1.423491    0.086366
      5          6           0        0.725542    0.829755    1.119559
      6          6           0       -1.527975    0.456848   -0.034021
      7          6           0       -1.407511   -0.731970    0.951654
      8          6           0       -0.354754   -1.125478   -0.111106
      9          8           0       -1.230903   -0.502509   -1.098699
     10          1           0        2.853284   -0.527213    0.070720
     11          1           0        1.615358    1.607114   -1.024353
     12          1           0        0.383493    0.736793   -2.002322
     13          1           0       -0.553781    2.476249    0.152507
     14          1           0        1.600590    1.480007    1.221644
     15          1           0        0.397420    0.530025    2.113436
     16          1           0       -2.477139    0.973031   -0.187860
     17          1           0       -1.144269   -0.588564    1.997684
     18          1           0       -2.281680   -1.378714    0.868574
     19          1           0       -0.109121   -2.163988   -0.336028
 ---------------------------------------------------------------------

 SCF Done:  E(RB3LYP) =  -423.128832287     A.U. after    1 cycles

 The electronic state is 1-A.
 Alpha  occ. eigenvalues --  -19.14208 -19.12875 -10.24093 -10.23930 -10.23521
 Alpha  occ. eigenvalues --  -10.19647 -10.18572 -10.18209 -10.17587  -1.04726
 Alpha  occ. eigenvalues --   -1.02406  -0.85193  -0.73925  -0.70997  -0.65471
 Alpha  occ. eigenvalues --   -0.61264  -0.58951  -0.53989  -0.50758  -0.49622
 Alpha  occ. eigenvalues --   -0.47638  -0.43122  -0.41792  -0.40775  -0.39085
 Alpha  occ. eigenvalues --   -0.37953  -0.37333  -0.34682  -0.33070  -0.32272
 Alpha  occ. eigenvalues --   -0.29966  -0.29477  -0.25795  -0.23998
 Alpha virt. eigenvalues --    0.07597   0.07923   0.09367   0.11892   0.12939
 Alpha virt. eigenvalues --    0.13357   0.14375   0.15896   0.16962   0.17765
 Alpha virt. eigenvalues --    0.18795   0.19443   0.20568   0.22397   0.23158

 Mulliken charges:
               1
     1  O   -0.495743
     2  C    0.397838
     3  C   -0.257238
     4  C   -0.062597
     5  C   -0.290318
     6  C    0.077570
     7  C   -0.229721
     8  C    0.044157
     9  O   -0.282537
    10  H    0.276090
    11  H    0.078009
    12  H    0.119666
    13  H    0.068485
    14  H    0.083351
    15  H    0.096880
    16  H    0.077976
    17  H    0.099741
    18  H    0.109582
    19  H    0.088809
 Sum of Mulliken charges =   0.00000

 Dipole moment (field-independent basis, Debye):
    X=              0.6097    Y=              1.5608    Z=              1.5574  Tot=              2.2877
 Quadrupole moment (field-independent basis, Debye-Ang):
   XX=            -49.3057   YY=            -53.6298   ZZ=            -55.2831
   XY=              1.8533   XZ=             -1.7615   YZ=             -0.9886

  Exact polarizability:  79.842   1.877  72.988  -1.309  -0.896  67.011
 Approx polarizability: 113.479  -0.763 109.435   1.025   0.864 105.718

                      1                      2                      3
                      A                      A                      A
 Frequencies --    220.3397               301.9397               335.9486
 Red. masses --      2.4701                 1.3022                 4.3845
 Frc consts  --      0.0707                 0.0699                 0.2916
 IR Inten    --      8.7980                76.8376                 6.2352

                      4                      5                      6
                      A                      A                      A
 Frequencies --    413.3597               478.0845               497.6540
 Red. masses --      3.1106                 2.9998                 4.3861
 Frc consts  --      0.3131                 0.4040                 0.6400
 IR Inten    --     12.0675                 3.7424                 0.5349

                      7                      8                      9
                      A                      A                      A
 Frequencies --    516.1007               560.8307               596.3726
 Red. masses --      2.4732                 4.0791                 2.2579
 Frc consts  --      0.3881                 0.7559                 0.4731
 IR Inten    --      1.8029                 2.9998                 5.5466

                     10                     11                     12
                      A                      A                      A
 Frequencies --    642.6875               754.8680               786.4206
 Red. masses --      4.0177                 2.7797                 2.6773
 Frc consts  --      0.9778                 0.9332                 0.9756
 IR Inten    --      2.1644                 2.8988                 5.2900

                     13                     14                     15
                      A                      A                      A
 Frequencies --    848.9717               870.2005               874.7090
 Red. masses --      2.5832                 2.9366                 2.7598
 Frc consts  --      1.0970                 1.3102                 1.2441
 IR Inten    --      1.8941                16.0796                24.6277

                     16                     17                     18
                      A                      A                      A
 Frequencies --    894.1260               925.7543               936.0263
 Red. masses --      2.2697                 2.6535                 2.3900
 Frc consts  --      1.0691                 1.3399                 1.2338
 IR Inten    --      3.6532                24.6219                13.3096

                     19                     20                     21
                      A                      A                      A
 Frequencies --    945.9387               990.3271              1008.4903
 Red. masses --      3.7019                 2.5372                 1.7137
 Frc consts  --      1.9517                 1.4661                 1.0269
 IR Inten    --     12.5364                19.4941                 7.4586

                     22                     23                     24
                      A                      A                      A
 Frequencies --   1041.9944              1047.2295              1064.7663
 Red. masses --      1.4900                 1.3648                 1.7001
 Frc consts  --      0.9532                 0.8819                 1.1356
 IR Inten    --      3.0913                 5.1103                 8.8880

                     25                     26                     27
                      A                      A                      A
 Frequencies --   1093.4539              1121.5733              1132.9681
 Red. masses --      1.2289                 2.0289                 1.2460
 Frc consts  --      0.8657                 1.5037                 0.9423
 IR Inten    --      6.0836                 2.9347                65.8381

                     28                     29                     30
                      A                      A                      A
 Frequencies --   1160.4194              1193.9083              1202.8107
 Red. masses --      1.6553                 1.5538                 2.6960
 Frc consts  --      1.3133                 1.3049                 2.2980
 IR Inten    --      3.0245                 7.2793                57.9330

                     31                     32                     33
                      A                      A                      A
 Frequencies --   1231.4630              1235.8628              1251.3652
 Red. masses --      1.4408                 1.4062                 1.5866
 Frc consts  --      1.2873                 1.2654                 1.4638
 IR Inten    --      7.2978                 4.0481                 9.4088

                     34                     35                     36
                      A                      A                      A
 Frequencies --   1298.9713              1307.5137              1314.9810
 Red. masses --      1.6222                 1.5116                 1.4784
 Frc consts  --      1.6127                 1.5226                 1.5062
 IR Inten    --      1.3852                18.8425                38.1129

                     37                     38                     39
                      A                      A                      A
 Frequencies --   1349.4048              1374.9563              1474.9227
 Red. masses --      1.6440                 1.7243                 1.1041
 Frc consts  --      1.7637                 1.9206                 1.4151
 IR Inten    --     46.8914                 5.0474                 0.7145

                     40                     41                     42
                      A                      A                      A
 Frequencies --   1500.1638              1546.1042              3050.2380
 Red. masses --      1.1433                 1.1087                 1.0668
 Frc consts  --      1.5160                 1.5614                 5.8477
 IR Inten    --      9.1692                 2.8614                21.8177

                     43                     44                     45
                      A                      A                      A
 Frequencies --   3067.5744              3090.3355              3099.4356
 Red. masses --      1.0663                 1.0675                 1.0828
 Frc consts  --      5.9120                 6.0069                 6.1285
 IR Inten    --     56.1395                14.0650                29.9042

                     46                     47                     48
                      A                      A                      A
 Frequencies --   3115.8193              3119.2495              3129.1510
 Red. masses --      1.0885                 1.0924                 1.0986
 Frc consts  --      6.2261                 6.2622                 6.3381
 IR Inten    --     77.2651                13.2105                36.8024

                     49                     50                     51
                      A                      A                      A
 Frequencies --   3158.0992              3173.9328              3811.3830
 Red. masses --      1.1037                 1.0989                 1.0658
 Frc consts  --      6.4858                 6.5224                 9.1217
 IR Inten    --     35.2686                12.3679                16.4684

 - Thermochemistry -
 -------------------
 Temperature   298.150 Kelvin.  Pressure   1.00000 Atm.
 Atom     1 has atomic number  8 and mass  15.99491

 Molecular mass:   126.06808 amu.
 Principal axes and moments of inertia in atomic units:
                           1         2         3
     Eigenvalues --   656.17659 966.587831099.29089
           X            0.99853   0.04654  -0.02766
           Y           -0.04777   0.99781  -0.04585
           Z            0.02547   0.04710   0.99857
 This molecule is an asymmetric top.
 Rotational symmetry number  1.
 Warning -- assumption of classical behavior for rotation
           may cause significant error
 Rotational temperatures (Kelvin)      0.13200     0.08961     0.07879
 Rotational constants (GHZ):           2.75039     1.86713     1.64173
 Zero-point vibrational energy     425626.5 (Joules/Mol)
                                  101.72718 (Kcal/Mol)
 Warning -- explicit consideration of   9 degrees of freedom as
           vibrations may cause significant error
 Vibrational temperatures:    317.02   434.42   483.35   594.73   687.86
          (Kelvin)            716.01   742.55   806.91   858.05   924.68
                             1086.09  1131.48  1221.48  1252.02  1258.51
                             1286.45  1331.95  1346.73  1360.99  1424.86
                             1450.99  1499.20  1506.73  1531.96  1573.23
                             1613.69  1630.09  1669.58  1717.77  1730.57
                             1771.80  1778.13  1800.43  1868.93  1881.22
                             1891.96  1941.49  1978.25  2122.08  2158.40
                             2224.50  4388.61  4413.55  4446.30  4459.39
                             4482.96  4487.90  4502.14  4543.79  4566.58
                             5483.72

 Zero-point correction=                           0.162113 (Hartree/Particle)
 Thermal correction to Energy=                    0.168680
 Thermal correction to Enthalpy=                  0.169625
 Thermal correction to Gibbs Free Energy=         0.131733
 Sum of electronic and zero-point Energies=           -422.966720
 Sum of electronic and thermal Energies=              -422.960152
 Sum of electronic and thermal Enthalpies=            -422.959208
 Sum of electronic and thermal Free Energies=         -422.997100

                     E (Thermal)             CV                S
                      KCal/Mol        Cal/Mol-Kelvin    Cal/Mol-Kelvin
 Total                  105.848             28.884             79.750
 Electronic               0.000              0.000              0.000
 Translational            0.889              2.981             40.409
 Rotational               0.889              2.981             28.035
 Vibrational            104.071             22.922             11.307
 Vibration     1          0.647              1.810              1.956
 Vibration     2          0.694              1.670              1.406
 Vibration     3          0.717              1.604              1.231
 Vibration     4          0.777              1.441              0.915
 Vibration     5          0.835              1.299              0.715
 Vibration     6          0.853              1.255              0.664
 Vibration     7          0.871              1.214              0.619
 Vibration     8          0.916              1.116              0.522
 Vibration     9          0.954              1.040              0.456

 Optimization completed.
    -- Stationary point found.
 Normal termination of Gaussian 09 at Mon Jan 27 17:58:29 2020.
