 Gaussian 09, Revision D.01,
 Gaussian 09:  ES64L-G09RevD.01 24-Apr-2013

 -----------------------------
 # b3lyp 6-31G(2df,p) opt Freq
 -----------------------------

 -----
 titel
 -----
 Symbolic Z-matrix:
 Charge =  0 Multiplicity = 1

 SCF Done:  E(RB3LYP) =  -423.184321101     A.U. after   14 cycles
 Optimization completed.
    -- Stationary point found.
 Normal termination of Gaussian 09 at Mon Jan 27 13:40:43 2020.

 ----------------------------------------------------------------------
 #N Geom=AllCheck Guess=TCheck SCRF=Check GenChk RB3LYP/6-31G(2df,p) Fr
 eq
 ----------------------------------------------------------------------

 Structure from the checkpoint file:  "/scratch/puck/g09_4d7d44d6-552f-464d-a7c5-196598de5919/Gau-75842.chk"
 -----
 titel
 -----
 Charge =  0 Multiplicity = 1

                         Standard orientation:
 ---------------------------------------------------------------------
 Center     Atomic      Atomic             Coordinates (Angstroms)
 Number     Number       Type             X           Y           Z
 ---------------------------------------------------------------------
      1          8           0       -3.526763    0.572102    0.221596
      2          6           0       -2.645254    0.139940   -0.474558
      3          6           0       -1.616544   -0.882736   -0.036782
      4          6           0       -0.202139   -0.402106   -0.308531
      5          6           0        0.936087   -0.927134    0.530004
      6          6           0        2.318599   -0.835773   -0.091846
      7          8           0        2.400942    0.472796   -0.650519
      8          6           0        1.617271    1.352639    0.152832
      9          6           0        0.476700    0.505823    0.689367
     10          1           0       -2.525065    0.486868   -1.528131
     11          1           0       -1.775638   -1.098583    1.024034
     12          1           0       -1.805471   -1.808137   -0.601115
     13          1           0        0.025833   -0.214127   -1.356138
     14          1           0        0.744254   -1.677344    1.288440
     15          1           0        3.088356   -0.991304    0.681694
     16          1           0        2.499289   -1.545095   -0.906374
     17          1           0        2.206432    1.763927    0.988529
     18          1           0        1.304618    2.182019   -0.490159
     19          1           0       -0.064358    0.838678    1.567699
 ---------------------------------------------------------------------

 SCF Done:  E(RB3LYP) =  -423.184321101     A.U. after    1 cycles

 The electronic state is 1-A.
 Alpha  occ. eigenvalues --  -19.14249 -19.14091 -10.27313 -10.23367 -10.23296
 Alpha  occ. eigenvalues --  -10.20613 -10.20149 -10.20073 -10.19939  -1.04776
 Alpha  occ. eigenvalues --   -1.04105  -0.87519  -0.76168  -0.74069  -0.64921
 Alpha  occ. eigenvalues --   -0.58712  -0.57723  -0.57504  -0.51720  -0.48397
 Alpha  occ. eigenvalues --   -0.47018  -0.45818  -0.44700  -0.43090  -0.42792
 Alpha  occ. eigenvalues --   -0.40474  -0.37750  -0.37116  -0.36777  -0.32448
 Alpha  occ. eigenvalues --   -0.29756  -0.29127  -0.25707  -0.24817
 Alpha virt. eigenvalues --   -0.02200   0.08731   0.10486   0.10906   0.11847
 Alpha virt. eigenvalues --    0.13065   0.13300   0.14064   0.14671   0.16010
 Alpha virt. eigenvalues --    0.16688   0.17345   0.17475   0.19182   0.21178

 Mulliken charges:
               1
     1  O   -0.237740
     2  C    0.169354
     3  C   -0.321410
     4  C   -0.022750
     5  C   -0.085120
     6  C   -0.099815
     7  O   -0.253585
     8  C   -0.100554
     9  C   -0.064477
    10  H    0.072763
    11  H    0.119308
    12  H    0.122146
    13  H    0.100605
    14  H    0.091694
    15  H    0.094422
    16  H    0.109783
    17  H    0.094644
    18  H    0.111482
    19  H    0.099250
 Sum of Mulliken charges =   0.00000

 Dipole moment (field-independent basis, Debye):
    X=              1.3615    Y=             -1.5061    Z=              0.1491  Tot=              2.0357
 Quadrupole moment (field-independent basis, Debye-Ang):
   XX=            -67.3503   YY=            -50.8493   ZZ=            -52.0596
   XY=              2.1747   XZ=              5.9439   YZ=              0.4319

  Exact polarizability:  88.530  -3.822  73.125   0.403   0.552  67.110
 Approx polarizability: 114.283  -8.462 108.976  -4.807   2.914 107.311

                      1                      2                      3
                      A                      A                      A
 Frequencies --     44.5742                66.2945               139.9293
 Red. masses --      6.0162                 3.4178                 2.8853
 Frc consts  --      0.0070                 0.0089                 0.0333
 IR Inten    --      4.7461                 4.2723                 4.0104

                      4                      5                      6
                      A                      A                      A
 Frequencies --    205.7387               277.6507               299.6148
 Red. masses --      3.8982                 2.0894                 2.2778
 Frc consts  --      0.0972                 0.0949                 0.1205
 IR Inten    --      2.2496                 3.8598                 1.3672

                      7                      8                      9
                      A                      A                      A
 Frequencies --    359.0004               395.3082               523.8991
 Red. masses --      2.8326                 2.5274                 3.0681
 Frc consts  --      0.2151                 0.2327                 0.4962
 IR Inten    --      0.0480                 5.3509                11.0586

                     10                     11                     12
                      A                      A                      A
 Frequencies --    671.1362               740.8930               751.3378
 Red. masses --      3.9778                 4.6400                 1.8488
 Frc consts  --      1.0556                 1.5006                 0.6149
 IR Inten    --      1.0632                 7.7611                 0.8293

                     13                     14                     15
                      A                      A                      A
 Frequencies --    854.2303               863.3848               877.3275
 Red. masses --      1.9300                 1.6795                 2.7105
 Frc consts  --      0.8298                 0.7376                 1.2292
 IR Inten    --      5.3059                 7.9681                 8.5068

                     16                     17                     18
                      A                      A                      A
 Frequencies --    927.0057               975.9601               989.2687
 Red. masses --      4.4430                 1.8262                 1.6467
 Frc consts  --      2.2495                 1.0249                 0.9495
 IR Inten    --     12.5196                11.0521                 3.2032

                     19                     20                     21
                      A                      A                      A
 Frequencies --   1007.6247              1034.3842              1069.5014
 Red. masses --      1.9568                 1.8571                 1.6793
 Frc consts  --      1.1706                 1.1707                 1.1317
 IR Inten    --     10.3613                 6.6626                 6.9178

                     22                     23                     24
                      A                      A                      A
 Frequencies --   1095.3879              1105.1920              1116.3257
 Red. masses --      2.2132                 2.6388                 1.8566
 Frc consts  --      1.5646                 1.8990                 1.3632
 IR Inten    --     21.8739                19.5000                28.9692

                     25                     26                     27
                      A                      A                      A
 Frequencies --   1128.0736              1132.5190              1177.2368
 Red. masses --      1.6353                 2.1934                 1.5428
 Frc consts  --      1.2261                 1.6575                 1.2598
 IR Inten    --      8.7586                 5.7528                 9.8338

                     28                     29                     30
                      A                      A                      A
 Frequencies --   1221.2187              1230.4252              1256.3805
 Red. masses --      1.1258                 1.4629                 1.2199
 Frc consts  --      0.9892                 1.3049                 1.1345
 IR Inten    --     11.6533                 3.3219                 5.5350

                     31                     32                     33
                      A                      A                      A
 Frequencies --   1277.1538              1314.6041              1323.9292
 Red. masses --      1.3610                 1.5807                 1.5340
 Frc consts  --      1.3080                 1.6095                 1.5842
 IR Inten    --      2.6156                 3.0872                 1.6782

                     34                     35                     36
                      A                      A                      A
 Frequencies --   1354.2476              1390.8369              1429.7786
 Red. masses --      1.3329                 1.5182                 1.1970
 Frc consts  --      1.4403                 1.7303                 1.4417
 IR Inten    --      0.1563                17.1439                 4.5912

                     37                     38                     39
                      A                      A                      A
 Frequencies --   1457.2578              1461.2123              1509.4705
 Red. masses --      2.1323                 1.1496                 1.0861
 Frc consts  --      2.6679                 1.4462                 1.4581
 IR Inten    --      0.4411                 4.9293                 0.3813

                     40                     41                     42
                      A                      A                      A
 Frequencies --   1522.0822              1836.7728              2854.5706
 Red. masses --      1.0967                10.1463                 1.0820
 Frc consts  --      1.4969                20.1682                 5.1946
 IR Inten    --      0.0939               175.8428               107.6475

                     43                     44                     45
                      A                      A                      A
 Frequencies --   2970.8098              2976.8364              3006.4592
 Red. masses --      1.0693                 1.0712                 1.0656
 Frc consts  --      5.5603                 5.5931                 5.6750
 IR Inten    --     65.6533                98.8754                17.3709

                     46                     47                     48
                      A                      A                      A
 Frequencies --   3067.3528              3070.4702              3090.6874
 Red. masses --      1.0918                 1.0939                 1.0947
 Frc consts  --      6.0522                 6.0760                 6.1610
 IR Inten    --     38.9518                28.3462                 7.5428

                     49                     50                     51
                      A                      A                      A
 Frequencies --   3126.9772              3177.2837              3186.3282
 Red. masses --      1.0874                 1.0888                 1.0930
 Frc consts  --      6.2645                 6.4759                 6.5384
 IR Inten    --     10.6880                 8.1817                 9.7839

 - Thermochemistry -
 -------------------
 Temperature   298.150 Kelvin.  Pressure   1.00000 Atm.
 Atom     1 has atomic number  8 and mass  15.99491

 Molecular mass:   126.06808 amu.
 Principal axes and moments of inertia in atomic units:
                           1         2         3
     Eigenvalues --   417.097842089.647052270.24214
           X            0.99993   0.00513   0.01021
           Y           -0.00514   0.99999   0.00145
           Z           -0.01021  -0.00150   0.99995
 This molecule is an asymmetric top.
 Rotational symmetry number  1.
 Rotational temperatures (Kelvin)      0.20766     0.04145     0.03815
 Rotational constants (GHZ):           4.32690     0.86366     0.79496
 Zero-point vibrational energy     418345.7 (Joules/Mol)
                                   99.98703 (Kcal/Mol)
 Warning -- explicit consideration of   9 degrees of freedom as
           vibrations may cause significant error
 Vibrational temperatures:     64.13    95.38   201.33   296.01   399.48
          (Kelvin)            431.08   516.52   568.76   753.77   965.61
                             1065.98  1081.01  1229.05  1242.22  1262.28
                             1333.75  1404.19  1423.34  1449.75  1488.25
                             1538.77  1576.02  1590.12  1606.14  1623.04
                             1629.44  1693.78  1757.06  1770.31  1807.65
                             1837.54  1891.42  1904.84  1948.46  2001.10
                             2057.13  2096.67  2102.36  2171.79  2189.93
                             2642.70  4107.09  4274.33  4283.00  4325.62
                             4413.23  4417.72  4446.80  4499.02  4571.40
                             4584.41

 Zero-point correction=                           0.159339 (Hartree/Particle)
 Thermal correction to Energy=                    0.167756
 Thermal correction to Enthalpy=                  0.168700
 Thermal correction to Gibbs Free Energy=         0.125042
 Sum of electronic and zero-point Energies=           -423.024982
 Sum of electronic and thermal Energies=              -423.016565
 Sum of electronic and thermal Enthalpies=            -423.015621
 Sum of electronic and thermal Free Energies=         -423.059279

                     E (Thermal)             CV                S
                      KCal/Mol        Cal/Mol-Kelvin    Cal/Mol-Kelvin
 Total                  105.269             30.785             91.886
 Electronic               0.000              0.000              0.000
 Translational            0.889              2.981             40.409
 Rotational               0.889              2.981             29.072
 Vibrational            103.491             24.823             22.406
 Vibration     1          0.595              1.980              5.045
 Vibration     2          0.598              1.970              4.260
 Vibration     3          0.615              1.913              2.805
 Vibration     4          0.640              1.832              2.081
 Vibration     5          0.679              1.715              1.548
 Vibration     6          0.692              1.674              1.419
 Vibration     7          0.734              1.557              1.126
 Vibration     8          0.762              1.480              0.980
 Vibration     9          0.879              1.197              0.601

 Optimization completed.
    -- Stationary point found.
 Normal termination of Gaussian 09 at Mon Jan 27 14:21:16 2020.
