 Gaussian 09, Revision D.01,
 Gaussian 09:  ES64L-G09RevD.01 24-Apr-2013

 -----------------------------
 # b3lyp 6-31G(2df,p) opt Freq
 -----------------------------

 -----
 titel
 -----
 Symbolic Z-matrix:
 Charge =  0 Multiplicity = 1

 SCF Done:  E(RB3LYP) =  -423.169467537     A.U. after   15 cycles
 Optimization completed.
    -- Stationary point found.
 Normal termination of Gaussian 09 at Tue Jan 28 08:18:45 2020.

 ----------------------------------------------------------------------
 #N Geom=AllCheck Guess=TCheck SCRF=Check GenChk RB3LYP/6-31G(2df,p) Fr
 eq
 ----------------------------------------------------------------------

 Structure from the checkpoint file:  "/scratch/puck/g09_653e5733-a754-409a-a741-c8d9543517fb/Gau-79812.chk"
 -----
 titel
 -----
 Charge =  0 Multiplicity = 1

                         Standard orientation:
 ---------------------------------------------------------------------
 Center     Atomic      Atomic             Coordinates (Angstroms)
 Number     Number       Type             X           Y           Z
 ---------------------------------------------------------------------
      1          6           0        1.230284    2.034323   -0.226751
      2          6           0        1.016740    0.567529   -0.632230
      3          6           0       -0.385185    0.164137   -0.533022
      4          6           0       -1.542438   -0.159117   -0.432279
      5          6           0       -2.944627   -0.537960   -0.253054
      6          8           0       -3.606003    0.203232    0.761768
      7          6           0        1.894011   -0.391798    0.216079
      8          6           0        1.944440   -1.835095   -0.242365
      9          8           0        2.509639    0.010935    1.171455
     10          1           0        0.618813    2.690910   -0.849641
     11          1           0        0.956632    2.183300    0.819250
     12          1           0        2.281831    2.307921   -0.341025
     13          1           0        1.331930    0.430594   -1.677943
     14          1           0       -3.507501   -0.348375   -1.173904
     15          1           0       -3.006119   -1.621951   -0.063474
     16          1           0       -3.064501    0.151571    1.556386
     17          1           0        2.462118   -1.892704   -1.207583
     18          1           0        2.482502   -2.438161    0.489568
     19          1           0        0.935856   -2.228557   -0.395686
 ---------------------------------------------------------------------

 SCF Done:  E(RB3LYP) =  -423.169467537     A.U. after    1 cycles

 The electronic state is 1-A.
 Alpha  occ. eigenvalues --  -19.14368 -19.13798 -10.27886 -10.25603 -10.22414
 Alpha  occ. eigenvalues --  -10.19286 -10.18895 -10.18287 -10.18281  -1.04959
 Alpha  occ. eigenvalues --   -1.02565  -0.82046  -0.75990  -0.74408  -0.69227
 Alpha  occ. eigenvalues --   -0.64819  -0.55151  -0.52702  -0.49718  -0.48066
 Alpha  occ. eigenvalues --   -0.47288  -0.44795  -0.44722  -0.43238  -0.41114
 Alpha  occ. eigenvalues --   -0.39076  -0.37172  -0.37083  -0.36053  -0.35789
 Alpha  occ. eigenvalues --   -0.29298  -0.27711  -0.26802  -0.24070
 Alpha virt. eigenvalues --   -0.02002   0.02463   0.05406   0.08439   0.10474
 Alpha virt. eigenvalues --    0.12316   0.13058   0.14360   0.15018   0.16461
 Alpha virt. eigenvalues --    0.17243   0.17444   0.18521   0.20696   0.21723

 Mulliken charges:
               1
     1  C   -0.382043
     2  C   -0.236412
     3  C    0.083001
     4  C    0.014586
     5  C   -0.188505
     6  O   -0.400031
     7  C    0.384581
     8  C   -0.478620
     9  O   -0.286564
    10  H    0.122339
    11  H    0.140626
    12  H    0.125770
    13  H    0.116955
    14  H    0.141227
    15  H    0.117070
    16  H    0.288837
    17  H    0.141784
    18  H    0.143730
    19  H    0.151668
 Sum of Mulliken charges =   0.00000

 Dipole moment (field-independent basis, Debye):
    X=              0.2478    Y=             -1.4361    Z=             -1.6740  Tot=              2.2195
 Quadrupole moment (field-independent basis, Debye-Ang):
   XX=            -61.9206   YY=            -50.7871   ZZ=            -52.1494
   XY=              1.8040   XZ=             -5.4508   YZ=             -0.3479

  Exact polarizability: 104.774   5.726  74.350   1.769   1.913  65.338
 Approx polarizability: 150.794  13.747  99.142   4.310   4.866 103.657

                      1                      2                      3
                      A                      A                      A
 Frequencies --      8.2996                34.7466                82.7960
 Red. masses --      3.0314                 3.8133                 3.3862
 Frc consts  --      0.0001                 0.0027                 0.0137
 IR Inten    --      2.0941                 3.7444                 0.8051

                      4                      5                      6
                      A                      A                      A
 Frequencies --     97.4305               120.1469               201.8516
 Red. masses --      3.2814                 1.1728                 1.1326
 Frc consts  --      0.0184                 0.0100                 0.0272
 IR Inten    --      0.6658                 0.0810                 0.3421

                      7                      8                      9
                      A                      A                      A
 Frequencies --    225.7636               234.8083               271.1936
 Red. masses --      2.8899                 2.5792                 2.7655
 Frc consts  --      0.0868                 0.0838                 0.1198
 IR Inten    --      9.7703                 9.4202                16.9048

                     10                     11                     12
                      A                      A                      A
 Frequencies --    318.5066               372.6890               405.9539
 Red. masses --      1.5388                 3.2691                 4.2495
 Frc consts  --      0.0920                 0.2675                 0.4126
 IR Inten    --     85.8872                 5.7654                14.4964

                     13                     14                     15
                      A                      A                      A
 Frequencies --    470.4604               552.2064               578.1028
 Red. masses --      4.4633                 3.8879                 4.8940
 Frc consts  --      0.5820                 0.6985                 0.9637
 IR Inten    --      8.7530                 2.3900                 8.3278

                     16                     17                     18
                      A                      A                      A
 Frequencies --    619.6724               726.7549               787.2921
 Red. masses --      3.6831                 2.6477                 2.8374
 Frc consts  --      0.8333                 0.8239                 1.0362
 IR Inten    --      9.1351                 2.5197                 9.1209

                     19                     20                     21
                      A                      A                      A
 Frequencies --    937.6296               962.3267               986.6099
 Red. masses --      2.0227                 1.5990                 1.5802
 Frc consts  --      1.0477                 0.8724                 0.9063
 IR Inten    --      7.5333                11.0789                32.1869

                     22                     23                     24
                      A                      A                      A
 Frequencies --   1027.4915              1058.0441              1080.4269
 Red. masses --      2.4436                 3.2070                 1.8993
 Frc consts  --      1.5200                 2.1152                 1.3062
 IR Inten    --     20.6332                69.7497                 8.2117

                     25                     26                     27
                      A                      A                      A
 Frequencies --   1102.8011              1169.6396              1188.2969
 Red. masses --      2.1800                 2.0570                 2.6630
 Frc consts  --      1.5621                 1.6580                 2.2155
 IR Inten    --      4.7487                 5.6987                71.2578

                     28                     29                     30
                      A                      A                      A
 Frequencies --   1215.3652              1286.8895              1318.6972
 Red. masses --      1.0874                 1.7231                 1.5095
 Frc consts  --      0.9463                 1.6813                 1.5466
 IR Inten    --     15.4548                13.2593                17.0125

                     31                     32                     33
                      A                      A                      A
 Frequencies --   1358.1023              1380.8878              1409.0848
 Red. masses --      1.2166                 1.3104                 1.2090
 Frc consts  --      1.3221                 1.4722                 1.4144
 IR Inten    --      3.8348                38.5920                 5.5586

                     34                     35                     36
                      A                      A                      A
 Frequencies --   1419.2150              1464.9985              1475.1826
 Red. masses --      1.2369                 1.0501                 1.0504
 Frc consts  --      1.4678                 1.3278                 1.3468
 IR Inten    --     93.0210                 9.3227                 8.0553

                     37                     38                     39
                      A                      A                      A
 Frequencies --   1487.3417              1491.2405              1492.2005
 Red. masses --      1.0417                 1.0503                 1.0774
 Frc consts  --      1.3578                 1.3761                 1.4135
 IR Inten    --      6.2461                 2.7779                 0.8107

                     40                     41                     42
                      A                      A                      A
 Frequencies --   1823.8244              2351.5917              2972.0308
 Red. masses --     11.0017                11.8712                 1.0717
 Frc consts  --     21.5613                38.6784                 5.5772
 IR Inten    --    164.6171                 7.3078                48.5327

                     43                     44                     45
                      A                      A                      A
 Frequencies --   2994.2006              3040.2479              3058.8016
 Red. masses --      1.0803                 1.0398                 1.0343
 Frc consts  --      5.7063                 5.6625                 5.7018
 IR Inten    --     13.1300                 3.1848                17.6726

                     46                     47                     48
                      A                      A                      A
 Frequencies --   3061.0939              3108.9322              3134.8384
 Red. masses --      1.0878                 1.0933                 1.1031
 Frc consts  --      6.0054                 6.2259                 6.3873
 IR Inten    --     18.6479                 6.2272                16.8882

                     49                     50                     51
                      A                      A                      A
 Frequencies --   3144.7376              3157.7373              3815.7063
 Red. masses --      1.1023                 1.1035                 1.0663
 Frc consts  --      6.4225                 6.4830                 9.1469
 IR Inten    --     11.5751                 9.2175                19.5804

 - Thermochemistry -
 -------------------
 Temperature   298.150 Kelvin.  Pressure   1.00000 Atm.
 Atom     1 has atomic number  6 and mass  12.00000

 Molecular mass:   126.06808 amu.
 Principal axes and moments of inertia in atomic units:
                           1         2         3
     Eigenvalues --   678.019542388.786362679.18258
           X            0.99994   0.00510  -0.00948
           Y           -0.00502   0.99995   0.00865
           Z            0.00953  -0.00861   0.99992
 This molecule is an asymmetric top.
 Rotational symmetry number  1.
 Warning -- assumption of classical behavior for rotation
           may cause significant error
 Rotational temperatures (Kelvin)      0.12775     0.03626     0.03233
 Rotational constants (GHZ):           2.66178     0.75551     0.67362
 Zero-point vibrational energy     407238.1 (Joules/Mol)
                                   97.33224 (Kcal/Mol)
 Warning -- explicit consideration of  16 degrees of freedom as
           vibrations may cause significant error
 Vibrational temperatures:     11.94    49.99   119.12   140.18   172.86
          (Kelvin)            290.42   324.82   337.84   390.19   458.26
                              536.22   584.08   676.89   794.50   831.76
                              891.57  1045.64  1132.74  1349.04  1384.57
                             1419.51  1478.33  1522.29  1554.49  1586.68
                             1682.85  1709.69  1748.64  1851.54  1897.31
                             1954.00  1986.79  2027.36  2041.93  2107.80
                             2122.46  2139.95  2145.56  2146.94  2624.07
                             3383.41  4276.08  4307.98  4374.23  4400.93
                             4404.23  4473.05  4510.33  4524.57  4543.27
                             5489.94

 Zero-point correction=                           0.155109 (Hartree/Particle)
 Thermal correction to Energy=                    0.166338
 Thermal correction to Enthalpy=                  0.167283
 Thermal correction to Gibbs Free Energy=         0.115489
 Sum of electronic and zero-point Energies=           -423.014359
 Sum of electronic and thermal Energies=              -423.003129
 Sum of electronic and thermal Enthalpies=            -423.002185
 Sum of electronic and thermal Free Energies=         -423.053978

                     E (Thermal)             CV                S
                      KCal/Mol        Cal/Mol-Kelvin    Cal/Mol-Kelvin
 Total                  104.379             37.816            109.008
 Electronic               0.000              0.000              0.000
 Translational            0.889              2.981             40.409
 Rotational               0.889              2.981             29.852
 Vibrational            102.601             31.855             38.748
 Vibration     1          0.593              1.987              8.381
 Vibration     2          0.594              1.983              5.538
 Vibration     3          0.600              1.961              3.823
 Vibration     4          0.603              1.951              3.505
 Vibration     5          0.609              1.932              3.098
 Vibration     6          0.639              1.837              2.116
 Vibration     7          0.650              1.802              1.912
 Vibration     8          0.655              1.788              1.842
 Vibration     9          0.675              1.726              1.589
 Vibration    10          0.705              1.638              1.318
 Vibration    11          0.744              1.528              1.069
 Vibration    12          0.771              1.457              0.941
 Vibration    13          0.827              1.316              0.736
 Vibration    14          0.908              1.135              0.540
 Vibration    15          0.935              1.079              0.489
 Vibration    16          0.980              0.990              0.417

 Optimization completed on the basis of negligible forces.
    -- Stationary point found.
 Normal termination of Gaussian 09 at Tue Jan 28 09:05:23 2020.
