 Gaussian 09, Revision D.01,
 Gaussian 09:  ES64L-G09RevD.01 24-Apr-2013

 -----------------------------
 # b3lyp 6-31G(2df,p) opt Freq
 -----------------------------

 -----
 titel
 -----
 Symbolic Z-matrix:
 Charge =  0 Multiplicity = 1

 SCF Done:  E(RB3LYP) =  -423.185604120     A.U. after   14 cycles
 Optimization completed.
    -- Stationary point found.
 Normal termination of Gaussian 09 at Mon Jan 27 13:48:08 2020.

 ----------------------------------------------------------------------
 #N Geom=AllCheck Guess=TCheck SCRF=Check GenChk RB3LYP/6-31G(2df,p) Fr
 eq
 ----------------------------------------------------------------------

 Structure from the checkpoint file:  "/scratch/puck/g09_8a721acd-5122-4353-85b7-4e1803401940/Gau-23099.chk"
 -----
 titel
 -----
 Charge =  0 Multiplicity = 1

                         Standard orientation:
 ---------------------------------------------------------------------
 Center     Atomic      Atomic             Coordinates (Angstroms)
 Number     Number       Type             X           Y           Z
 ---------------------------------------------------------------------
      1          8           0       -2.851133    0.414762    0.851484
      2          6           0       -2.667528   -0.265807   -0.120697
      3          8           0       -1.478709   -0.638827   -0.611985
      4          6           0       -0.323944   -0.180844    0.116952
      5          6           0        0.138294    1.257233   -0.235023
      6          6           0        1.512310    0.700257   -0.683238
      7          6           0        2.541704    0.461673    0.460045
      8          6           0        2.088339   -1.027198    0.570320
      9          6           0        0.978034   -0.766259   -0.476054
     10          1           0       -3.461464   -0.689549   -0.755801
     11          1           0       -0.489133   -0.373737    1.179542
     12          1           0       -0.441852    1.651208   -1.073405
     13          1           0        0.126860    1.988993    0.576641
     14          1           0        1.912306    1.065383   -1.629210
     15          1           0        3.584472    0.587446    0.160363
     16          1           0        2.372900    1.070788    1.353110
     17          1           0        2.848095   -1.723600    0.207603
     18          1           0        1.752229   -1.372766    1.552704
     19          1           0        0.831066   -1.485975   -1.281369
 ---------------------------------------------------------------------

 SCF Done:  E(RB3LYP) =  -423.185604120     A.U. after    1 cycles

 The electronic state is 1-A.
 Alpha  occ. eigenvalues --  -19.18710 -19.13147 -10.30596 -10.24211 -10.18959
 Alpha  occ. eigenvalues --  -10.18941 -10.18586 -10.18500 -10.18442  -1.10349
 Alpha  occ. eigenvalues --   -1.01923  -0.87544  -0.75939  -0.69759  -0.64858
 Alpha  occ. eigenvalues --   -0.62105  -0.57484  -0.53274  -0.50842  -0.49407
 Alpha  occ. eigenvalues --   -0.47727  -0.46117  -0.45092  -0.42876  -0.40731
 Alpha  occ. eigenvalues --   -0.38546  -0.35693  -0.34812  -0.34127  -0.31144
 Alpha  occ. eigenvalues --   -0.30187  -0.29817  -0.27615  -0.27413
 Alpha virt. eigenvalues --    0.00978   0.07060   0.09068   0.10006   0.11206
 Alpha virt. eigenvalues --    0.13434   0.14047   0.14353   0.15775   0.16752
 Alpha virt. eigenvalues --    0.18398   0.18742   0.20127   0.21220   0.22220

 Mulliken charges:
               1
     1  O   -0.306177
     2  C    0.174920
     3  O   -0.218452
     4  C    0.154765
     5  C   -0.253798
     6  C   -0.020484
     7  C   -0.224390
     8  C   -0.228317
     9  C   -0.061922
    10  H    0.108415
    11  H    0.099633
    12  H    0.110892
    13  H    0.109461
    14  H    0.069013
    15  H    0.104564
    16  H    0.100850
    17  H    0.105128
    18  H    0.099249
    19  H    0.076653
 Sum of Mulliken charges =   0.00000

 Dipole moment (field-independent basis, Debye):
    X=              1.7294    Y=             -0.6331    Z=             -1.1360  Tot=              2.1638
 Quadrupole moment (field-independent basis, Debye-Ang):
   XX=            -54.7838   YY=            -53.0783   ZZ=            -53.8842
   XY=              2.6480   XZ=              4.3222   YZ=             -1.3513

  Exact polarizability:  92.503  -0.667  68.482   1.126   2.138  66.610
 Approx polarizability: 114.093  -2.572 102.545  -2.978   8.485 107.173

                      1                      2                      3
                      A                      A                      A
 Frequencies --     45.0009                48.1600               153.1690
 Red. masses --      5.1962                 2.5492                 4.7157
 Frc consts  --      0.0062                 0.0035                 0.0652
 IR Inten    --      1.2655                 0.1301                 3.2556

                      4                      5                      6
                      A                      A                      A
 Frequencies --    214.9005               297.3504               332.4155
 Red. masses --      2.2279                 3.9975                 2.5236
 Frc consts  --      0.0606                 0.2082                 0.1643
 IR Inten    --      3.5260                 6.6114                 7.3672

                      7                      8                      9
                      A                      A                      A
 Frequencies --    359.4402               471.8183               630.6292
 Red. masses --      2.8407                 2.6133                 2.9821
 Frc consts  --      0.2162                 0.3428                 0.6987
 IR Inten    --      1.8299                 7.7924                 1.0575

                     10                     11                     12
                      A                      A                      A
 Frequencies --    721.1652               760.0332               804.3273
 Red. masses --      1.5514                 2.3942                 2.6811
 Frc consts  --      0.4754                 0.8149                 1.0219
 IR Inten    --      1.8055                 1.1753                 3.5205

                     13                     14                     15
                      A                      A                      A
 Frequencies --    823.0588               831.7899               889.4913
 Red. masses --      2.4644                 2.1605                 1.7005
 Frc consts  --      0.9836                 0.8807                 0.7927
 IR Inten    --      8.1681                 1.8001                 3.1572

                     16                     17                     18
                      A                      A                      A
 Frequencies --    901.0795               943.7053               966.6757
 Red. masses --      2.8877                 2.3094                 2.1048
 Frc consts  --      1.3814                 1.2118                 1.1589
 IR Inten    --      3.3113                 4.3012                 1.9043

                     19                     20                     21
                      A                      A                      A
 Frequencies --   1005.5265              1012.6364              1044.4196
 Red. masses --      2.5532                 1.8140                 1.6471
 Frc consts  --      1.5210                 1.0960                 1.0586
 IR Inten    --      3.6626                11.2311                 0.2480

                     22                     23                     24
                      A                      A                      A
 Frequencies --   1057.6613              1099.1084              1111.6563
 Red. masses --      2.3787                 1.5978                 2.1113
 Frc consts  --      1.5678                 1.1372                 1.5372
 IR Inten    --      5.8017                 1.2046                 3.8716

                     25                     26                     27
                      A                      A                      A
 Frequencies --   1142.7777              1196.6467              1208.4595
 Red. masses --      1.6001                 1.6946                 1.4227
 Frc consts  --      1.2311                 1.4297                 1.2242
 IR Inten    --      1.2067               100.6571                27.4565

                     28                     29                     30
                      A                      A                      A
 Frequencies --   1209.7204              1235.9668              1246.1253
 Red. masses --      3.6503                 1.4924                 1.5000
 Frc consts  --      3.1474                 1.3432                 1.3724
 IR Inten    --    297.4134                 2.9727                 1.7821

                     31                     32                     33
                      A                      A                      A
 Frequencies --   1255.2393              1272.4161              1286.7480
 Red. masses --      1.2961                 1.5415                 1.5187
 Frc consts  --      1.2032                 1.4705                 1.4815
 IR Inten    --      0.6887                 0.7842                 2.5072

                     34                     35                     36
                      A                      A                      A
 Frequencies --   1300.6815              1313.9298              1390.0577
 Red. masses --      1.5880                 1.4656                 1.3179
 Frc consts  --      1.5828                 1.4907                 1.5004
 IR Inten    --      0.9321                 0.8330                12.4279

                     37                     38                     39
                      A                      A                      A
 Frequencies --   1407.6215              1467.9942              1478.5172
 Red. masses --      1.1520                 1.1091                 1.0848
 Frc consts  --      1.3448                 1.4083                 1.3972
 IR Inten    --      1.7609                 2.1554                 1.4126

                     40                     41                     42
                      A                      A                      A
 Frequencies --   1495.6906              1817.1956              3024.2336
 Red. masses --      1.1098                 9.5620                 1.0902
 Frc consts  --      1.4627                18.6039                 5.8747
 IR Inten    --      1.7522               265.7504                76.0787

                     43                     44                     45
                      A                      A                      A
 Frequencies --   3050.1012              3057.2671              3061.6267
 Red. masses --      1.0591                 1.0615                 1.0586
 Frc consts  --      5.8053                 5.8459                 5.8464
 IR Inten    --     38.2806                42.5175                21.3639

                     46                     47                     48
                      A                      A                      A
 Frequencies --   3080.4187              3092.3940              3103.1084
 Red. masses --      1.0871                 1.1018                 1.0945
 Frc consts  --      6.0775                 6.2080                 6.2096
 IR Inten    --     16.2818                 6.5495                15.3401

                     49                     50                     51
                      A                      A                      A
 Frequencies --   3110.5061              3117.1130              3122.0891
 Red. masses --      1.0966                 1.1030                 1.1018
 Frc consts  --      6.2514                 6.3144                 6.3275
 IR Inten    --     19.5218                12.8593                63.8525

 - Thermochemistry -
 -------------------
 Temperature   298.150 Kelvin.  Pressure   1.00000 Atm.
 Atom     1 has atomic number  8 and mass  15.99491

 Molecular mass:   126.06808 amu.
 Principal axes and moments of inertia in atomic units:
                           1         2         3
     Eigenvalues --   429.180931829.339531934.46764
           X            0.99992   0.00132   0.01294
           Y           -0.00074   0.99902  -0.04432
           Z           -0.01299   0.04431   0.99893
 This molecule is an asymmetric top.
 Rotational symmetry number  1.
 Rotational temperatures (Kelvin)      0.20181     0.04735     0.04477
 Rotational constants (GHZ):           4.20508     0.98655     0.93294
 Zero-point vibrational energy     419110.9 (Joules/Mol)
                                  100.16990 (Kcal/Mol)
 Warning -- explicit consideration of   8 degrees of freedom as
           vibrations may cause significant error
 Vibrational temperatures:     64.75    69.29   220.38   309.19   427.82
          (Kelvin)            478.27   517.15   678.84   907.33  1037.59
                             1093.52  1157.25  1184.20  1196.76  1279.78
                             1296.45  1357.78  1390.83  1446.73  1456.96
                             1502.68  1521.74  1581.37  1599.42  1644.20
                             1721.71  1738.70  1740.52  1778.28  1792.89
                             1806.01  1830.72  1851.34  1871.39  1890.45
                             1999.98  2025.25  2112.11  2127.25  2151.96
                             2614.54  4351.19  4388.41  4398.72  4404.99
                             4432.03  4449.26  4464.68  4475.32  4484.82
                             4491.98

 Zero-point correction=                           0.159631 (Hartree/Particle)
 Thermal correction to Energy=                    0.167851
 Thermal correction to Enthalpy=                  0.168795
 Thermal correction to Gibbs Free Energy=         0.125446
 Sum of electronic and zero-point Energies=           -423.025973
 Sum of electronic and thermal Energies=              -423.017753
 Sum of electronic and thermal Enthalpies=            -423.016809
 Sum of electronic and thermal Free Energies=         -423.060158

                     E (Thermal)             CV                S
                      KCal/Mol        Cal/Mol-Kelvin    Cal/Mol-Kelvin
 Total                  105.328             30.399             91.237
 Electronic               0.000              0.000              0.000
 Translational            0.889              2.981             40.409
 Rotational               0.889              2.981             28.809
 Vibrational            103.551             24.437             22.019
 Vibration     1          0.595              1.979              5.026
 Vibration     2          0.595              1.978              4.892
 Vibration     3          0.619              1.899              2.632
 Vibration     4          0.645              1.818              2.002
 Vibration     5          0.691              1.679              1.432
 Vibration     6          0.714              1.611              1.248
 Vibration     7          0.734              1.556              1.125
 Vibration     8          0.829              1.313              0.732

 Optimization completed.
    -- Stationary point found.
 Normal termination of Gaussian 09 at Mon Jan 27 14:32:10 2020.
