 Gaussian 09, Revision D.01,
 Gaussian 09:  ES64L-G09RevD.01 24-Apr-2013

 -----------------------------
 # b3lyp 6-31G(2df,p) opt Freq
 -----------------------------

 -----
 titel
 -----
 Symbolic Z-matrix:
 Charge =  0 Multiplicity = 1

 SCF Done:  E(RB3LYP) =  -423.166482550     A.U. after   14 cycles
 Optimization completed.
    -- Stationary point found.
 Normal termination of Gaussian 09 at Mon Jan 27 15:27:46 2020.

 ----------------------------------------------------------------------
 #N Geom=AllCheck Guess=TCheck SCRF=Check GenChk RB3LYP/6-31G(2df,p) Fr
 eq
 ----------------------------------------------------------------------

 Structure from the checkpoint file:  "/scratch/puck/g09_29a62f7b-13c0-4a7a-aa1d-2c47f546baef/Gau-44352.chk"
 -----
 titel
 -----
 Charge =  0 Multiplicity = 1

                         Standard orientation:
 ---------------------------------------------------------------------
 Center     Atomic      Atomic             Coordinates (Angstroms)
 Number     Number       Type             X           Y           Z
 ---------------------------------------------------------------------
      1          6           0       -2.994606   -0.184662    0.714455
      2          6           0       -1.982299    0.282820   -0.334106
      3          8           0       -1.670562    1.662549   -0.219010
      4          6           0       -0.682321   -0.527420   -0.225850
      5          8           0       -0.729606   -1.736761   -0.258905
      6          6           0        0.618616    0.237289   -0.091414
      7          6           0        1.837662   -0.693821   -0.011020
      8          6           0        3.088787    0.042076    0.119114
      9          6           0        4.108203    0.670018    0.226012
     10          1           0       -3.959599    0.311738    0.565806
     11          1           0       -3.140671   -1.263816    0.633401
     12          1           0       -2.636369    0.050918    1.721347
     13          1           0       -2.381148    0.058792   -1.337954
     14          1           0       -2.493324    2.159542   -0.252222
     15          1           0        0.701441    0.934621   -0.933147
     16          1           0        0.549952    0.885268    0.790050
     17          1           0        1.714403   -1.380610    0.833944
     18          1           0        1.865791   -1.331620   -0.901680
     19          1           0        5.016620    1.211073    0.320638
 ---------------------------------------------------------------------

 SCF Done:  E(RB3LYP) =  -423.166482550     A.U. after    1 cycles

 The electronic state is 1-A.
 Alpha  occ. eigenvalues --  -19.15210 -19.13507 -10.27244 -10.24842 -10.20521
 Alpha  occ. eigenvalues --  -10.19511 -10.18866 -10.17654 -10.16504  -1.04967
 Alpha  occ. eigenvalues --   -1.03247  -0.80502  -0.76883  -0.73151  -0.68138
 Alpha  occ. eigenvalues --   -0.63507  -0.52761  -0.52454  -0.52183  -0.48897
 Alpha  occ. eigenvalues --   -0.47412  -0.44873  -0.44177  -0.41930  -0.40115
 Alpha  occ. eigenvalues --   -0.39456  -0.37853  -0.37406  -0.35534  -0.34945
 Alpha  occ. eigenvalues --   -0.28413  -0.26670  -0.25870  -0.24496
 Alpha virt. eigenvalues --   -0.01824   0.05684   0.06419   0.06867   0.10493
 Alpha virt. eigenvalues --    0.12685   0.13325   0.13862   0.14983   0.15440
 Alpha virt. eigenvalues --    0.15616   0.17168   0.19520   0.21156   0.22722

 Mulliken charges:
               1
     1  C   -0.403492
     2  C    0.040753
     3  O   -0.433553
     4  C    0.363051
     5  O   -0.315407
     6  C   -0.286426
     7  C   -0.367251
     8  C    0.285807
     9  C   -0.429930
    10  H    0.109171
    11  H    0.149019
    12  H    0.127726
    13  H    0.100296
    14  H    0.289834
    15  H    0.146371
    16  H    0.146444
    17  H    0.142955
    18  H    0.143073
    19  H    0.191558
 Sum of Mulliken charges =   0.00000

 Dipole moment (field-independent basis, Debye):
    X=             -2.1743    Y=              1.9359    Z=             -0.0276  Tot=              2.9114
 Quadrupole moment (field-independent basis, Debye-Ang):
   XX=            -45.3892   YY=            -56.5982   ZZ=            -52.4365
   XY=             -2.9235   XZ=              0.6366   YZ=             -0.6643

  Exact polarizability: 105.630   9.086  73.768   1.410   1.001  56.402
 Approx polarizability: 132.217  20.436 121.094   4.233   3.140  85.456

                      1                      2                      3
                      A                      A                      A
 Frequencies --     20.1887                60.4202                92.1357
 Red. masses --      3.7275                 3.4125                 2.1940
 Frc consts  --      0.0009                 0.0073                 0.0110
 IR Inten    --      4.4155                 2.5387                 1.3788

                      4                      5                      6
                      A                      A                      A
 Frequencies --     98.0736               217.8487               235.1979
 Red. masses --      4.2905                 3.7243                 1.2237
 Frc consts  --      0.0243                 0.1041                 0.0399
 IR Inten    --      1.3823                 0.7900                 2.2703

                      7                      8                      9
                      A                      A                      A
 Frequencies --    243.5893               272.7562               287.2781
 Red. masses --      1.0706                 4.6931                 2.8167
 Frc consts  --      0.0374                 0.2057                 0.1370
 IR Inten    --     96.6525                10.3724                10.3969

                     10                     11                     12
                      A                      A                      A
 Frequencies --    344.1924               407.2292               461.1119
 Red. masses --      3.2186                 3.2961                 4.6500
 Frc consts  --      0.2247                 0.3221                 0.5825
 IR Inten    --      4.4549                 7.3645                 9.1049

                     13                     14                     15
                      A                      A                      A
 Frequencies --    517.5261               547.7221               605.8583
 Red. masses --      3.4299                 5.3768                 2.0618
 Frc consts  --      0.5412                 0.9504                 0.4459
 IR Inten    --      1.9272                 7.5622                 5.7507

                     16                     17                     18
                      A                      A                      A
 Frequencies --    617.7248               638.3284               771.6538
 Red. masses --      1.2038                 1.2288                 1.6169
 Frc consts  --      0.2706                 0.2950                 0.5673
 IR Inten    --     44.5701                40.9337                 3.1497

                     19                     20                     21
                      A                      A                      A
 Frequencies --    808.0613               901.2256               966.6768
 Red. masses --      3.5664                 2.2320                 3.7596
 Frc consts  --      1.3720                 1.0681                 2.0699
 IR Inten    --      6.4849                 4.8469                13.1631

                     22                     23                     24
                      A                      A                      A
 Frequencies --    978.5493              1023.2221              1054.9382
 Red. masses --      1.5029                 2.7529                 2.2276
 Frc consts  --      0.8479                 1.6981                 1.4606
 IR Inten    --      2.0550                25.4576                 2.9914

                     25                     26                     27
                      A                      A                      A
 Frequencies --   1096.1839              1111.3517              1149.4152
 Red. masses --      2.0380                 2.0554                 3.1102
 Frc consts  --      1.4429                 1.4957                 2.4210
 IR Inten    --      6.0589                54.7328                89.6039

                     28                     29                     30
                      A                      A                      A
 Frequencies --   1172.5140              1239.2642              1292.0783
 Red. masses --      1.2880                 1.1390                 1.2037
 Frc consts  --      1.0433                 1.0306                 1.1840
 IR Inten    --      3.5396                33.5655                 5.4177

                     31                     32                     33
                      A                      A                      A
 Frequencies --   1300.3532              1341.3240              1382.6910
 Red. masses --      1.3937                 1.3221                 1.6714
 Frc consts  --      1.3885                 1.4015                 1.8827
 IR Inten    --     12.1705                21.0344                35.0125

                     34                     35                     36
                      A                      A                      A
 Frequencies --   1393.1447              1410.1011              1437.3897
 Red. masses --      1.2682                 1.5427                 1.0786
 Frc consts  --      1.4503                 1.8073                 1.3130
 IR Inten    --     10.5049                 3.0072                12.8207

                     37                     38                     39
                      A                      A                      A
 Frequencies --   1468.5661              1491.6449              1499.8937
 Red. masses --      1.0821                 1.0466                 1.0907
 Frc consts  --      1.3750                 1.3720                 1.4457
 IR Inten    --      6.0423                 7.7102                 4.1430

                     40                     41                     42
                      A                      A                      A
 Frequencies --   1802.4526              2239.9905              2963.2520
 Red. masses --     11.7831                 5.9392                 1.0812
 Frc consts  --     22.5548                17.5579                 5.5934
 IR Inten    --    111.9988                 5.3375                32.8376

                     43                     44                     45
                      A                      A                      A
 Frequencies --   3037.3123              3042.4231              3054.7637
 Red. masses --      1.0362                 1.0596                 1.0613
 Frc consts  --      5.6323                 5.7785                 5.8348
 IR Inten    --     21.3717                 6.3618                10.2220

                     46                     47                     48
                      A                      A                      A
 Frequencies --   3067.1560              3087.6117              3106.6537
 Red. masses --      1.0989                 1.0999                 1.1015
 Frc consts  --      6.0909                 6.1781                 6.2637
 IR Inten    --      1.1358                 8.3014                23.1917

                     49                     50                     51
                      A                      A                      A
 Frequencies --   3139.1931              3508.2270              3830.0369
 Red. masses --      1.1006                 1.1619                 1.0665
 Frc consts  --      6.3903                 8.4257                 9.2173
 IR Inten    --      8.2051                68.7894                22.9918

 - Thermochemistry -
 -------------------
 Temperature   298.150 Kelvin.  Pressure   1.00000 Atm.
 Atom     1 has atomic number  6 and mass  12.00000

 Molecular mass:   126.06808 amu.
 Principal axes and moments of inertia in atomic units:
                           1         2         3
     Eigenvalues --   506.189432400.865422768.02166
           X            0.99998  -0.00123  -0.00605
           Y            0.00118   0.99996  -0.00842
           Z            0.00606   0.00841   0.99995
 This molecule is an asymmetric top.
 Rotational symmetry number  1.
 Warning -- assumption of classical behavior for rotation
           may cause significant error
 Rotational temperatures (Kelvin)      0.17111     0.03608     0.03129
 Rotational constants (GHZ):           3.56535     0.75170     0.65200
 Zero-point vibrational energy     405752.4 (Joules/Mol)
                                   96.97714 (Kcal/Mol)
 Warning -- explicit consideration of  16 degrees of freedom as
           vibrations may cause significant error
 Vibrational temperatures:     29.05    86.93   132.56   141.11   313.44
          (Kelvin)            338.40   350.47   392.43   413.33   495.22
                              585.91   663.44   744.60   788.05   871.69
                              888.77   918.41  1110.24  1162.62  1296.66
                             1390.83  1407.91  1472.19  1517.82  1577.16
                             1598.99  1653.75  1686.98  1783.02  1859.01
                             1870.92  1929.86  1989.38  2004.42  2028.82
                             2068.08  2112.94  2146.14  2158.01  2593.32
                             3222.84  4263.45  4370.01  4377.36  4395.12
                             4412.95  4442.38  4469.78  4516.59  5047.55
                             5510.56

 Zero-point correction=                           0.154543 (Hartree/Particle)
 Thermal correction to Energy=                    0.165322
 Thermal correction to Enthalpy=                  0.166266
 Thermal correction to Gibbs Free Energy=         0.117078
 Sum of electronic and zero-point Energies=           -423.011940
 Sum of electronic and thermal Energies=              -423.001161
 Sum of electronic and thermal Enthalpies=            -423.000217
 Sum of electronic and thermal Free Energies=         -423.049404

                     E (Thermal)             CV                S
                      KCal/Mol        Cal/Mol-Kelvin    Cal/Mol-Kelvin
 Total                  103.741             37.954            103.524
 Electronic               0.000              0.000              0.000
 Translational            0.889              2.981             40.409
 Rotational               0.889              2.981             29.599
 Vibrational            101.963             31.992             33.517
 Vibration     1          0.593              1.986              6.616
 Vibration     2          0.597              1.973              4.443
 Vibration     3          0.602              1.955              3.614
 Vibration     4          0.604              1.951              3.492
 Vibration     5          0.646              1.814              1.977
 Vibration     6          0.655              1.787              1.839
 Vibration     7          0.659              1.773              1.777
 Vibration     8          0.676              1.724              1.579
 Vibration     9          0.684              1.697              1.490
 Vibration    10          0.723              1.587              1.193
 Vibration    11          0.772              1.455              0.936
 Vibration    12          0.819              1.336              0.763
 Vibration    13          0.873              1.211              0.616
 Vibration    14          0.903              1.145              0.549
 Vibration    15          0.964              1.019              0.440
 Vibration    16          0.977              0.994              0.420

 Optimization completed.
    -- Stationary point found.
 Normal termination of Gaussian 09 at Mon Jan 27 16:01:25 2020.
