 Gaussian 09, Revision D.01,
 Gaussian 09:  ES64L-G09RevD.01 24-Apr-2013

 -----------------------------
 # b3lyp 6-31G(2df,p) opt Freq
 -----------------------------

 -----
 titel
 -----
 Symbolic Z-matrix:
 Charge =  0 Multiplicity = 1

 SCF Done:  E(RB3LYP) =  -423.187711434     A.U. after   14 cycles
 Optimization completed.
    -- Stationary point found.
 Normal termination of Gaussian 09 at Mon Jan 27 17:28:35 2020.

 ----------------------------------------------------------------------
 #N Geom=AllCheck Guess=TCheck SCRF=Check GenChk RB3LYP/6-31G(2df,p) Fr
 eq
 ----------------------------------------------------------------------

 Structure from the checkpoint file:  "/scratch/puck/g09_46bf4788-f63c-4527-9ff6-fe15a18a3b7e/Gau-1835.chk"
 -----
 titel
 -----
 Charge =  0 Multiplicity = 1

                         Standard orientation:
 ---------------------------------------------------------------------
 Center     Atomic      Atomic             Coordinates (Angstroms)
 Number     Number       Type             X           Y           Z
 ---------------------------------------------------------------------
      1          6           0       -2.635613   -1.196707   -0.286186
      2          6           0       -1.592512   -0.210683    0.151568
      3          6           0       -1.877718    1.243132    0.405350
      4          6           0       -0.850114    0.878205   -0.636099
      5          6           0        0.454769    0.532702    0.065894
      6          6           0       -0.279835   -0.581237    0.868489
      7          8           0        1.397396    0.009045   -0.889979
      8          6           0        2.617686   -0.271130   -0.414355
      9          8           0        2.980653   -0.149636    0.723719
     10          1           0       -3.174766   -1.611020    0.574504
     11          1           0       -3.375379   -0.724647   -0.941250
     12          1           0       -2.188935   -2.034883   -0.832893
     13          1           0       -2.818030    1.610363    0.005690
     14          1           0       -1.575759    1.721239    1.335475
     15          1           0       -0.933429    1.177038   -1.673989
     16          1           0        0.947133    1.320054    0.641834
     17          1           0        0.095805   -1.564585    0.576813
     18          1           0       -0.266453   -0.500966    1.959615
     19          1           0        3.245447   -0.633566   -1.243693
 ---------------------------------------------------------------------

 SCF Done:  E(RB3LYP) =  -423.187711434     A.U. after    1 cycles

 The electronic state is 1-A.
 Alpha  occ. eigenvalues --  -19.18720 -19.13166 -10.30613 -10.24647 -10.20430
 Alpha  occ. eigenvalues --  -10.19531 -10.19158 -10.18823 -10.18312  -1.10406
 Alpha  occ. eigenvalues --   -1.01984  -0.90406  -0.74918  -0.72181  -0.67522
 Alpha  occ. eigenvalues --   -0.60594  -0.57399  -0.53341  -0.51895  -0.48905
 Alpha  occ. eigenvalues --   -0.47799  -0.45542  -0.44307  -0.42515  -0.40586
 Alpha  occ. eigenvalues --   -0.40154  -0.38268  -0.37297  -0.34592  -0.32545
 Alpha  occ. eigenvalues --   -0.30139  -0.29528  -0.27512  -0.25691
 Alpha virt. eigenvalues --    0.00985   0.08511   0.10466   0.11262   0.12078
 Alpha virt. eigenvalues --    0.12902   0.13904   0.14270   0.15261   0.15978
 Alpha virt. eigenvalues --    0.17682   0.18366   0.18593   0.20101   0.23043

 Mulliken charges:
               1
     1  C   -0.499159
     2  C    0.364476
     3  C   -0.330848
     4  C   -0.135297
     5  C    0.161585
     6  C   -0.310569
     7  O   -0.224415
     8  C    0.176295
     9  O   -0.305174
    10  H    0.122314
    11  H    0.118970
    12  H    0.119776
    13  H    0.113348
    14  H    0.107535
    15  H    0.094499
    16  H    0.100568
    17  H    0.114063
    18  H    0.103481
    19  H    0.108551
 Sum of Mulliken charges =   0.00000

 Dipole moment (field-independent basis, Debye):
    X=             -1.9970    Y=             -0.0340    Z=             -1.1648  Tot=              2.3121
 Quadrupole moment (field-independent basis, Debye-Ang):
   XX=            -56.0612   YY=            -51.8260   ZZ=            -53.8801
   XY=             -0.7569   XZ=             -4.8570   YZ=              0.5250

  Exact polarizability:  92.705  -2.670  68.705  -0.116   1.093  69.408
 Approx polarizability: 116.431  -3.559 101.138   3.380   0.590 113.506

                      1                      2                      3
                      A                      A                      A
 Frequencies --     43.7376               100.1355               178.1854
 Red. masses --      6.6882                 3.4552                 3.2604
 Frc consts  --      0.0075                 0.0204                 0.0610
 IR Inten    --      1.3410                 1.0191                 3.3982

                      4                      5                      6
                      A                      A                      A
 Frequencies --    209.6105               270.5174               311.6795
 Red. masses --      1.1669                 2.6344                 2.3475
 Frc consts  --      0.0302                 0.1136                 0.1344
 IR Inten    --      0.7897                 9.8939                 1.0356

                      7                      8                      9
                      A                      A                      A
 Frequencies --    342.2341               360.3041               432.8950
 Red. masses --      3.3368                 2.1717                 2.3861
 Frc consts  --      0.2303                 0.1661                 0.2635
 IR Inten    --      2.5668                 2.9034                 1.1724

                     10                     11                     12
                      A                      A                      A
 Frequencies --    473.9309               619.7873               717.7495
 Red. masses --      3.3796                 2.8854                 3.0275
 Frc consts  --      0.4472                 0.6531                 0.9189
 IR Inten    --      8.2155                 3.0160                 1.2061

                     13                     14                     15
                      A                      A                      A
 Frequencies --    796.5116               817.7431               844.0349
 Red. masses --      3.1890                 2.9201                 2.9319
 Frc consts  --      1.1920                 1.1505                 1.2306
 IR Inten    --      6.9658                 2.1156                 8.8631

                     16                     17                     18
                      A                      A                      A
 Frequencies --    892.8784               935.3982               956.8483
 Red. masses --      1.4627                 2.0801                 1.3890
 Frc consts  --      0.6871                 1.0723                 0.7493
 IR Inten    --      8.0940                 5.6572                 0.9489

                     19                     20                     21
                      A                      A                      A
 Frequencies --    981.5755              1023.6676              1029.2445
 Red. masses --      2.2679                 1.7614                 1.8846
 Frc consts  --      1.2874                 1.0875                 1.1763
 IR Inten    --     17.2640                 1.7239                 7.6863

                     22                     23                     24
                      A                      A                      A
 Frequencies --   1044.1830              1054.6922              1085.6602
 Red. masses --      1.6351                 1.3329                 1.4426
 Frc consts  --      1.0504                 0.8736                 1.0018
 IR Inten    --      0.0861                 1.2441                 4.8044

                     25                     26                     27
                      A                      A                      A
 Frequencies --   1097.4444              1131.2999              1167.8739
 Red. masses --      1.6902                 2.4334                 1.3777
 Frc consts  --      1.1994                 1.8349                 1.1071
 IR Inten    --      0.8285                24.4619                 5.7687

                     28                     29                     30
                      A                      A                      A
 Frequencies --   1209.3159              1234.4684              1242.6984
 Red. masses --      6.9839                 1.5351                 1.5402
 Frc consts  --      6.0176                 1.3783                 1.4014
 IR Inten    --    408.0829                 1.1268                10.6540

                     31                     32                     33
                      A                      A                      A
 Frequencies --   1279.9542              1296.7773              1377.5796
 Red. masses --      2.3102                 2.3643                 1.4128
 Frc consts  --      2.2299                 2.3426                 1.5797
 IR Inten    --      1.2067                 6.4698                10.9213

                     34                     35                     36
                      A                      A                      A
 Frequencies --   1397.7270              1408.1389              1425.4685
 Red. masses --      1.5853                 1.1514                 1.6535
 Frc consts  --      1.8247                 1.3451                 1.9796
 IR Inten    --     15.1247                 1.5628                 2.2311

                     37                     38                     39
                      A                      A                      A
 Frequencies --   1474.3720              1486.3320              1497.5345
 Red. masses --      1.1164                 1.0498                 1.0600
 Frc consts  --      1.4299                 1.3665                 1.4006
 IR Inten    --      2.4138                 4.5615                 4.1160

                     40                     41                     42
                      A                      A                      A
 Frequencies --   1506.6756              1818.1605              3020.9210
 Red. masses --      1.3342                 9.5546                 1.0364
 Frc consts  --      1.7844                18.6091                 5.5726
 IR Inten    --      2.0569               269.3132                38.2440

                     43                     44                     45
                      A                      A                      A
 Frequencies --   3024.3510              3055.0944              3079.8526
 Red. masses --      1.0897                 1.0609                 1.0889
 Frc consts  --      5.8725                 5.8343                 6.0857
 IR Inten    --     72.0032                30.1127                18.4285

                     46                     47                     48
                      A                      A                      A
 Frequencies --   3079.9796              3096.0839              3100.0770
 Red. masses --      1.0972                 1.1000                 1.0583
 Frc consts  --      6.1326                 6.2126                 5.9922
 IR Inten    --     26.0041                18.8838                22.4366

                     49                     50                     51
                      A                      A                      A
 Frequencies --   3117.7147              3186.3724              3195.7614
 Red. masses --      1.1051                 1.0997                 1.1056
 Frc consts  --      6.3288                 6.5785                 6.6528
 IR Inten    --     19.1184                 4.8758                16.2065

 - Thermochemistry -
 -------------------
 Temperature   298.150 Kelvin.  Pressure   1.00000 Atm.
 Atom     1 has atomic number  6 and mass  12.00000

 Molecular mass:   126.06808 amu.
 Principal axes and moments of inertia in atomic units:
                           1         2         3
     Eigenvalues --   451.367831876.086671949.60357
           X            0.99997   0.00753  -0.00256
           Y           -0.00732   0.99725   0.07376
           Z            0.00311  -0.07374   0.99727
 This molecule is an asymmetric top.
 Rotational symmetry number  1.
 Warning -- assumption of classical behavior for rotation
           may cause significant error
 Rotational temperatures (Kelvin)      0.19189     0.04617     0.04443
 Rotational constants (GHZ):           3.99838     0.96197     0.92570
 Zero-point vibrational energy     415889.1 (Joules/Mol)
                                   99.39989 (Kcal/Mol)
 Warning -- explicit consideration of  11 degrees of freedom as
           vibrations may cause significant error
 Vibrational temperatures:     62.93   144.07   256.37   301.58   389.21
          (Kelvin)            448.44   492.40   518.40   622.84   681.88
                              891.73  1032.68  1146.00  1176.55  1214.38
                             1284.65  1345.83  1376.69  1412.27  1472.83
                             1480.85  1502.34  1517.46  1562.02  1578.98
                             1627.69  1680.31  1739.93  1776.12  1787.96
                             1841.57  1865.77  1982.03  2011.01  2026.00
                             2050.93  2121.29  2138.50  2154.62  2167.77
                             2615.92  4346.43  4351.36  4395.59  4431.22
                             4431.40  4454.57  4460.31  4485.69  4584.47
                             4597.98

 Zero-point correction=                           0.158404 (Hartree/Particle)
 Thermal correction to Energy=                    0.167067
 Thermal correction to Enthalpy=                  0.168011
 Thermal correction to Gibbs Free Energy=         0.124454
 Sum of electronic and zero-point Energies=           -423.029308
 Sum of electronic and thermal Energies=              -423.020644
 Sum of electronic and thermal Enthalpies=            -423.019700
 Sum of electronic and thermal Free Energies=         -423.063257

                     E (Thermal)             CV                S
                      KCal/Mol        Cal/Mol-Kelvin    Cal/Mol-Kelvin
 Total                  104.836             32.279             91.674
 Electronic               0.000              0.000              0.000
 Translational            0.889              2.981             40.409
 Rotational               0.889              2.981             28.892
 Vibrational            103.059             26.318             22.374
 Vibration     1          0.595              1.980              5.082
 Vibration     2          0.604              1.949              3.452
 Vibration     3          0.629              1.869              2.347
 Vibration     4          0.642              1.826              2.047
 Vibration     5          0.674              1.728              1.593
 Vibration     6          0.700              1.651              1.353
 Vibration     7          0.721              1.591              1.202
 Vibration     8          0.735              1.554              1.121
 Vibration     9          0.794              1.399              0.849
 Vibration    10          0.831              1.308              0.727
 Vibration    11          0.980              0.990              0.417

 Normal termination of Gaussian 09 at Mon Jan 27 18:11:34 2020.
