 Gaussian 09, Revision D.01,
 Gaussian 09:  ES64L-G09RevD.01 24-Apr-2013

 -----------------------------
 # b3lyp 6-31G(2df,p) opt Freq
 -----------------------------

 -----
 titel
 -----
 Symbolic Z-matrix:
 Charge =  0 Multiplicity = 1

 SCF Done:  E(RB3LYP) =  -423.175403947     A.U. after   14 cycles
 Optimization completed.
    -- Stationary point found.
 Normal termination of Gaussian 09 at Tue Jan 28 02:06:20 2020.

 ----------------------------------------------------------------------
 #N Geom=AllCheck Guess=TCheck SCRF=Check GenChk RB3LYP/6-31G(2df,p) Fr
 eq
 ----------------------------------------------------------------------

 Structure from the checkpoint file:  "/scratch/puck/g09_991be63e-4e48-4d0b-91e7-da96422c018e/Gau-75948.chk"
 -----
 titel
 -----
 Charge =  0 Multiplicity = 1

                         Standard orientation:
 ---------------------------------------------------------------------
 Center     Atomic      Atomic             Coordinates (Angstroms)
 Number     Number       Type             X           Y           Z
 ---------------------------------------------------------------------
      1          6           0        3.282795   -0.172156    0.569464
      2          6           0        1.825961   -0.428636    0.287335
      3          8           0        1.443020   -0.600866   -1.073939
      4          6           0        0.974859    0.571064   -0.396124
      5          6           0       -0.492427    0.687054   -0.081758
      6          8           0       -0.950864    1.774319    0.211356
      7          6           0       -1.309846   -0.552985   -0.127278
      8          6           0       -2.778647   -0.391992   -0.493908
      9          6           0       -2.413643   -0.692024    0.916540
     10          1           0        3.409706    0.240650    1.575485
     11          1           0        3.852186   -1.105673    0.512936
     12          1           0        3.700485    0.530904   -0.155457
     13          1           0        1.326437   -1.117366    0.971113
     14          1           0        1.431592    1.510330   -0.703629
     15          1           0       -0.802037   -1.447721   -0.462313
     16          1           0       -3.092099    0.619900   -0.723684
     17          1           0       -3.218848   -1.173008   -1.102706
     18          1           0       -2.483849    0.118050    1.633424
     19          1           0       -2.595142   -1.685636    1.309867
 ---------------------------------------------------------------------

 SCF Done:  E(RB3LYP) =  -423.175403947     A.U. after    1 cycles

 The electronic state is 1-A.
 Alpha  occ. eigenvalues --  -19.16574 -19.12552 -10.26802 -10.25505 -10.24405
 Alpha  occ. eigenvalues --  -10.19839 -10.19814 -10.19660 -10.19376  -1.08676
 Alpha  occ. eigenvalues --   -1.03571  -0.86394  -0.75666  -0.71673  -0.64071
 Alpha  occ. eigenvalues --   -0.61169  -0.60604  -0.53948  -0.52403  -0.48723
 Alpha  occ. eigenvalues --   -0.47068  -0.45876  -0.43402  -0.41960  -0.40082
 Alpha  occ. eigenvalues --   -0.39586  -0.38619  -0.37835  -0.36686  -0.31324
 Alpha  occ. eigenvalues --   -0.30812  -0.29260  -0.28934  -0.24562
 Alpha virt. eigenvalues --   -0.02520   0.09437   0.10364   0.10882   0.11371
 Alpha virt. eigenvalues --    0.12700   0.13061   0.14247   0.15065   0.16277
 Alpha virt. eigenvalues --    0.16754   0.17280   0.19220   0.21951   0.22611

 Mulliken charges:
               1
     1  C   -0.417423
     2  C    0.071727
     3  O   -0.243269
     4  C   -0.045519
     5  C    0.366186
     6  O   -0.346591
     7  C   -0.119524
     8  C   -0.252719
     9  C   -0.253783
    10  H    0.131986
    11  H    0.134221
    12  H    0.134505
    13  H    0.100902
    14  H    0.111455
    15  H    0.110773
    16  H    0.140334
    17  H    0.120458
    18  H    0.137305
    19  H    0.118975
 Sum of Mulliken charges =   0.00000

 Dipole moment (field-independent basis, Debye):
    X=              0.9552    Y=             -1.8422    Z=              1.0094  Tot=              2.3076
 Quadrupole moment (field-independent basis, Debye-Ang):
   XX=            -48.2892   YY=            -56.1440   ZZ=            -53.7548
   XY=              4.3703   XZ=              3.2388   YZ=             -2.7821

  Exact polarizability:  98.893  -0.065  72.956   1.715  -2.236  63.354
 Approx polarizability: 119.656  -6.487 119.948  -0.009   0.763  99.896

                      1                      2                      3
                      A                      A                      A
 Frequencies --     52.3357                74.0324               153.2979
 Red. masses --      3.2264                 3.1790                 3.3826
 Frc consts  --      0.0052                 0.0103                 0.0468
 IR Inten    --      1.0188                 3.1191                 3.1349

                      4                      5                      6
                      A                      A                      A
 Frequencies --    166.5264               211.2389               259.1714
 Red. masses --      2.7386                 1.2726                 3.4902
 Frc consts  --      0.0447                 0.0335                 0.1381
 IR Inten    --      1.5181                 1.2625                 4.3108

                      7                      8                      9
                      A                      A                      A
 Frequencies --    271.0523               301.3090               427.6197
 Red. masses --      3.0467                 3.1750                 3.6379
 Frc consts  --      0.1319                 0.1698                 0.3919
 IR Inten    --      4.3852                 3.7890                10.7102

                     10                     11                     12
                      A                      A                      A
 Frequencies --    494.9296               620.2442               726.1041
 Red. masses --      6.5857                 4.0554                 4.2167
 Frc consts  --      0.9505                 0.9192                 1.3098
 IR Inten    --      1.2153                20.1282                 5.5509

                     13                     14                     15
                      A                      A                      A
 Frequencies --    746.9078               804.4679               819.9086
 Red. masses --      2.1718                 1.4020                 2.1454
 Frc consts  --      0.7138                 0.5346                 0.8497
 IR Inten    --      2.0272                 1.9893                 3.5261

                     16                     17                     18
                      A                      A                      A
 Frequencies --    831.0272               867.1265               911.6202
 Red. masses --      2.3732                 2.5667                 2.0310
 Frc consts  --      0.9656                 1.1371                 0.9944
 IR Inten    --      1.1725                26.9000                 3.2049

                     19                     20                     21
                      A                      A                      A
 Frequencies --    929.7408               988.1286              1025.4308
 Red. masses --      4.1922                 2.2907                 1.7283
 Frc consts  --      2.1351                 1.3178                 1.0707
 IR Inten    --     40.3843                40.0672                22.8934

                     22                     23                     24
                      A                      A                      A
 Frequencies --   1064.9686              1068.5976              1096.5181
 Red. masses --      1.2129                 1.4086                 1.3347
 Frc consts  --      0.8105                 0.9477                 0.9455
 IR Inten    --     10.1094                 4.2170                 2.0995

                     25                     26                     27
                      A                      A                      A
 Frequencies --   1107.6723              1142.2918              1164.4646
 Red. masses --      1.4474                 1.1152                 1.7485
 Frc consts  --      1.0463                 0.8573                 1.3969
 IR Inten    --      5.6936                 2.0156                 0.3039

                     28                     29                     30
                      A                      A                      A
 Frequencies --   1174.9572              1189.2799              1211.9429
 Red. masses --      1.5116                 3.0705                 1.3692
 Frc consts  --      1.2295                 2.5588                 1.1849
 IR Inten    --      7.6796                68.5482                 0.3062

                     31                     32                     33
                      A                      A                      A
 Frequencies --   1220.5285              1261.7474              1339.1441
 Red. masses --      2.0393                 1.4262                 1.3118
 Frc consts  --      1.7899                 1.3378                 1.3860
 IR Inten    --      2.2713                14.8803                 2.4615

                     34                     35                     36
                      A                      A                      A
 Frequencies --   1407.7651              1413.9295              1454.6044
 Red. masses --      1.3283                 1.8457                 1.0900
 Frc consts  --      1.5509                 2.1741                 1.3588
 IR Inten    --     11.4218               101.6419                 2.1432

                     37                     38                     39
                      A                      A                      A
 Frequencies --   1456.4390              1484.6359              1486.0931
 Red. masses --      1.9117                 1.0848                 1.3613
 Frc consts  --      2.3892                 1.4087                 1.7714
 IR Inten    --     30.6810                 6.5160                12.4108

                     40                     41                     42
                      A                      A                      A
 Frequencies --   1499.5328              1775.9449              3040.1439
 Red. masses --      1.1947                10.9641                 1.0355
 Frc consts  --      1.5828                20.3743                 5.6387
 IR Inten    --      9.8391               130.9735                17.3592

                     43                     44                     45
                      A                      A                      A
 Frequencies --   3094.9847              3106.4138              3129.5411
 Red. masses --      1.0876                 1.1009                 1.1006
 Frc consts  --      6.1379                 6.2592                 6.3510
 IR Inten    --     11.4283                13.7809                11.7735

                     46                     47                     48
                      A                      A                      A
 Frequencies --   3136.0469              3140.6061              3143.0431
 Red. masses --      1.0891                 1.0504                 1.0563
 Frc consts  --      6.3107                 6.1041                 6.1482
 IR Inten    --     24.1245                13.3006                10.0007

                     49                     50                     51
                      A                      A                      A
 Frequencies --   3204.2602              3228.4469              3243.7023
 Red. masses --      1.0900                 1.1190                 1.1164
 Frc consts  --      6.5938                 6.8718                 6.9205
 IR Inten    --      1.0144                 0.4311                 5.3037

 - Thermochemistry -
 -------------------
 Temperature   298.150 Kelvin.  Pressure   1.00000 Atm.
 Atom     1 has atomic number  6 and mass  12.00000

 Molecular mass:   126.06808 amu.
 Principal axes and moments of inertia in atomic units:
                           1         2         3
     Eigenvalues --   503.273161936.429772086.17067
           X            0.99979   0.01641   0.01195
           Y           -0.01555   0.99749  -0.06904
           Z           -0.01305   0.06884   0.99754
 This molecule is an asymmetric top.
 Rotational symmetry number  1.
 Warning -- assumption of classical behavior for rotation
           may cause significant error
 Rotational temperatures (Kelvin)      0.17210     0.04473     0.04152
 Rotational constants (GHZ):           3.58601     0.93199     0.86510
 Zero-point vibrational energy     413731.3 (Joules/Mol)
                                   98.88415 (Kcal/Mol)
 Warning -- explicit consideration of  11 degrees of freedom as
           vibrations may cause significant error
 Vibrational temperatures:     75.30   106.52   220.56   239.59   303.93
          (Kelvin)            372.89   389.98   433.52   615.25   712.09
                              892.39  1044.70  1074.63  1157.45  1179.66
                             1195.66  1247.60  1311.62  1337.69  1421.69
                             1475.36  1532.25  1537.47  1577.64  1593.69
                             1643.50  1675.40  1690.50  1711.11  1743.71
                             1756.07  1815.37  1926.73  2025.46  2034.33
                             2092.85  2095.49  2136.06  2138.15  2157.49
                             2555.19  4374.08  4452.99  4469.43  4502.71
                             4512.07  4518.63  4522.13  4610.21  4645.01
                             4666.96

 Zero-point correction=                           0.157582 (Hartree/Particle)
 Thermal correction to Energy=                    0.166767
 Thermal correction to Enthalpy=                  0.167711
 Thermal correction to Gibbs Free Energy=         0.122841
 Sum of electronic and zero-point Energies=           -423.017822
 Sum of electronic and thermal Energies=              -423.008637
 Sum of electronic and thermal Enthalpies=            -423.007693
 Sum of electronic and thermal Free Energies=         -423.052563

                     E (Thermal)             CV                S
                      KCal/Mol        Cal/Mol-Kelvin    Cal/Mol-Kelvin
 Total                  104.648             33.345             94.437
 Electronic               0.000              0.000              0.000
 Translational            0.889              2.981             40.409
 Rotational               0.889              2.981             29.099
 Vibrational            102.870             27.384             24.930
 Vibration     1          0.596              1.977              4.727
 Vibration     2          0.599              1.966              4.043
 Vibration     3          0.619              1.899              2.631
 Vibration     4          0.624              1.884              2.474
 Vibration     5          0.643              1.824              2.033
 Vibration     6          0.668              1.747              1.667
 Vibration     7          0.675              1.727              1.589
 Vibration     8          0.693              1.671              1.410
 Vibration     9          0.789              1.410              0.866
 Vibration    10          0.851              1.261              0.671
 Vibration    11          0.980              0.989              0.416

 Optimization completed.
    -- Stationary point found.
 Normal termination of Gaussian 09 at Tue Jan 28 02:43:33 2020.
