 Gaussian 09, Revision D.01,
 Gaussian 09:  ES64L-G09RevD.01 24-Apr-2013

 -----------------------------
 # b3lyp 6-31G(2df,p) opt Freq
 -----------------------------

 -----
 titel
 -----
 Symbolic Z-matrix:
 Charge =  0 Multiplicity = 1

 SCF Done:  E(RB3LYP) =  -423.142964965     A.U. after   13 cycles
 Optimization completed.
    -- Stationary point found.
 Normal termination of Gaussian 09 at Mon Jan 27 12:13:18 2020.

 ----------------------------------------------------------------------
 #N Geom=AllCheck Guess=TCheck SCRF=Check GenChk RB3LYP/6-31G(2df,p) Fr
 eq
 ----------------------------------------------------------------------

 Structure from the checkpoint file:  "/scratch/puck/g09_cf555e1d-d48b-4ffd-8f7c-14a6d46b051f/Gau-71713.chk"
 -----
 titel
 -----
 Charge =  0 Multiplicity = 1

                         Standard orientation:
 ---------------------------------------------------------------------
 Center     Atomic      Atomic             Coordinates (Angstroms)
 Number     Number       Type             X           Y           Z
 ---------------------------------------------------------------------
      1          6           0        1.934978    0.756148    0.149642
      2          8           0        2.060093   -0.590744   -0.394969
      3          6           0        0.656127   -0.639072   -0.724267
      4          6           0       -0.320378   -1.262501    0.270822
      5          6           0       -1.737261   -0.918072   -0.253383
      6          6           0       -2.010231    0.613206   -0.110610
      7          6           0       -0.735234    1.513666   -0.225143
      8          6           0        0.419301    0.618232    0.129485
      9          8           0        0.026578   -0.246351    1.251948
     10          1           0        2.392752    0.853396    1.137954
     11          1           0        2.347200    1.502958   -0.542557
     12          1           0        0.475783   -0.740196   -1.797680
     13          1           0       -0.199192   -2.281580    0.648168
     14          1           0       -1.832521   -1.248730   -1.295029
     15          1           0       -2.492562   -1.465275    0.317963
     16          1           0       -2.765535    0.928704   -0.835683
     17          1           0       -2.438783    0.778036    0.879607
     18          1           0       -0.600229    1.908546   -1.238415
     19          1           0       -0.824098    2.371259    0.450567
 ---------------------------------------------------------------------

 SCF Done:  E(RB3LYP) =  -423.142964965     A.U. after    1 cycles

 The electronic state is 1-A.
 Alpha  occ. eigenvalues --  -19.13625 -19.13025 -10.23944 -10.23564 -10.23296
 Alpha  occ. eigenvalues --  -10.22886 -10.19289 -10.19044 -10.18899  -1.07014
 Alpha  occ. eigenvalues --   -1.00422  -0.79909  -0.76046  -0.71409  -0.68578
 Alpha  occ. eigenvalues --   -0.61449  -0.58538  -0.52620  -0.51177  -0.49122
 Alpha  occ. eigenvalues --   -0.48201  -0.44382  -0.43103  -0.41863  -0.40290
 Alpha  occ. eigenvalues --   -0.37988  -0.37368  -0.35773  -0.34436  -0.32319
 Alpha  occ. eigenvalues --   -0.31466  -0.27955  -0.25510  -0.24157
 Alpha virt. eigenvalues --    0.06413   0.08862   0.09964   0.10896   0.12354
 Alpha virt. eigenvalues --    0.13755   0.14311   0.14358   0.15478   0.16602
 Alpha virt. eigenvalues --    0.16726   0.18836   0.19563   0.20883   0.22173

 Mulliken charges:
               1
     1  C   -0.162043
     2  O   -0.308940
     3  C    0.103136
     4  C    0.031509
     5  C   -0.230680
     6  C   -0.183961
     7  C   -0.325455
     8  C    0.389801
     9  O   -0.335497
    10  H    0.118674
    11  H    0.098808
    12  H    0.077646
    13  H    0.083046
    14  H    0.101500
    15  H    0.108738
    16  H    0.097589
    17  H    0.122454
    18  H    0.104677
    19  H    0.108999
 Sum of Mulliken charges =   0.00000

 Dipole moment (field-independent basis, Debye):
    X=             -1.6645    Y=              1.1175    Z=             -1.2595  Tot=              2.3676
 Quadrupole moment (field-independent basis, Debye-Ang):
   XX=            -55.0323   YY=            -50.4535   ZZ=            -54.5493
   XY=              3.8411   XZ=              1.1517   YZ=              0.1666

  Exact polarizability:  81.532   5.214  75.070   1.319   0.054  64.382
 Approx polarizability: 108.117   5.335 109.070   0.893   1.502 104.913

                      1                      2                      3
                      A                      A                      A
 Frequencies --    145.6898               243.6237               281.4213
 Red. masses --      1.8520                 2.1296                 3.1112
 Frc consts  --      0.0232                 0.0745                 0.1452
 IR Inten    --      0.1571                 1.8979                 1.6847

                      4                      5                      6
                      A                      A                      A
 Frequencies --    326.3361               387.1160               457.2539
 Red. masses --      2.7149                 2.8761                 4.3101
 Frc consts  --      0.1703                 0.2539                 0.5309
 IR Inten    --      1.9644                 4.5981                 6.7923

                      7                      8                      9
                      A                      A                      A
 Frequencies --    480.3563               588.2226               689.6710
 Red. masses --      5.3554                 4.0189                 2.6156
 Frc consts  --      0.7281                 0.8193                 0.7330
 IR Inten    --      0.1423                 1.5631                 1.2728

                     10                     11                     12
                      A                      A                      A
 Frequencies --    740.6720               801.8194               823.4243
 Red. masses --      2.1289                 3.0734                 1.9572
 Frc consts  --      0.6881                 1.1642                 0.7818
 IR Inten    --      6.4115                11.3808                 7.4026

                     13                     14                     15
                      A                      A                      A
 Frequencies --    845.9234               875.5576               912.7133
 Red. masses --      2.8187                 2.2696                 3.3178
 Frc consts  --      1.1884                 1.0251                 1.6284
 IR Inten    --     10.1453                21.9938                 8.8967

                     16                     17                     18
                      A                      A                      A
 Frequencies --    932.9900               944.8107               977.7086
 Red. masses --      2.0297                 3.3271                 3.4285
 Frc consts  --      1.0410                 1.7499                 1.9310
 IR Inten    --     19.4407                 6.4899                70.0626

                     19                     20                     21
                      A                      A                      A
 Frequencies --    998.4449              1011.2468              1030.8063
 Red. masses --      4.6485                 1.7335                 2.9895
 Frc consts  --      2.7303                 1.0444                 1.8716
 IR Inten    --     13.0185                 5.5065                58.8974

                     22                     23                     24
                      A                      A                      A
 Frequencies --   1044.1421              1091.6870              1140.2274
 Red. masses --      2.5318                 1.7425                 1.4484
 Frc consts  --      1.6263                 1.2236                 1.1095
 IR Inten    --      1.5552                 6.8916                 0.3125

                     25                     26                     27
                      A                      A                      A
 Frequencies --   1163.2235              1168.2089              1200.0440
 Red. masses --      1.8355                 1.6669                 1.5171
 Frc consts  --      1.4633                 1.3403                 1.2872
 IR Inten    --      1.8210                 6.6604                 1.5985

                     28                     29                     30
                      A                      A                      A
 Frequencies --   1224.4104              1239.6160              1267.9187
 Red. masses --      1.5868                 1.3289                 1.8297
 Frc consts  --      1.4016                 1.2031                 1.7331
 IR Inten    --      2.5820                 1.6359                 6.6943

                     31                     32                     33
                      A                      A                      A
 Frequencies --   1289.3960              1311.6195              1322.1471
 Red. masses --      1.3865                 1.3777                 1.4501
 Frc consts  --      1.3582                 1.3965                 1.4935
 IR Inten    --     12.4985                 1.1722                 1.2198

                     34                     35                     36
                      A                      A                      A
 Frequencies --   1338.9776              1362.1477              1371.5049
 Red. masses --      1.3362                 1.4655                 1.3853
 Frc consts  --      1.4115                 1.6021                 1.5353
 IR Inten    --      2.5418                 6.1176                 0.4592

                     37                     38                     39
                      A                      A                      A
 Frequencies --   1393.0348              1479.4313              1490.7893
 Red. masses --      2.2743                 1.0778                 1.0984
 Frc consts  --      2.6003                 1.3899                 1.4383
 IR Inten    --      5.4213                 1.5081                 1.9933

                     40                     41                     42
                      A                      A                      A
 Frequencies --   1497.7808              1503.8383              3010.4232
 Red. masses --      1.1114                 1.1058                 1.0626
 Frc consts  --      1.4690                 1.4734                 5.6737
 IR Inten    --      0.3350                 3.5817                63.2033

                     43                     44                     45
                      A                      A                      A
 Frequencies --   3033.6422              3036.8253              3066.6081
 Red. masses --      1.0647                 1.0590                 1.0696
 Frc consts  --      5.7733                 5.7543                 5.9265
 IR Inten    --     19.5036                39.1089                12.0380

                     46                     47                     48
                      A                      A                      A
 Frequencies --   3070.2525              3074.8102              3078.4642
 Red. masses --      1.0814                 1.1023                 1.0947
 Frc consts  --      6.0058                 6.1402                 6.1123
 IR Inten    --     57.6189                23.3745                30.0624

                     49                     50                     51
                      A                      A                      A
 Frequencies --   3086.3427              3095.2703              3115.2567
 Red. masses --      1.0946                 1.1023                 1.1033
 Frc consts  --      6.1434                 6.2222                 6.3086
 IR Inten    --     38.6820                23.3108                36.2778

 - Thermochemistry -
 -------------------
 Temperature   298.150 Kelvin.  Pressure   1.00000 Atm.
 Atom     1 has atomic number  6 and mass  12.00000

 Molecular mass:   126.06808 amu.
 Principal axes and moments of inertia in atomic units:
                           1         2         3
     Eigenvalues --   551.080261054.709791270.34366
           X            0.99953   0.02765   0.01317
           Y           -0.02761   0.99961  -0.00367
           Z           -0.01326   0.00330   0.99991
 This molecule is an asymmetric top.
 Rotational symmetry number  1.
 Warning -- assumption of classical behavior for rotation
           may cause significant error
 Rotational temperatures (Kelvin)      0.15717     0.08212     0.06818
 Rotational constants (GHZ):           3.27492     1.71113     1.42067
 Zero-point vibrational energy     425056.2 (Joules/Mol)
                                  101.59087 (Kcal/Mol)
 Warning -- explicit consideration of   8 degrees of freedom as
           vibrations may cause significant error
 Vibrational temperatures:    209.61   350.52   404.90   469.52   556.97
          (Kelvin)            657.89   691.12   846.32   992.28  1065.66
                             1153.64  1184.72  1217.09  1259.73  1313.19
                             1342.36  1359.37  1406.70  1436.54  1454.96
                             1483.10  1502.29  1570.69  1640.53  1673.62
                             1680.79  1726.59  1761.65  1783.53  1824.25
                             1855.15  1887.13  1902.27  1926.49  1959.82
                             1973.29  2004.26  2128.57  2144.91  2154.97
                             2163.69  4331.32  4364.73  4369.31  4412.16
                             4417.40  4423.96  4429.22  4440.55  4453.40
                             4482.15

 Zero-point correction=                           0.161895 (Hartree/Particle)
 Thermal correction to Energy=                    0.168734
 Thermal correction to Enthalpy=                  0.169678
 Thermal correction to Gibbs Free Energy=         0.130973
 Sum of electronic and zero-point Energies=           -422.981070
 Sum of electronic and thermal Energies=              -422.974231
 Sum of electronic and thermal Enthalpies=            -422.973287
 Sum of electronic and thermal Free Energies=         -423.011992

                     E (Thermal)             CV                S
                      KCal/Mol        Cal/Mol-Kelvin    Cal/Mol-Kelvin
 Total                  105.882             28.293             81.462
 Electronic               0.000              0.000              0.000
 Translational            0.889              2.981             40.409
 Rotational               0.889              2.981             28.092
 Vibrational            104.105             22.331             12.961
 Vibration     1          0.617              1.907              2.728
 Vibration     2          0.659              1.773              1.776
 Vibration     3          0.681              1.708              1.525
 Vibration     4          0.710              1.623              1.278
 Vibration     5          0.756              1.498              1.011
 Vibration     6          0.815              1.345              0.774
 Vibration     7          0.837              1.294              0.709
 Vibration     8          0.945              1.057              0.470

 Optimization completed.
    -- Stationary point found.
 Normal termination of Gaussian 09 at Mon Jan 27 13:01:08 2020.
