 Gaussian 09, Revision D.01,
 Gaussian 09:  ES64L-G09RevD.01 24-Apr-2013

 -----------------------------
 # b3lyp 6-31G(2df,p) opt Freq
 -----------------------------

 -----
 titel
 -----
 Symbolic Z-matrix:
 Charge =  0 Multiplicity = 1

 SCF Done:  E(RB3LYP) =  -423.160625521     A.U. after   15 cycles
 SCF Done:  E(RB3LYP) =  -423.160625874     A.U. after    8 cycles
 SCF Done:  E(RB3LYP) =  -423.160623988     A.U. after   10 cycles
 SCF Done:  E(RB3LYP) =  -423.160626058     A.U. after    9 cycles
 SCF Done:  E(RB3LYP) =  -423.160625962     A.U. after    7 cycles
 SCF Done:  E(RB3LYP) =  -423.160626064     A.U. after    7 cycles
 Optimization completed.
    -- Stationary point found.
 Normal termination of Gaussian 09 at Tue Jan 28 09:18:14 2020.

 ----------------------------------------------------------------------
 #N Geom=AllCheck Guess=TCheck SCRF=Check GenChk RB3LYP/6-31G(2df,p) Fr
 eq
 ----------------------------------------------------------------------

 Structure from the checkpoint file:  "/scratch/puck/g09_cd080432-7e10-466d-b0f2-5144383f7bdf/Gau-59932.chk"
 -----
 titel
 -----
 Charge =  0 Multiplicity = 1

                         Standard orientation:
 ---------------------------------------------------------------------
 Center     Atomic      Atomic             Coordinates (Angstroms)
 Number     Number       Type             X           Y           Z
 ---------------------------------------------------------------------
      1          6           0        3.183880    0.118292    0.434774
      2          6           0        1.750083    0.611778    0.266773
      3          6           0        0.824893   -0.424767   -0.334914
      4          8           0        1.204913   -1.516253   -0.690859
      5          6           0       -0.682856   -0.092998   -0.464360
      6          6           0       -1.458004   -1.012924    0.529310
      7          8           0       -2.856027   -0.897016    0.413662
      8          6           0       -1.032830    1.309598   -0.293926
      9          6           0       -1.328063    2.465475   -0.146096
     10          1           0        3.813382    0.904121    0.860908
     11          1           0        3.224441   -0.753123    1.093623
     12          1           0        3.607806   -0.182956   -0.526426
     13          1           0        1.313489    0.938499    1.220599
     14          1           0        1.698386    1.505476   -0.369021
     15          1           0       -0.958302   -0.419370   -1.476425
     16          1           0       -1.105456   -2.039293    0.366861
     17          1           0       -1.215493   -0.721459    1.555894
     18          1           0       -3.119779   -1.258719   -0.438776
     19          1           0       -1.592172    3.486238   -0.019031
 ---------------------------------------------------------------------

 SCF Done:  E(RB3LYP) =  -423.160626064     A.U. after    1 cycles

 The electronic state is 1-A.
 Alpha  occ. eigenvalues --  -19.14600 -19.13827 -10.27853 -10.24375 -10.22218
 Alpha  occ. eigenvalues --  -10.19640 -10.18800 -10.17951 -10.17847  -1.05022
 Alpha  occ. eigenvalues --   -1.02917  -0.81584  -0.77528  -0.72931  -0.66892
 Alpha  occ. eigenvalues --   -0.63847  -0.55804  -0.52668  -0.51239  -0.48675
 Alpha  occ. eigenvalues --   -0.47871  -0.45970  -0.44169  -0.42376  -0.41164
 Alpha  occ. eigenvalues --   -0.38211  -0.36989  -0.36623  -0.34943  -0.33434
 Alpha  occ. eigenvalues --   -0.29385  -0.28698  -0.26766  -0.24293
 Alpha virt. eigenvalues --   -0.02151   0.04085   0.04479   0.08061   0.09240
 Alpha virt. eigenvalues --    0.12271   0.12848   0.13473   0.14798   0.15914
 Alpha virt. eigenvalues --    0.16557   0.18142   0.18906   0.20549   0.22619

 Mulliken charges:
               1
     1  C   -0.382176
     2  C   -0.286203
     3  C    0.377412
     4  O   -0.306543
     5  C   -0.326470
     6  C   -0.057722
     7  O   -0.407293
     8  C    0.347095
     9  C   -0.456648
    10  H    0.112243
    11  H    0.129808
    12  H    0.132902
    13  H    0.132207
    14  H    0.139882
    15  H    0.124305
    16  H    0.118811
    17  H    0.121286
    18  H    0.286862
    19  H    0.200242
 Sum of Mulliken charges =   0.00000

 Dipole moment (field-independent basis, Debye):
    X=              0.0709    Y=              1.2598    Z=             -0.2518  Tot=              1.2866
 Quadrupole moment (field-independent basis, Debye-Ang):
   XX=            -55.7157   YY=            -51.5991   ZZ=            -52.5563
   XY=              4.2348   XZ=              5.5316   YZ=              0.2972

  Exact polarizability:  85.314  -5.873  90.624   1.642   3.879  58.729
 Approx polarizability: 106.322 -15.043 147.967  -1.447  11.819  91.469

                      1                      2                      3
                      A                      A                      A
 Frequencies --     26.4162                79.8123                99.3915
 Red. masses --      5.3061                 1.7831                 2.7304
 Frc consts  --      0.0022                 0.0067                 0.0159
 IR Inten    --      2.6073                 1.5944                 5.5224

                      4                      5                      6
                      A                      A                      A
 Frequencies --    132.8286               169.2905               183.3218
 Red. masses --      3.8759                 2.9287                 1.6811
 Frc consts  --      0.0403                 0.0495                 0.0333
 IR Inten    --      0.2391                 5.7797                 2.9900

                      7                      8                      9
                      A                      A                      A
 Frequencies --    216.7066               256.2536               308.1437
 Red. masses --      1.8493                 3.8794                 1.3323
 Frc consts  --      0.0512                 0.1501                 0.0745
 IR Inten    --      2.4345                 7.3357                72.9992

                     10                     11                     12
                      A                      A                      A
 Frequencies --    337.9615               377.6921               477.2048
 Red. masses --      3.3558                 6.5960                 5.3332
 Frc consts  --      0.2258                 0.5544                 0.7156
 IR Inten    --     31.9308                13.2778                 2.3258

                     13                     14                     15
                      A                      A                      A
 Frequencies --    525.8433               562.8857               635.2154
 Red. masses --      3.2993                 2.6429                 1.2203
 Frc consts  --      0.5375                 0.4934                 0.2901
 IR Inten    --      2.3839                11.7457                44.5605

                     16                     17                     18
                      A                      A                      A
 Frequencies --    645.1217               671.4118               756.8667
 Red. masses --      1.3565                 2.9436                 2.3680
 Frc consts  --      0.3326                 0.7818                 0.7992
 IR Inten    --     24.6462                35.8914                 4.3009

                     19                     20                     21
                      A                      A                      A
 Frequencies --    807.0268               858.8338               979.9217
 Red. masses --      1.9211                 2.3589                 2.0336
 Frc consts  --      0.7372                 1.0251                 1.1505
 IR Inten    --      6.2704                 5.5742                 8.9847

                     22                     23                     24
                      A                      A                      A
 Frequencies --    998.3663              1062.3897              1071.0982
 Red. masses --      1.8418                 2.0886                 2.7045
 Frc consts  --      1.0816                 1.3889                 1.8281
 IR Inten    --      5.7491                61.4607                65.9321

                     25                     26                     27
                      A                      A                      A
 Frequencies --   1086.3716              1109.9903              1145.7124
 Red. masses --      2.3835                 2.8450                 2.7561
 Frc consts  --      1.6574                 2.0653                 2.1316
 IR Inten    --     42.7465                46.0457                72.1580

                     28                     29                     30
                      A                      A                      A
 Frequencies --   1170.0376              1250.1587              1279.7963
 Red. masses --      1.3146                 1.2221                 1.1999
 Frc consts  --      1.0604                 1.1253                 1.1579
 IR Inten    --      5.6498                 2.6562                 1.1714

                     31                     32                     33
                      A                      A                      A
 Frequencies --   1334.5879              1372.3776              1387.1346
 Red. masses --      1.3702                 1.7904                 1.2510
 Frc consts  --      1.4379                 1.9867                 1.4183
 IR Inten    --      4.0429                21.4591                 3.1243

                     34                     35                     36
                      A                      A                      A
 Frequencies --   1415.0283              1417.0420              1438.3448
 Red. masses --      1.2266                 1.1922                 1.0908
 Frc consts  --      1.4471                 1.4105                 1.3296
 IR Inten    --      5.5014                40.4778                15.0001

                     37                     38                     39
                      A                      A                      A
 Frequencies --   1493.1462              1497.4195              1503.7937
 Red. masses --      1.0382                 1.0507                 1.0915
 Frc consts  --      1.3638                 1.3881                 1.4543
 IR Inten    --      5.4760                 6.8692                 1.4144

                     40                     41                     42
                      A                      A                      A
 Frequencies --   1798.9688              2235.0950              3018.8300
 Red. masses --     11.4352                 5.9423                 1.0814
 Frc consts  --     21.8043                17.4902                 5.8065
 IR Inten    --    145.8980                 0.8544                 6.6217

                     43                     44                     45
                      A                      A                      A
 Frequencies --   3026.1539              3027.8988              3051.6778
 Red. masses --      1.0607                 1.0628                 1.0453
 Frc consts  --      5.7228                 5.7412                 5.7354
 IR Inten    --     29.5387                14.5989                17.1454

                     46                     47                     48
                      A                      A                      A
 Frequencies --   3052.6028              3093.1823              3123.1736
 Red. masses --      1.0847                 1.1039                 1.1022
 Frc consts  --      5.9552                 6.2226                 6.3341
 IR Inten    --      8.4278                20.1372                19.4358

                     49                     50                     51
                      A                      A                      A
 Frequencies --   3126.9699              3503.0975              3813.2018
 Red. masses --      1.1016                 1.1618                 1.0662
 Frc consts  --      6.3463                 8.4004                 9.1340
 IR Inten    --     18.2485                69.0898                24.6869

 - Thermochemistry -
 -------------------
 Temperature   298.150 Kelvin.  Pressure   1.00000 Atm.
 Atom     1 has atomic number  6 and mass  12.00000

 Molecular mass:   126.06808 amu.
 Principal axes and moments of inertia in atomic units:
                           1         2         3
     Eigenvalues --   772.654751696.274092249.10549
           X            0.99960   0.02351   0.01559
           Y           -0.02351   0.99972   0.00000
           Z           -0.01559  -0.00037   0.99988
 This molecule is an asymmetric top.
 Rotational symmetry number  1.
 Warning -- assumption of classical behavior for rotation
           may cause significant error
 Rotational temperatures (Kelvin)      0.11210     0.05106     0.03851
 Rotational constants (GHZ):           2.33577     1.06394     0.80243
 Zero-point vibrational energy     406800.9 (Joules/Mol)
                                   97.22775 (Kcal/Mol)
 Warning -- explicit consideration of  14 degrees of freedom as
           vibrations may cause significant error
 Vibrational temperatures:     38.01   114.83   143.00   191.11   243.57
          (Kelvin)            263.76   311.79   368.69   443.35   486.25
                              543.41   686.59   756.57   809.87   913.93
                              928.19   966.01  1088.96  1161.13  1235.67
                             1409.89  1436.42  1528.54  1541.07  1563.04
                             1597.03  1648.42  1683.42  1798.70  1841.34
                             1920.17  1974.54  1995.77  2035.91  2038.80
                             2069.45  2148.30  2154.45  2163.62  2588.31
                             3215.80  4343.42  4353.96  4356.47  4390.68
                             4392.01  4450.39  4493.54  4499.01  5040.17
                             5486.34

 Zero-point correction=                           0.154942 (Hartree/Particle)
 Thermal correction to Energy=                    0.165746
 Thermal correction to Enthalpy=                  0.166690
 Thermal correction to Gibbs Free Energy=         0.117936
 Sum of electronic and zero-point Energies=           -423.005684
 Sum of electronic and thermal Energies=              -422.994880
 Sum of electronic and thermal Enthalpies=            -422.993936
 Sum of electronic and thermal Free Energies=         -423.042690

                     E (Thermal)             CV                S
                      KCal/Mol        Cal/Mol-Kelvin    Cal/Mol-Kelvin
 Total                  104.007             37.846            102.612
 Electronic               0.000              0.000              0.000
 Translational            0.889              2.981             40.409
 Rotational               0.889              2.981             29.468
 Vibrational            102.230             31.884             32.736
 Vibration     1          0.593              1.985              6.082
 Vibration     2          0.600              1.963              3.895
 Vibration     3          0.604              1.950              3.466
 Vibration     4          0.613              1.921              2.905
 Vibration     5          0.625              1.880              2.443
 Vibration     6          0.631              1.863              2.294
 Vibration     7          0.646              1.816              1.986
 Vibration     8          0.666              1.752              1.687
 Vibration     9          0.698              1.658              1.372
 Vibration    10          0.718              1.600              1.222
 Vibration    11          0.748              1.518              1.048
 Vibration    12          0.834              1.301              0.718
 Vibration    13          0.881              1.193              0.597
 Vibration    14          0.919              1.112              0.518

 Optimization completed.
    -- Stationary point found.
 Normal termination of Gaussian 09 at Tue Jan 28 10:59:15 2020.
