 Gaussian 09, Revision D.01,
 Gaussian 09:  ES64L-G09RevD.01 24-Apr-2013

 -----------------------------
 # b3lyp 6-31G(2df,p) opt Freq
 -----------------------------

 -----
 titel
 -----
 Symbolic Z-matrix:
 Charge =  0 Multiplicity = 1

 SCF Done:  E(RB3LYP) =  -423.170208533     A.U. after   14 cycles
 Optimization completed.
    -- Stationary point found.
 Normal termination of Gaussian 09 at Tue Jan 28 13:33:25 2020.

 ----------------------------------------------------------------------
 #N Geom=AllCheck Guess=TCheck SCRF=Check GenChk RB3LYP/6-31G(2df,p) Fr
 eq
 ----------------------------------------------------------------------

 Structure from the checkpoint file:  "/scratch/puck/g09_c4a0ff8c-e951-41e0-aeac-f8890fa100f2/Gau-94021.chk"
 -----
 titel
 -----
 Charge =  0 Multiplicity = 1

                         Standard orientation:
 ---------------------------------------------------------------------
 Center     Atomic      Atomic             Coordinates (Angstroms)
 Number     Number       Type             X           Y           Z
 ---------------------------------------------------------------------
      1          6           0        2.533163   -1.035201    0.752235
      2          6           0        2.213716    0.173393   -0.134134
      3          6           0        0.924461    0.863721    0.262797
      4          6           0        0.136183    1.670486   -0.740395
      5          6           0       -0.381235    0.337106   -0.278520
      6          8           0       -0.480175   -0.816784   -1.124560
      7          6           0       -1.706650   -1.255741   -0.489242
      8          6           0       -1.646192   -0.024046    0.433683
      9          8           0       -2.305505    0.435908    1.317735
     10          1           0        3.483603   -1.493762    0.463234
     11          1           0        2.608361   -0.747320    1.806525
     12          1           0        1.750910   -1.795052    0.664375
     13          1           0        3.033107    0.901600   -0.086749
     14          1           0        2.140321   -0.148807   -1.178530
     15          1           0        0.875537    1.204475    1.295266
     16          1           0       -0.398278    2.556687   -0.414601
     17          1           0        0.506333    1.697654   -1.760564
     18          1           0       -2.553874   -1.281765   -1.183587
     19          1           0       -1.601263   -2.225000    0.010693
 ---------------------------------------------------------------------

 SCF Done:  E(RB3LYP) =  -423.170208533     A.U. after    1 cycles

 The electronic state is 1-A.
 Alpha  occ. eigenvalues --  -19.15420 -19.14719 -10.27932 -10.24890 -10.24372
 Alpha  occ. eigenvalues --  -10.20630 -10.20054 -10.19119 -10.17680  -1.06960
 Alpha  occ. eigenvalues --   -1.04454  -0.87085  -0.76374  -0.71861  -0.65903
 Alpha  occ. eigenvalues --   -0.63723  -0.58697  -0.53391  -0.49470  -0.48545
 Alpha  occ. eigenvalues --   -0.46941  -0.44632  -0.44350  -0.43208  -0.40621
 Alpha  occ. eigenvalues --   -0.38676  -0.37870  -0.36252  -0.35394  -0.33981
 Alpha  occ. eigenvalues --   -0.33832  -0.31397  -0.25270  -0.24549
 Alpha virt. eigenvalues --   -0.02875   0.05918   0.10225   0.11036   0.11432
 Alpha virt. eigenvalues --    0.11816   0.14740   0.15600   0.16376   0.17001
 Alpha virt. eigenvalues --    0.17703   0.18651   0.19519   0.20752   0.22135

 Mulliken charges:
               1
     1  C   -0.376714
     2  C   -0.191688
     3  C   -0.075362
     4  C   -0.373061
     5  C    0.327293
     6  O   -0.317076
     7  C   -0.192587
     8  C    0.277106
     9  O   -0.295593
    10  H    0.114762
    11  H    0.115125
    12  H    0.126354
    13  H    0.102920
    14  H    0.113442
    15  H    0.106118
    16  H    0.134023
    17  H    0.132942
    18  H    0.136391
    19  H    0.135605
 Sum of Mulliken charges =   0.00000

 Dipole moment (field-independent basis, Debye):
    X=              1.2505    Y=             -0.1938    Z=             -0.8227  Tot=              1.5093
 Quadrupole moment (field-independent basis, Debye-Ang):
   XX=            -54.6185   YY=            -50.9451   ZZ=            -56.3640
   XY=              3.4865   XZ=              4.8450   YZ=             -2.1364

  Exact polarizability:  89.129   4.604  76.856  -1.482  -0.076  67.935
 Approx polarizability: 118.869   5.666 109.693  -8.540   4.419 107.930

                      1                      2                      3
                      A                      A                      A
 Frequencies --     73.9154                88.5459               122.4417
 Red. masses --      2.6191                 4.9271                 2.4248
 Frc consts  --      0.0084                 0.0228                 0.0214
 IR Inten    --      0.1707                 0.2462                 4.1813

                      4                      5                      6
                      A                      A                      A
 Frequencies --    155.4980               230.3762               253.3392
 Red. masses --      2.8038                 1.7897                 1.9120
 Frc consts  --      0.0399                 0.0560                 0.0723
 IR Inten    --      3.5866                 0.9189                 0.8878

                      7                      8                      9
                      A                      A                      A
 Frequencies --    294.3685               400.6661               443.5364
 Red. masses --      2.7625                 3.1224                 2.8316
 Frc consts  --      0.1410                 0.2953                 0.3282
 IR Inten    --      4.8721                 3.0072                 2.1420

                     10                     11                     12
                      A                      A                      A
 Frequencies --    528.0816               556.4663               618.0695
 Red. masses --      2.5679                 2.6611                 4.1329
 Frc consts  --      0.4219                 0.4855                 0.9302
 IR Inten    --      4.0537                 1.7003                 0.3025

                     13                     14                     15
                      A                      A                      A
 Frequencies --    728.3718               757.8531               805.1206
 Red. masses --      3.1447                 2.7872                 1.2625
 Frc consts  --      0.9830                 0.9432                 0.4822
 IR Inten    --      1.0247                14.4577                 4.0221

                     16                     17                     18
                      A                      A                      A
 Frequencies --    847.1002               871.6405               946.9113
 Red. masses --      2.1430                 2.2956                 1.4993
 Frc consts  --      0.9060                 1.0276                 0.7920
 IR Inten    --      9.3642                13.5429                 7.7934

                     19                     20                     21
                      A                      A                      A
 Frequencies --    993.6687              1002.7155              1008.5230
 Red. masses --      5.7903                 1.7134                 4.0110
 Frc consts  --      3.3685                 1.0150                 2.4037
 IR Inten    --     79.4622                 3.0447                37.7626

                     22                     23                     24
                      A                      A                      A
 Frequencies --   1014.5640              1045.7725              1065.8571
 Red. masses --      2.6055                 1.6202                 1.5884
 Frc consts  --      1.5802                 1.0440                 1.0632
 IR Inten    --      9.8962                10.0177                32.8106

                     25                     26                     27
                      A                      A                      A
 Frequencies --   1092.3105              1134.0284              1138.5261
 Red. masses --      2.5752                 1.5206                 1.2491
 Frc consts  --      1.8103                 1.1522                 0.9540
 IR Inten    --     22.0130                 5.7692                 2.7316

                     28                     29                     30
                      A                      A                      A
 Frequencies --   1186.5745              1212.9394              1277.7415
 Red. masses --      1.8581                 2.5440                 1.4734
 Frc consts  --      1.5413                 2.2052                 1.4173
 IR Inten    --     22.6860                57.4957                 2.8367

                     31                     32                     33
                      A                      A                      A
 Frequencies --   1300.4798              1311.4322              1352.1993
 Red. masses --      1.4530                 1.3839                 1.5353
 Frc consts  --      1.4479                 1.4023                 1.6540
 IR Inten    --      2.0683                 1.1279                19.4453

                     34                     35                     36
                      A                      A                      A
 Frequencies --   1409.3276              1421.0093              1465.7054
 Red. masses --      1.2497                 1.6008                 1.3439
 Frc consts  --      1.4625                 1.9045                 1.7010
 IR Inten    --      2.5774                 4.6803                 3.1880

                     37                     38                     39
                      A                      A                      A
 Frequencies --   1480.5175              1486.0140              1499.1024
 Red. masses --      1.1031                 1.2485                 1.0457
 Frc consts  --      1.4246                 1.6243                 1.3845
 IR Inten    --      4.4965                 5.6850                 3.7775

                     40                     41                     42
                      A                      A                      A
 Frequencies --   1506.3613              1912.4097              3028.4964
 Red. masses --      1.0645                12.8347                 1.0628
 Frc consts  --      1.4232                27.6566                 5.7434
 IR Inten    --      3.5050               300.4688                27.6937

                     43                     44                     45
                      A                      A                      A
 Frequencies --   3034.6936              3036.0061              3069.8016
 Red. masses --      1.0541                 1.0365                 1.0978
 Frc consts  --      5.7197                 5.6287                 6.0954
 IR Inten    --     24.5670                26.0904                 5.1678

                     46                     47                     48
                      A                      A                      A
 Frequencies --   3088.5202              3104.2761              3114.3151
 Red. masses --      1.1093                 1.1009                 1.1020
 Frc consts  --      6.2343                 6.2507                 6.2976
 IR Inten    --     15.6785                29.4016                31.8117

                     49                     50                     51
                      A                      A                      A
 Frequencies --   3127.1924              3131.1808              3220.3421
 Red. masses --      1.0533                 1.0880                 1.1172
 Frc consts  --      6.0686                 6.2851                 6.8263
 IR Inten    --      5.7531                14.3184                 2.9673

 - Thermochemistry -
 -------------------
 Temperature   298.150 Kelvin.  Pressure   1.00000 Atm.
 Atom     1 has atomic number  6 and mass  12.00000

 Molecular mass:   126.06808 amu.
 Principal axes and moments of inertia in atomic units:
                           1         2         3
     Eigenvalues --   693.294061534.185991659.61278
           X            0.99956   0.00293   0.02952
           Y            0.00055   0.99309  -0.11739
           Z           -0.02966   0.11736   0.99265
 This molecule is an asymmetric top.
 Rotational symmetry number  1.
 Warning -- assumption of classical behavior for rotation
           may cause significant error
 Rotational temperatures (Kelvin)      0.12493     0.05646     0.05219
 Rotational constants (GHZ):           2.60314     1.17635     1.08745
 Zero-point vibrational energy     412681.2 (Joules/Mol)
                                   98.63317 (Kcal/Mol)
 Warning -- explicit consideration of  12 degrees of freedom as
           vibrations may cause significant error
 Vibrational temperatures:    106.35   127.40   176.17   223.73   331.46
          (Kelvin)            364.50   423.53   576.47   638.15   759.79
                              800.63   889.26  1047.96  1090.38  1158.39
                             1218.79  1254.09  1362.39  1429.67  1442.68
                             1451.04  1459.73  1504.63  1533.53  1571.59
                             1631.61  1638.08  1707.21  1745.15  1838.38
                             1871.10  1886.86  1945.51  2027.71  2044.51
                             2108.82  2130.13  2138.04  2156.87  2167.32
                             2751.53  4357.33  4366.24  4368.13  4416.75
                             4443.69  4466.36  4480.80  4499.33  4505.07
                             4633.35

 Zero-point correction=                           0.157182 (Hartree/Particle)
 Thermal correction to Energy=                    0.166257
 Thermal correction to Enthalpy=                  0.167201
 Thermal correction to Gibbs Free Energy=         0.122890
 Sum of electronic and zero-point Energies=           -423.013027
 Sum of electronic and thermal Energies=              -423.003952
 Sum of electronic and thermal Enthalpies=            -423.003007
 Sum of electronic and thermal Free Energies=         -423.047318

                     E (Thermal)             CV                S
                      KCal/Mol        Cal/Mol-Kelvin    Cal/Mol-Kelvin
 Total                  104.328             33.306             93.261
 Electronic               0.000              0.000              0.000
 Translational            0.889              2.981             40.409
 Rotational               0.889              2.981             28.958
 Vibrational            102.550             27.344             23.894
 Vibration     1          0.599              1.966              4.046
 Vibration     2          0.601              1.957              3.692
 Vibration     3          0.610              1.930              3.061
 Vibration     4          0.620              1.897              2.604
 Vibration     5          0.652              1.795              1.876
 Vibration     6          0.665              1.757              1.707
 Vibration     7          0.689              1.684              1.449
 Vibration     8          0.766              1.469              0.960
 Vibration     9          0.803              1.375              0.816
 Vibration    10          0.883              1.188              0.592
 Vibration    11          0.912              1.126              0.531
 Vibration    12          0.978              0.994              0.420

 Normal termination of Gaussian 09 at Tue Jan 28 14:55:53 2020.
