 Gaussian 09, Revision D.01,
 Gaussian 09:  ES64L-G09RevD.01 24-Apr-2013

 -----------------------------
 # b3lyp 6-31G(2df,p) opt Freq
 -----------------------------

 -----
 titel
 -----
 Symbolic Z-matrix:
 Charge =  0 Multiplicity = 1

 SCF Done:  E(RB3LYP) =  -423.124986783     A.U. after   13 cycles
 Optimization completed.
    -- Stationary point found.
 Normal termination of Gaussian 09 at Tue Jan 28 10:06:45 2020.

 ----------------------------------------------------------------------
 #N Geom=AllCheck Guess=TCheck SCRF=Check GenChk RB3LYP/6-31G(2df,p) Fr
 eq
 ----------------------------------------------------------------------

 Structure from the checkpoint file:  "/scratch/puck/g09_2622ca17-5c57-4399-86dc-c074e815e639/Gau-133623.chk"
 -----
 titel
 -----
 Charge =  0 Multiplicity = 1

                         Standard orientation:
 ---------------------------------------------------------------------
 Center     Atomic      Atomic             Coordinates (Angstroms)
 Number     Number       Type             X           Y           Z
 ---------------------------------------------------------------------
      1          6           0       -2.799769    0.000043   -0.295480
      2          8           0       -1.778295   -0.000106    0.682955
      3          6           0       -0.494749   -0.000039    0.150864
      4          6           0        0.040089   -1.294213   -0.532145
      5          6           0        1.412860   -1.034780    0.136336
      6          8           0        2.154230    0.000064   -0.548434
      7          6           0        1.412791    1.034824    0.136378
      8          6           0        0.039998    1.294198   -0.532088
      9          6           0        0.761934   -0.000019    1.095805
     10          1           0       -2.751348   -0.891681   -0.937125
     11          1           0       -3.753285    0.000018    0.237072
     12          1           0       -2.751279    0.891908   -0.936921
     13          1           0       -0.442371   -2.166726   -0.078413
     14          1           0        0.024325   -1.376407   -1.621864
     15          1           0        2.045113   -1.880198    0.410875
     16          1           0        2.044982    1.880276    0.410952
     17          1           0       -0.442506    2.166668   -0.078319
     18          1           0        0.024224    1.376436   -1.621803
     19          1           0        0.755736   -0.000040    2.181349
 ---------------------------------------------------------------------

 SCF Done:  E(RB3LYP) =  -423.124986783     A.U. after    1 cycles

 The electronic state is 1-A.
 Alpha  occ. eigenvalues --  -19.14490 -19.13110 -10.24020 -10.23489 -10.23489
 Alpha  occ. eigenvalues --  -10.22675 -10.18754 -10.18036 -10.18036  -1.04883
 Alpha  occ. eigenvalues --   -1.03512  -0.84336  -0.75457  -0.69681  -0.67095
 Alpha  occ. eigenvalues --   -0.61029  -0.58493  -0.53181  -0.50463  -0.47794
 Alpha  occ. eigenvalues --   -0.46938  -0.44964  -0.43912  -0.42280  -0.41649
 Alpha  occ. eigenvalues --   -0.41206  -0.38143  -0.34828  -0.33634  -0.30488
 Alpha  occ. eigenvalues --   -0.29511  -0.27851  -0.24518  -0.24188
 Alpha virt. eigenvalues --    0.07079   0.09585   0.10485   0.10608   0.13368
 Alpha virt. eigenvalues --    0.14721   0.14866   0.15260   0.15438   0.16499
 Alpha virt. eigenvalues --    0.16719   0.17992   0.19007   0.19249   0.19492

 Mulliken charges:
               1
     1  C   -0.265990
     2  O   -0.291948
     3  C    0.430533
     4  C   -0.306549
     5  C    0.103824
     6  O   -0.306267
     7  C    0.103823
     8  C   -0.306552
     9  C   -0.173035
    10  H    0.112283
    11  H    0.128693
    12  H    0.112285
    13  H    0.106887
    14  H    0.100245
    15  H    0.081421
    16  H    0.081421
    17  H    0.106887
    18  H    0.100246
    19  H    0.081795
 Sum of Mulliken charges =   0.00000

 Dipole moment (field-independent basis, Debye):
    X=             -1.2819    Y=              0.0001    Z=              0.0337  Tot=              1.2823
 Quadrupole moment (field-independent basis, Debye-Ang):
   XX=            -55.3732   YY=            -50.1379   ZZ=            -53.7472
   XY=             -0.0007   XZ=              5.0732   YZ=              0.0003

  Exact polarizability:  83.511   0.000  75.124   3.382   0.000  64.891
 Approx polarizability: 111.954   0.000 108.606   0.221   0.000 101.873

                      1                      2                      3
                      A                      A                      A
 Frequencies --     96.5858               181.0195               192.2424
 Red. masses --      2.7188                 3.2470                 1.0950
 Frc consts  --      0.0149                 0.0627                 0.0238
 IR Inten    --      1.9972                 2.6571                 0.0008

                      4                      5                      6
                      A                      A                      A
 Frequencies --    307.3722               323.0783               370.3551
 Red. masses --      2.7052                 2.7227                 4.4262
 Frc consts  --      0.1506                 0.1674                 0.3577
 IR Inten    --      6.6211                 2.7823                 0.1395

                      7                      8                      9
                      A                      A                      A
 Frequencies --    430.8720               464.0205               626.1203
 Red. masses --      2.5562                 2.2589                 3.5844
 Frc consts  --      0.2796                 0.2866                 0.8279
 IR Inten    --      3.7344                 1.9666                 1.9377

                     10                     11                     12
                      A                      A                      A
 Frequencies --    648.2601               758.0616               823.1455
 Red. masses --      3.6775                 3.6613                 2.1949
 Frc consts  --      0.9105                 1.2397                 0.8762
 IR Inten    --      0.1846                 1.5679                25.1680

                     13                     14                     15
                      A                      A                      A
 Frequencies --    829.7997               861.3875               874.8865
 Red. masses --      1.5225                 2.1183                 1.7843
 Frc consts  --      0.6176                 0.9260                 0.8047
 IR Inten    --      0.4071                 2.8465                 2.1924

                     16                     17                     18
                      A                      A                      A
 Frequencies --    924.5897               927.0084               960.3393
 Red. masses --      2.2448                 2.8584                 2.3364
 Frc consts  --      1.1307                 1.4473                 1.2695
 IR Inten    --      6.3125                 9.3907                20.3242

                     19                     20                     21
                      A                      A                      A
 Frequencies --    986.7611               993.8595              1042.6669
 Red. masses --      2.1561                 4.5758                 3.5610
 Frc consts  --      1.2369                 2.6630                 2.2810
 IR Inten    --     26.3143                 0.1517                41.7367

                     22                     23                     24
                      A                      A                      A
 Frequencies --   1084.9718              1097.8684              1133.8146
 Red. masses --      2.5285                 3.1723                 1.9909
 Frc consts  --      1.7537                 2.2528                 1.5080
 IR Inten    --     55.1607                43.9520                 7.3144

                     25                     26                     27
                      A                      A                      A
 Frequencies --   1135.5071              1166.1578              1173.7186
 Red. masses --      1.7547                 1.6066                 1.7287
 Frc consts  --      1.3330                 1.2873                 1.4031
 IR Inten    --      0.6763                 5.2521                12.3760

                     28                     29                     30
                      A                      A                      A
 Frequencies --   1182.2237              1200.8914              1217.2694
 Red. masses --      1.2938                 1.6205                 1.6840
 Frc consts  --      1.0654                 1.3769                 1.4702
 IR Inten    --      2.5610                 5.7927                 1.9353

                     31                     32                     33
                      A                      A                      A
 Frequencies --   1248.3096              1249.8545              1276.7723
 Red. masses --      1.9032                 1.7274                 2.1984
 Frc consts  --      1.7474                 1.5899                 2.1115
 IR Inten    --     14.2925                 8.7208                31.6879

                     34                     35                     36
                      A                      A                      A
 Frequencies --   1292.8158              1312.8640              1351.6189
 Red. masses --      1.2871                 2.2406                 1.5238
 Frc consts  --      1.2674                 2.2754                 1.6401
 IR Inten    --      3.7832               175.5119                 7.4971

                     37                     38                     39
                      A                      A                      A
 Frequencies --   1457.7255              1468.5851              1487.1527
 Red. masses --      1.1125                 1.1159                 1.2031
 Frc consts  --      1.3929                 1.4180                 1.5677
 IR Inten    --      2.0209                 0.8531                 2.3226

                     40                     41                     42
                      A                      A                      A
 Frequencies --   1490.4019              1507.8985              2987.9301
 Red. masses --      1.0475                 1.0528                 1.0356
 Frc consts  --      1.3710                 1.4104                 5.4474
 IR Inten    --      3.6391                 7.0468                46.2255

                     43                     44                     45
                      A                      A                      A
 Frequencies --   3037.3769              3045.5017              3046.6532
 Red. masses --      1.0989                 1.0612                 1.0582
 Frc consts  --      5.9731                 5.7994                 5.7871
 IR Inten    --     23.1640                44.1389                22.8047

                     46                     47                     48
                      A                      A                      A
 Frequencies --   3097.7001              3101.1364              3110.1562
 Red. masses --      1.0888                 1.0926                 1.1079
 Frc consts  --      6.1557                 6.1911                 6.3143
 IR Inten    --     73.0413                38.4276                 2.1345

                     49                     50                     51
                      A                      A                      A
 Frequencies --   3113.1177              3120.6029              3167.7395
 Red. masses --      1.1072                 1.0976                 1.0946
 Frc consts  --      6.3220                 6.2973                 6.4714
 IR Inten    --     35.0148                31.0081                16.2360

 - Thermochemistry -
 -------------------
 Temperature   298.150 Kelvin.  Pressure   1.00000 Atm.
 Atom     1 has atomic number  6 and mass  12.00000

 Molecular mass:   126.06808 amu.
 Principal axes and moments of inertia in atomic units:
                           1         2         3
     Eigenvalues --   482.741901295.764701440.88104
           X            0.99960  -0.00001   0.02833
           Y            0.00001   1.00000   0.00001
           Z           -0.02833  -0.00001   0.99960
 This molecule is an asymmetric top.
 Rotational symmetry number  1.
 Warning -- assumption of classical behavior for rotation
           may cause significant error
 Rotational temperatures (Kelvin)      0.17942     0.06684     0.06011
 Rotational constants (GHZ):           3.73852     1.39280     1.25253
 Zero-point vibrational energy     418613.8 (Joules/Mol)
                                  100.05111 (Kcal/Mol)
 Warning -- explicit consideration of   8 degrees of freedom as
           vibrations may cause significant error
 Vibrational temperatures:    138.97   260.45   276.59   442.24   464.84
          (Kelvin)            532.86   619.93   667.62   900.85   932.70
                             1090.68  1184.32  1193.90  1239.34  1258.76
                             1330.28  1333.76  1381.71  1419.73  1429.94
                             1500.16  1561.03  1579.59  1631.30  1633.74
                             1677.84  1688.72  1700.95  1727.81  1751.38
                             1796.04  1798.26  1836.99  1860.07  1888.92
                             1944.68  2097.34  2112.96  2139.68  2144.35
                             2169.53  4298.96  4370.10  4381.79  4383.45
                             4456.89  4461.84  4474.82  4479.08  4489.85
                             4557.66

 Zero-point correction=                           0.159442 (Hartree/Particle)
 Thermal correction to Energy=                    0.167021
 Thermal correction to Enthalpy=                  0.167965
 Thermal correction to Gibbs Free Energy=         0.127508
 Sum of electronic and zero-point Energies=           -422.965545
 Sum of electronic and thermal Energies=              -422.957966
 Sum of electronic and thermal Enthalpies=            -422.957022
 Sum of electronic and thermal Free Energies=         -422.997478

                     E (Thermal)             CV                S
                      KCal/Mol        Cal/Mol-Kelvin    Cal/Mol-Kelvin
 Total                  104.807             30.056             85.148
 Electronic               0.000              0.000              0.000
 Translational            0.889              2.981             40.409
 Rotational               0.889              2.981             28.290
 Vibrational            103.030             24.095             16.449
 Vibration     1          0.603              1.952              3.522
 Vibration     2          0.630              1.866              2.318
 Vibration     3          0.634              1.851              2.206
 Vibration     4          0.697              1.660              1.376
 Vibration     5          0.708              1.629              1.294
 Vibration     6          0.742              1.533              1.078
 Vibration     7          0.792              1.403              0.856
 Vibration     8          0.822              1.330              0.754

 Optimization completed.
    -- Stationary point found.
 Normal termination of Gaussian 09 at Tue Jan 28 10:51:40 2020.
