 Gaussian 09, Revision D.01,
 Gaussian 09:  ES64L-G09RevD.01 24-Apr-2013

 -----------------------------
 # b3lyp 6-31G(2df,p) opt Freq
 -----------------------------

 -----
 titel
 -----
 Symbolic Z-matrix:
 Charge =  0 Multiplicity = 1

 SCF Done:  E(RB3LYP) =  -423.124269605     A.U. after   14 cycles
 Optimization completed.
    -- Stationary point found.
 Normal termination of Gaussian 09 at Mon Jan 27 14:11:36 2020.

 ----------------------------------------------------------------------
 #N Geom=AllCheck Guess=TCheck SCRF=Check GenChk RB3LYP/6-31G(2df,p) Fr
 eq
 ----------------------------------------------------------------------

 Structure from the checkpoint file:  "/scratch/puck/g09_69739483-f8ba-47c6-9758-e7a7ff2cf6e9/Gau-64212.chk"
 -----
 titel
 -----
 Charge =  0 Multiplicity = 1

                         Standard orientation:
 ---------------------------------------------------------------------
 Center     Atomic      Atomic             Coordinates (Angstroms)
 Number     Number       Type             X           Y           Z
 ---------------------------------------------------------------------
      1          6           0        0.114551    1.531709    1.165755
      2          6           0       -0.349715    0.564132    0.097018
      3          6           0       -1.222160    1.076149   -1.035956
      4          6           0       -1.816823    0.205805    0.035406
      5          8           0       -2.190549   -1.091907   -0.320345
      6          6           0        0.584199   -0.604641   -0.219181
      7          8           0        0.497922   -1.618434    0.796951
      8          6           0        1.969468   -0.184553   -0.438365
      9          6           0        3.110401    0.164792   -0.585466
     10          1           0        0.337377    1.014619    2.107569
     11          1           0        1.017172    2.066836    0.855146
     12          1           0       -0.661473    2.272095    1.380484
     13          1           0       -1.474496    2.130875   -1.052386
     14          1           0       -1.099792    0.622818   -2.013693
     15          1           0       -2.467822    0.682391    0.769328
     16          1           0       -1.749521   -1.688489    0.298881
     17          1           0        0.216658   -1.105567   -1.118605
     18          1           0        0.963807   -1.295905    1.576204
     19          1           0        4.119578    0.462703   -0.731054
 ---------------------------------------------------------------------

 SCF Done:  E(RB3LYP) =  -423.124269605     A.U. after    1 cycles

 The electronic state is 1-A.
 Alpha  occ. eigenvalues --  -19.15349 -19.13638 -10.26161 -10.23283 -10.20168
 Alpha  occ. eigenvalues --  -10.18893 -10.18565 -10.18446 -10.18440  -1.03610
 Alpha  occ. eigenvalues --   -1.01996  -0.86081  -0.77139  -0.71834  -0.69865
 Alpha  occ. eigenvalues --   -0.59747  -0.57612  -0.55397  -0.52563  -0.50544
 Alpha  occ. eigenvalues --   -0.48020  -0.45181  -0.43911  -0.40955  -0.39569
 Alpha  occ. eigenvalues --   -0.38886  -0.38223  -0.35997  -0.32840  -0.29826
 Alpha  occ. eigenvalues --   -0.28073  -0.27393  -0.26777  -0.25547
 Alpha virt. eigenvalues --    0.02278   0.04523   0.07833   0.10499   0.11293
 Alpha virt. eigenvalues --    0.11914   0.12104   0.13527   0.15365   0.15881
 Alpha virt. eigenvalues --    0.17345   0.18383   0.19476   0.21684   0.23241

 Mulliken charges:
               1
     1  C   -0.478335
     2  C    0.298313
     3  C   -0.349490
     4  C    0.072354
     5  O   -0.427006
     6  C   -0.155698
     7  O   -0.433545
     8  C    0.306799
     9  C   -0.428138
    10  H    0.104930
    11  H    0.133849
    12  H    0.119435
    13  H    0.111474
    14  H    0.123679
    15  H    0.083961
    16  H    0.297021
    17  H    0.130742
    18  H    0.289049
    19  H    0.200607
 Sum of Mulliken charges =   0.00000

 Dipole moment (field-independent basis, Debye):
    X=              1.4385    Y=              1.4669    Z=              1.3491  Tot=              2.4578
 Quadrupole moment (field-independent basis, Debye-Ang):
   XX=            -52.7955   YY=            -54.6126   ZZ=            -50.7247
   XY=             -0.8403   XZ=             -1.6041   YZ=             -1.2808

  Exact polarizability:  95.880   3.901  69.400  -1.680  -1.521  66.102
 Approx polarizability: 139.769  13.129 102.949  -2.710  -4.899  98.646

                      1                      2                      3
                      A                      A                      A
 Frequencies --     57.1943               131.5792               175.6346
 Red. masses --      4.4126                 4.2364                 2.9431
 Frc consts  --      0.0085                 0.0432                 0.0535
 IR Inten    --      2.6978                 0.1143                 4.8584

                      4                      5                      6
                      A                      A                      A
 Frequencies --    191.5915               220.8664               239.3145
 Red. masses --      1.6994                 1.9718                 1.7005
 Frc consts  --      0.0368                 0.0567                 0.0574
 IR Inten    --      3.9938                 0.0922                24.4289

                      7                      8                      9
                      A                      A                      A
 Frequencies --    249.4855               299.9078               335.3391
 Red. masses --      1.9460                 2.6986                 2.9799
 Frc consts  --      0.0714                 0.1430                 0.1974
 IR Inten    --      5.5892                39.7371                 1.1242

                     10                     11                     12
                      A                      A                      A
 Frequencies --    408.5963               448.9327               497.4648
 Red. masses --      4.2826                 2.1002                 2.9039
 Frc consts  --      0.4213                 0.2494                 0.4234
 IR Inten    --      2.8436                67.1520                64.1686

                     13                     14                     15
                      A                      A                      A
 Frequencies --    508.4653               568.2029               608.1809
 Red. masses --      1.3379                 5.2710                 4.0587
 Frc consts  --      0.2038                 1.0026                 0.8845
 IR Inten    --     80.0486                 2.7340                 3.1947

                     16                     17                     18
                      A                      A                      A
 Frequencies --    628.9074               672.0996               765.1417
 Red. masses --      1.2642                 1.2499                 3.1257
 Frc consts  --      0.2946                 0.3327                 1.0782
 IR Inten    --     40.1146                33.2046                14.5573

                     19                     20                     21
                      A                      A                      A
 Frequencies --    822.3143               878.2017               915.8877
 Red. masses --      2.4280                 2.0375                 2.0213
 Frc consts  --      0.9673                 0.9259                 0.9990
 IR Inten    --      8.8256                 4.8872                10.8995

                     22                     23                     24
                      A                      A                      A
 Frequencies --    949.2470               993.7156              1026.1216
 Red. masses --      1.7180                 2.7637                 2.4975
 Frc consts  --      0.9121                 1.6079                 1.5493
 IR Inten    --      6.9575                87.8579                42.9743

                     25                     26                     27
                      A                      A                      A
 Frequencies --   1045.7201              1060.8127              1114.3954
 Red. masses --      1.3196                 2.3054                 1.7892
 Frc consts  --      0.8502                 1.5285                 1.3092
 IR Inten    --      4.6161                13.2283                16.6308

                     28                     29                     30
                      A                      A                      A
 Frequencies --   1128.5245              1179.0111              1238.6871
 Red. masses --      1.6789                 2.7500                 1.4291
 Frc consts  --      1.2598                 2.2523                 1.2919
 IR Inten    --      1.5450                67.9121                11.3082

                     31                     32                     33
                      A                      A                      A
 Frequencies --   1263.3423              1304.1936              1345.6643
 Red. masses --      1.4936                 2.3107                 1.2376
 Frc consts  --      1.4045                 2.3156                 1.3204
 IR Inten    --     15.5159                 5.9814                52.9001

                     34                     35                     36
                      A                      A                      A
 Frequencies --   1359.8759              1412.4141              1419.9630
 Red. masses --      1.5603                 1.2240                 1.1800
 Frc consts  --      1.7000                 1.4387                 1.4018
 IR Inten    --     47.3117                16.8202                25.6758

                     37                     38                     39
                      A                      A                      A
 Frequencies --   1430.5306              1482.8699              1492.4277
 Red. masses --      1.5741                 1.3599                 1.0459
 Frc consts  --      1.8979                 1.7619                 1.3726
 IR Inten    --      1.5426                18.4401                 3.9947

                     40                     41                     42
                      A                      A                      A
 Frequencies --   1500.8178              2232.6384              3022.9723
 Red. masses --      1.1266                 5.9122                 1.0401
 Frc consts  --      1.4951                17.3633                 5.6000
 IR Inten    --      9.6570                 1.3623                29.2901

                     43                     44                     45
                      A                      A                      A
 Frequencies --   3081.5215              3086.1583              3091.0316
 Red. masses --      1.0836                 1.0938                 1.0885
 Frc consts  --      6.0624                 6.1382                 6.1277
 IR Inten    --      2.6283                21.5001                33.9301

                     46                     47                     48
                      A                      A                      A
 Frequencies --   3110.9853              3133.9583              3222.5950
 Red. masses --      1.1011                 1.0552                 1.1169
 Frc consts  --      6.2787                 6.1060                 6.8339
 IR Inten    --     22.9802                10.5963                 6.7509

                     49                     50                     51
                      A                      A                      A
 Frequencies --   3501.4620              3762.4316              3811.5616
 Red. masses --      1.1624                 1.0659                 1.0662
 Frc consts  --      8.3965                 8.8901                 9.1264
 IR Inten    --     65.7595                48.0795                23.4220

 - Thermochemistry -
 -------------------
 Temperature   298.150 Kelvin.  Pressure   1.00000 Atm.
 Atom     1 has atomic number  6 and mass  12.00000

 Molecular mass:   126.06808 amu.
 Principal axes and moments of inertia in atomic units:
                           1         2         3
     Eigenvalues --   712.964571443.595431690.07669
           X            0.99998  -0.00597   0.00082
           Y            0.00594   0.99934   0.03596
           Z           -0.00103  -0.03595   0.99935
 This molecule is an asymmetric top.
 Rotational symmetry number  1.
 Warning -- assumption of classical behavior for rotation
           may cause significant error
 Rotational temperatures (Kelvin)      0.12148     0.06000     0.05125
 Rotational constants (GHZ):           2.53132     1.25017     1.06785
 Zero-point vibrational energy     409296.1 (Joules/Mol)
                                   97.82411 (Kcal/Mol)
 Warning -- explicit consideration of  15 degrees of freedom as
           vibrations may cause significant error
 Vibrational temperatures:     82.29   189.31   252.70   275.66   317.78
          (Kelvin)            344.32   358.95   431.50   482.48   587.88
                              645.91   715.74   731.57   817.52   875.04
                              904.86   967.00  1100.87  1183.13  1263.53
                             1317.76  1365.75  1429.73  1476.36  1504.56
                             1526.27  1603.36  1623.69  1696.33  1782.19
                             1817.67  1876.44  1936.11  1956.56  2032.15
                             2043.01  2058.21  2133.52  2147.27  2159.34
                             3212.26  4349.38  4433.62  4440.29  4447.30
                             4476.01  4509.06  4636.59  5037.82  5413.29
                             5483.98

 Zero-point correction=                           0.155893 (Hartree/Particle)
 Thermal correction to Energy=                    0.165926
 Thermal correction to Enthalpy=                  0.166870
 Thermal correction to Gibbs Free Energy=         0.121344
 Sum of electronic and zero-point Energies=           -422.968377
 Sum of electronic and thermal Energies=              -422.958343
 Sum of electronic and thermal Enthalpies=            -422.957399
 Sum of electronic and thermal Free Energies=         -423.002926

                     E (Thermal)             CV                S
                      KCal/Mol        Cal/Mol-Kelvin    Cal/Mol-Kelvin
 Total                  104.120             37.652             95.819
 Electronic               0.000              0.000              0.000
 Translational            0.889              2.981             40.409
 Rotational               0.889              2.981             28.944
 Vibrational            102.343             31.690             26.467
 Vibration     1          0.596              1.975              4.552
 Vibration     2          0.612              1.922              2.923
 Vibration     3          0.628              1.872              2.374
 Vibration     4          0.634              1.852              2.212
 Vibration     5          0.648              1.809              1.952
 Vibration     6          0.657              1.780              1.808
 Vibration     7          0.662              1.764              1.734
 Vibration     8          0.692              1.674              1.417
 Vibration     9          0.716              1.605              1.234
 Vibration    10          0.773              1.452              0.932
 Vibration    11          0.808              1.363              0.799
 Vibration    12          0.853              1.256              0.664
 Vibration    13          0.864              1.231              0.637
 Vibration    14          0.924              1.100              0.508
 Vibration    15          0.967              1.014              0.436

 Optimization completed.
    -- Stationary point found.
 Normal termination of Gaussian 09 at Mon Jan 27 15:09:08 2020.
