 Gaussian 09, Revision D.01,
 Gaussian 09:  ES64L-G09RevD.01 24-Apr-2013

 -----------------------------
 # b3lyp 6-31G(2df,p) opt Freq
 -----------------------------

 -----
 titel
 -----
 Symbolic Z-matrix:
 Charge =  0 Multiplicity = 1

 SCF Done:  E(RB3LYP) =  -423.155931559     A.U. after   13 cycles
 Optimization completed.
    -- Stationary point found.
 Normal termination of Gaussian 09 at Mon Jan 27 17:00:36 2020.

 ----------------------------------------------------------------------
 #N Geom=AllCheck Guess=TCheck SCRF=Check GenChk RB3LYP/6-31G(2df,p) Fr
 eq
 ----------------------------------------------------------------------

 Structure from the checkpoint file:  "/scratch/puck/g09_f73cf075-2044-460e-ac4b-994ae7d0905f/Gau-85084.chk"
 -----
 titel
 -----
 Charge =  0 Multiplicity = 1

                         Standard orientation:
 ---------------------------------------------------------------------
 Center     Atomic      Atomic             Coordinates (Angstroms)
 Number     Number       Type             X           Y           Z
 ---------------------------------------------------------------------
      1          8           0       -1.719652   -1.203184   -0.937399
      2          6           0       -0.926170   -0.321789   -0.229648
      3          6           0       -1.138022    0.455486    1.074062
      4          6           0       -0.419643    1.669944    0.496879
      5          6           0       -0.100816    0.843157   -0.804625
      6          8           0        1.261475    0.597504   -1.088223
      7          6           0        1.825154   -0.516385   -0.401467
      8          6           0        1.306826   -0.680293    1.034555
      9          6           0       -0.218040   -0.761512    1.008904
     10          1           0       -2.383081   -0.696538   -1.419188
     11          1           0       -1.995342    0.463781    1.735555
     12          1           0       -1.090399    2.508327    0.291387
     13          1           0        0.457282    2.042410    1.033363
     14          1           0       -0.530527    1.298975   -1.701487
     15          1           0        1.603064   -1.441002   -0.956652
     16          1           0        2.908247   -0.362648   -0.423803
     17          1           0        1.729565   -1.599891    1.451756
     18          1           0        1.659239    0.142779    1.666076
     19          1           0       -0.668365   -1.642398    1.456009
 ---------------------------------------------------------------------

 SCF Done:  E(RB3LYP) =  -423.155931559     A.U. after    1 cycles

 The electronic state is 1-A.
 Alpha  occ. eigenvalues --  -19.15145 -19.13133 -10.23428 -10.23045 -10.22169
 Alpha  occ. eigenvalues --  -10.19038 -10.18899 -10.18248 -10.18064  -1.03957
 Alpha  occ. eigenvalues --   -1.02190  -0.88530  -0.77397  -0.70012  -0.66176
 Alpha  occ. eigenvalues --   -0.62618  -0.56203  -0.53779  -0.52694  -0.47928
 Alpha  occ. eigenvalues --   -0.47328  -0.43708  -0.42078  -0.41469  -0.40907
 Alpha  occ. eigenvalues --   -0.38170  -0.37812  -0.36030  -0.33836  -0.32084
 Alpha  occ. eigenvalues --   -0.30843  -0.26288  -0.24153  -0.23548
 Alpha virt. eigenvalues --    0.07728   0.08857   0.09906   0.11589   0.13141
 Alpha virt. eigenvalues --    0.14380   0.14665   0.16067   0.16931   0.17447
 Alpha virt. eigenvalues --    0.17783   0.19528   0.20534   0.21337   0.21516

 Mulliken charges:
               1
     1  O   -0.462250
     2  C    0.348867
     3  C   -0.162549
     4  C   -0.254609
     5  C    0.041040
     6  O   -0.273773
     7  C   -0.058752
     8  C   -0.257321
     9  C   -0.076705
    10  H    0.284153
    11  H    0.087943
    12  H    0.098309
    13  H    0.100355
    14  H    0.078453
    15  H    0.099363
    16  H    0.102474
    17  H    0.102418
    18  H    0.107731
    19  H    0.094850
 Sum of Mulliken charges =   0.00000

 Dipole moment (field-independent basis, Debye):
    X=             -1.0900    Y=              0.3477    Z=              0.7100  Tot=              1.3465
 Quadrupole moment (field-independent basis, Debye-Ang):
   XX=            -49.2596   YY=            -54.6408   ZZ=            -53.2115
   XY=             -4.1927   XZ=              3.8796   YZ=             -1.1213

  Exact polarizability:  78.319  -4.551  73.515   1.753  -0.390  69.762
 Approx polarizability: 109.191  -3.962 109.513   2.912   0.600 106.402

                      1                      2                      3
                      A                      A                      A
 Frequencies --    175.8496               204.7828               269.8119
 Red. masses --      2.8489                 3.5482                 1.9786
 Frc consts  --      0.0519                 0.0877                 0.0849
 IR Inten    --      4.9495                 1.1444                 7.5791

                      4                      5                      6
                      A                      A                      A
 Frequencies --    311.6500               356.1137               401.3672
 Red. masses --      1.9240                 1.6302                 3.1264
 Frc consts  --      0.1101                 0.1218                 0.2967
 IR Inten    --     20.2065                73.4482                 4.5588

                      7                      8                      9
                      A                      A                      A
 Frequencies --    452.1782               498.2816               529.0967
 Red. masses --      3.1351                 3.5132                 2.9716
 Frc consts  --      0.3777                 0.5139                 0.4901
 IR Inten    --      2.4808                 0.3366                 5.3060

                     10                     11                     12
                      A                      A                      A
 Frequencies --    613.0596               668.7498               782.8838
 Red. masses --      2.8551                 3.9428                 2.4313
 Frc consts  --      0.6322                 1.0389                 0.8780
 IR Inten    --      8.0879                 9.4100                 1.0964

                     13                     14                     15
                      A                      A                      A
 Frequencies --    785.3567               812.0432               880.2429
 Red. masses --      3.5626                 1.9716                 2.8486
 Frc consts  --      1.2946                 0.7660                 1.3004
 IR Inten    --      2.0655                10.9142                 9.0770

                     16                     17                     18
                      A                      A                      A
 Frequencies --    899.0471               935.6108               967.6423
 Red. masses --      1.7431                 2.4761                 2.1199
 Frc consts  --      0.8301                 1.2771                 1.1695
 IR Inten    --      3.4419                10.6147                12.4668

                     19                     20                     21
                      A                      A                      A
 Frequencies --    974.2968              1008.7996              1026.4024
 Red. masses --      2.0956                 2.0528                 1.5661
 Frc consts  --      1.1720                 1.2309                 0.9721
 IR Inten    --      2.4100                11.9854                 1.9448

                     22                     23                     24
                      A                      A                      A
 Frequencies --   1071.2870              1081.6493              1110.5790
 Red. masses --      2.1574                 2.4108                 2.0529
 Frc consts  --      1.4588                 1.6619                 1.4918
 IR Inten    --     21.1956                 7.8111                 8.0121

                     25                     26                     27
                      A                      A                      A
 Frequencies --   1121.8704              1150.6383              1189.6599
 Red. masses --      3.1738                 1.4534                 1.4793
 Frc consts  --      2.3535                 1.1338                 1.2336
 IR Inten    --     82.4985                13.7283                20.2280

                     28                     29                     30
                      A                      A                      A
 Frequencies --   1194.7255              1219.3203              1254.3621
 Red. masses --      1.5806                 1.9317                 1.5415
 Frc consts  --      1.3293                 1.6921                 1.4290
 IR Inten    --     33.4389                32.7071                20.1742

                     31                     32                     33
                      A                      A                      A
 Frequencies --   1276.3582              1279.6356              1312.7299
 Red. masses --      1.3230                 1.5465                 1.9164
 Frc consts  --      1.2698                 1.4920                 1.9458
 IR Inten    --     21.1118                 7.3557                83.4192

                     34                     35                     36
                      A                      A                      A
 Frequencies --   1341.1093              1358.9380              1367.1056
 Red. masses --      1.3153                 1.4607                 1.3048
 Frc consts  --      1.3938                 1.5893                 1.4368
 IR Inten    --     12.5243                23.6196                 8.7753

                     37                     38                     39
                      A                      A                      A
 Frequencies --   1417.5150              1470.9282              1479.7259
 Red. masses --      1.3187                 1.4356                 1.4338
 Frc consts  --      1.5612                 1.8301                 1.8497
 IR Inten    --      6.2780                 7.2377                 5.4525

                     40                     41                     42
                      A                      A                      A
 Frequencies --   1504.4398              1509.6704              2983.2981
 Red. masses --      1.2834                 1.1516                 1.0704
 Frc consts  --      1.7115                 1.5464                 5.6128
 IR Inten    --     17.8832                 6.6598                55.7816

                     43                     44                     45
                      A                      A                      A
 Frequencies --   3040.0080              3054.2777              3065.8323
 Red. masses --      1.0615                 1.0610                 1.0856
 Frc consts  --      5.7797                 5.8318                 6.0118
 IR Inten    --     18.7105                38.7055                38.0710

                     46                     47                     48
                      A                      A                      A
 Frequencies --   3078.0261              3083.2964              3105.9900
 Red. masses --      1.0920                 1.1032                 1.1072
 Frc consts  --      6.0956                 6.1795                 6.2930
 IR Inten    --     47.0228                30.0942                30.7247

                     49                     50                     51
                      A                      A                      A
 Frequencies --   3162.9082              3191.5478              3790.8686
 Red. masses --      1.0878                 1.0931                 1.0659
 Frc consts  --      6.4117                 6.5603                 9.0252
 IR Inten    --      6.9148                17.7910                18.9571

 - Thermochemistry -
 -------------------
 Temperature   298.150 Kelvin.  Pressure   1.00000 Atm.
 Atom     1 has atomic number  8 and mass  15.99491

 Molecular mass:   126.06808 amu.
 Principal axes and moments of inertia in atomic units:
                           1         2         3
     Eigenvalues --   759.323331048.143571076.85046
           X            0.99639  -0.07739   0.03478
           Y            0.08009   0.99320  -0.08454
           Z           -0.02801   0.08703   0.99581
 This molecule is an asymmetric top.
 Rotational symmetry number  1.
 Warning -- assumption of classical behavior for rotation
           may cause significant error
 Rotational temperatures (Kelvin)      0.11407     0.08264     0.08043
 Rotational constants (GHZ):           2.37678     1.72185     1.67594
 Zero-point vibrational energy     423607.0 (Joules/Mol)
                                  101.24451 (Kcal/Mol)
 Warning -- explicit consideration of  10 degrees of freedom as
           vibrations may cause significant error
 Vibrational temperatures:    253.01   294.64   388.20   448.39   512.37
          (Kelvin)            577.48   650.58   716.92   761.25   882.05
                              962.18  1126.39  1129.95  1168.35  1266.47
                             1293.53  1346.13  1392.22  1401.79  1451.44
                             1476.76  1541.34  1556.25  1597.87  1614.12
                             1655.51  1711.65  1718.94  1754.33  1804.75
                             1836.39  1841.11  1888.72  1929.55  1955.21
                             1966.96  2039.49  2116.33  2128.99  2164.55
                             2172.08  4292.30  4373.89  4394.42  4411.04
                             4428.59  4436.17  4468.82  4550.71  4591.92
                             5454.21

 Zero-point correction=                           0.161343 (Hartree/Particle)
 Thermal correction to Energy=                    0.168653
 Thermal correction to Enthalpy=                  0.169597
 Thermal correction to Gibbs Free Energy=         0.130120
 Sum of electronic and zero-point Energies=           -422.994588
 Sum of electronic and thermal Energies=              -422.987279
 Sum of electronic and thermal Enthalpies=            -422.986335
 Sum of electronic and thermal Free Energies=         -423.025811

                     E (Thermal)             CV                S
                      KCal/Mol        Cal/Mol-Kelvin    Cal/Mol-Kelvin
 Total                  105.831             30.170             83.086
 Electronic               0.000              0.000              0.000
 Translational            0.889              2.981             40.409
 Rotational               0.889              2.981             28.240
 Vibrational            104.054             24.208             14.437
 Vibration     1          0.628              1.872              2.372
 Vibration     2          0.640              1.833              2.090
 Vibration     3          0.674              1.729              1.597
 Vibration     4          0.700              1.651              1.354
 Vibration     5          0.732              1.563              1.139
 Vibration     6          0.767              1.467              0.958
 Vibration     7          0.811              1.356              0.789
 Vibration     8          0.854              1.254              0.662
 Vibration     9          0.884              1.186              0.589
 Vibration    10          0.972              1.004              0.428

 Optimization completed.
    -- Stationary point found.
 Normal termination of Gaussian 09 at Mon Jan 27 17:48:01 2020.
