 Gaussian 09, Revision D.01,
 Gaussian 09:  ES64L-G09RevD.01 24-Apr-2013

 -----------------------------
 # b3lyp 6-31G(2df,p) opt Freq
 -----------------------------

 -----
 titel
 -----
 Symbolic Z-matrix:
 Charge =  0 Multiplicity = 1

 SCF Done:  E(RB3LYP) =  -423.165972030     A.U. after   14 cycles
 Optimization completed.
    -- Stationary point found.
 Normal termination of Gaussian 09 at Mon Jan 27 12:56:22 2020.

 ----------------------------------------------------------------------
 #N Geom=AllCheck Guess=TCheck SCRF=Check GenChk RB3LYP/6-31G(2df,p) Fr
 eq
 ----------------------------------------------------------------------

 Structure from the checkpoint file:  "/scratch/puck/g09_c6a43f7d-de24-403a-925b-d9430cf98234/Gau-53911.chk"
 -----
 titel
 -----
 Charge =  0 Multiplicity = 1

                         Standard orientation:
 ---------------------------------------------------------------------
 Center     Atomic      Atomic             Coordinates (Angstroms)
 Number     Number       Type             X           Y           Z
 ---------------------------------------------------------------------
      1          8           0       -0.468512    1.433106   -0.559659
      2          6           0       -0.348198    0.409459    0.082769
      3          6           0       -1.502258   -0.497910    0.342546
      4          6           0       -2.869195    0.149837    0.530632
      5          6           0       -2.580127   -0.585476   -0.730138
      6          6           0        0.985341   -0.034861    0.653320
      7          6           0        2.221606    0.788616    0.257727
      8          8           0        2.797213   -0.330224   -0.456870
      9          6           0        1.694058   -1.184617   -0.121754
     10          1           0       -1.293263   -1.393975    0.916664
     11          1           0       -3.529259   -0.299268    1.263558
     12          1           0       -2.880640    1.232723    0.486649
     13          1           0       -3.036691   -1.555139   -0.891268
     14          1           0       -2.397421    0.003886   -1.621169
     15          1           0        0.872906   -0.237124    1.722006
     16          1           0        2.000671    1.634131   -0.400581
     17          1           0        2.860507    1.115071    1.086246
     18          1           0        1.165693   -1.551775   -1.010970
     19          1           0        2.000526   -2.041877    0.490481
 ---------------------------------------------------------------------

 SCF Done:  E(RB3LYP) =  -423.165972030     A.U. after    1 cycles

 The electronic state is 1-A.
 Alpha  occ. eigenvalues --  -19.13310 -19.12969 -10.27088 -10.24113 -10.22837
 Alpha  occ. eigenvalues --  -10.20579 -10.20314 -10.20240 -10.20172  -1.04490
 Alpha  occ. eigenvalues --   -1.03495  -0.86913  -0.77213  -0.69532  -0.66358
 Alpha  occ. eigenvalues --   -0.61141  -0.57522  -0.53413  -0.52276  -0.50410
 Alpha  occ. eigenvalues --   -0.47720  -0.45858  -0.44435  -0.41282  -0.40624
 Alpha  occ. eigenvalues --   -0.39594  -0.38916  -0.36981  -0.33549  -0.31783
 Alpha  occ. eigenvalues --   -0.30822  -0.29837  -0.25124  -0.24875
 Alpha virt. eigenvalues --   -0.02050   0.07288   0.08314   0.10126   0.11088
 Alpha virt. eigenvalues --    0.12124   0.13527   0.14086   0.16368   0.16631
 Alpha virt. eigenvalues --    0.17159   0.18371   0.19920   0.21471   0.22239

 Mulliken charges:
               1
     1  O   -0.333947
     2  C    0.375469
     3  C   -0.105548
     4  C   -0.248400
     5  C   -0.249225
     6  C   -0.160715
     7  C   -0.089322
     8  O   -0.268325
     9  C   -0.074183
    10  H    0.088440
    11  H    0.120437
    12  H    0.140747
    13  H    0.120429
    14  H    0.141788
    15  H    0.099904
    16  H    0.129588
    17  H    0.099143
    18  H    0.109485
    19  H    0.104234
 Sum of Mulliken charges =   0.00000

 Dipole moment (field-independent basis, Debye):
    X=             -1.7859    Y=             -1.9849    Z=              2.1002  Tot=              3.3971
 Quadrupole moment (field-independent basis, Debye-Ang):
   XX=            -56.4922   YY=            -53.4093   ZZ=            -52.2988
   XY=              3.1377   XZ=              2.2526   YZ=              1.2078

  Exact polarizability:  91.933   2.936  74.046   2.296  -0.841  64.363
 Approx polarizability: 114.931   2.051 115.357   1.550  -5.982 100.661

                      1                      2                      3
                      A                      A                      A
 Frequencies --     34.3732                55.7689                76.8585
 Red. masses --      4.3757                 2.9372                 3.6895
 Frc consts  --      0.0030                 0.0054                 0.0128
 IR Inten    --      0.5921                 0.5784                 4.5265

                      4                      5                      6
                      A                      A                      A
 Frequencies --    158.8009               226.8410               273.7147
 Red. masses --      3.3340                 2.8611                 3.1408
 Frc consts  --      0.0495                 0.0867                 0.1386
 IR Inten    --      1.1416                 1.5992                 2.5730

                      7                      8                      9
                      A                      A                      A
 Frequencies --    313.9990               371.5279               599.1576
 Red. masses --      3.6058                 3.8109                 3.3121
 Frc consts  --      0.2095                 0.3099                 0.7005
 IR Inten    --     11.4042                 2.7492                 1.9897

                     10                     11                     12
                      A                      A                      A
 Frequencies --    719.0868               755.9825               802.2641
 Red. masses --      3.1352                 2.0421                 1.3135
 Frc consts  --      0.9551                 0.6876                 0.4981
 IR Inten    --      3.9567                 3.5370                 0.5113

                     13                     14                     15
                      A                      A                      A
 Frequencies --    826.3184               829.4880               880.3225
 Red. masses --      3.0980                 2.0316                 1.4521
 Frc consts  --      1.2463                 0.8236                 0.6630
 IR Inten    --      7.3666                 5.6485                 2.4757

                     16                     17                     18
                      A                      A                      A
 Frequencies --    886.7136               896.6925               954.6156
 Red. masses --      2.2591                 2.4166                 3.7174
 Frc consts  --      1.0466                 1.1448                 1.9959
 IR Inten    --     11.8631                13.8342                11.2649

                     19                     20                     21
                      A                      A                      A
 Frequencies --   1017.5516              1033.8624              1050.2306
 Red. masses --      3.4177                 4.7904                 4.3599
 Frc consts  --      2.0849                 3.0168                 2.8333
 IR Inten    --     74.6120                21.8727               100.9766

                     22                     23                     24
                      A                      A                      A
 Frequencies --   1066.2651              1092.4699              1101.5747
 Red. masses --      1.2742                 1.4520                 1.6332
 Frc consts  --      0.8536                 1.0210                 1.1677
 IR Inten    --      4.4951                 6.5840                 0.8036

                     25                     26                     27
                      A                      A                      A
 Frequencies --   1116.6456              1128.8708              1135.4462
 Red. masses --      1.6221                 1.1408                 1.9896
 Frc consts  --      1.1917                 0.8565                 1.5113
 IR Inten    --     14.5397                 1.0421                63.4324

                     28                     29                     30
                      A                      A                      A
 Frequencies --   1162.2832              1167.8099              1211.0207
 Red. masses --      1.1631                 1.0893                 1.3473
 Frc consts  --      0.9258                 0.8753                 1.1641
 IR Inten    --      5.5386                 5.6243                 0.2738

                     31                     32                     33
                      A                      A                      A
 Frequencies --   1223.1121              1228.3515              1307.8655
 Red. masses --      2.0236                 1.4117                 1.2675
 Frc consts  --      1.7836                 1.2550                 1.2774
 IR Inten    --     10.2297                 6.0412                 2.5040

                     34                     35                     36
                      A                      A                      A
 Frequencies --   1341.3214              1376.1874              1410.1529
 Red. masses --      1.5786                 1.5020                 2.0512
 Frc consts  --      1.6733                 1.6760                 2.4032
 IR Inten    --      4.0783                 6.7778                89.5639

                     37                     38                     39
                      A                      A                      A
 Frequencies --   1454.1009              1485.1048              1510.9383
 Red. masses --      1.0887                 1.3541                 1.0774
 Frc consts  --      1.3563                 1.7596                 1.4492
 IR Inten    --      2.7250                 9.9525                 0.8589

                     40                     41                     42
                      A                      A                      A
 Frequencies --   1536.2818              1782.0846              3007.8547
 Red. masses --      1.1065                10.7312                 1.0534
 Frc consts  --      1.5386                20.0796                 5.6152
 IR Inten    --      3.0327               105.9913                80.6656

                     43                     44                     45
                      A                      A                      A
 Frequencies --   3032.0521              3049.1650              3074.6908
 Red. masses --      1.0607                 1.1098                 1.0876
 Frc consts  --      5.7451                 6.0791                 6.0582
 IR Inten    --     46.9843                33.8171                11.4844

                     46                     47                     48
                      A                      A                      A
 Frequencies --   3093.7682              3142.2275              3143.6445
 Red. masses --      1.1055                 1.0494                 1.0574
 Frc consts  --      6.2345                 6.1045                 6.1571
 IR Inten    --     24.9272                13.0776                10.1108

                     49                     50                     51
                      A                      A                      A
 Frequencies --   3169.0400              3230.1628              3244.5712
 Red. masses --      1.0897                 1.1189                 1.1169
 Frc consts  --      6.4475                 6.8785                 6.9278
 IR Inten    --      9.3980                 0.3317                 4.8506

 - Thermochemistry -
 -------------------
 Temperature   298.150 Kelvin.  Pressure   1.00000 Atm.
 Atom     1 has atomic number  8 and mass  15.99491

 Molecular mass:   126.06808 amu.
 Principal axes and moments of inertia in atomic units:
                           1         2         3
     Eigenvalues --   436.460791909.256742078.64943
           X            0.99992   0.01060   0.00686
           Y           -0.01075   0.99972   0.02126
           Z           -0.00663  -0.02133   0.99975
 This molecule is an asymmetric top.
 Rotational symmetry number  1.
 Warning -- assumption of classical behavior for rotation
           may cause significant error
 Rotational temperatures (Kelvin)      0.19845     0.04537     0.04167
 Rotational constants (GHZ):           4.13494     0.94526     0.86823
 Zero-point vibrational energy     417432.3 (Joules/Mol)
                                   99.76872 (Kcal/Mol)
 Warning -- explicit consideration of   9 degrees of freedom as
           vibrations may cause significant error
 Vibrational temperatures:     49.46    80.24   110.58   228.48   326.37
          (Kelvin)            393.81   451.77   534.55   862.05  1034.60
                             1087.69  1154.28  1188.89  1193.45  1266.59
                             1275.78  1290.14  1373.48  1464.03  1487.50
                             1511.05  1534.12  1571.82  1584.92  1606.60
                             1624.19  1633.65  1672.26  1680.22  1742.39
                             1759.78  1767.32  1881.72  1929.86  1980.02
                             2028.89  2092.12  2136.73  2173.90  2210.36
                             2564.02  4327.63  4362.44  4387.06  4423.79
                             4451.24  4520.96  4523.00  4559.54  4647.48
                             4668.21

 Zero-point correction=                           0.158992 (Hartree/Particle)
 Thermal correction to Energy=                    0.167814
 Thermal correction to Enthalpy=                  0.168758
 Thermal correction to Gibbs Free Energy=         0.123619
 Sum of electronic and zero-point Energies=           -423.006980
 Sum of electronic and thermal Energies=              -422.998158
 Sum of electronic and thermal Enthalpies=            -422.997214
 Sum of electronic and thermal Free Energies=         -423.042353

                     E (Thermal)             CV                S
                      KCal/Mol        Cal/Mol-Kelvin    Cal/Mol-Kelvin
 Total                  105.305             31.398             95.002
 Electronic               0.000              0.000              0.000
 Translational            0.889              2.981             40.409
 Rotational               0.889              2.981             28.939
 Vibrational            103.527             25.436             25.654
 Vibration     1          0.594              1.983              5.560
 Vibration     2          0.596              1.975              4.602
 Vibration     3          0.599              1.965              3.970
 Vibration     4          0.621              1.893              2.564
 Vibration     5          0.651              1.800              1.904
 Vibration     6          0.676              1.722              1.573
 Vibration     7          0.702              1.647              1.341
 Vibration     8          0.743              1.531              1.073
 Vibration     9          0.957              1.034              0.451

 Optimization completed.
    -- Stationary point found.
 Normal termination of Gaussian 09 at Mon Jan 27 13:38:44 2020.
