 Gaussian 09, Revision D.01,
 Gaussian 09:  ES64L-G09RevD.01 24-Apr-2013

 -----------------------------
 # b3lyp 6-31G(2df,p) opt Freq
 -----------------------------

 -----
 titel
 -----
 Symbolic Z-matrix:
 Charge =  0 Multiplicity = 1

 SCF Done:  E(RB3LYP) =  -423.163560861     A.U. after   13 cycles
 Optimization completed.
    -- Stationary point found.
 Normal termination of Gaussian 09 at Mon Jan 27 17:39:01 2020.

 ----------------------------------------------------------------------
 #N Geom=AllCheck Guess=TCheck SCRF=Check GenChk RB3LYP/6-31G(2df,p) Fr
 eq
 ----------------------------------------------------------------------

 Structure from the checkpoint file:  "/scratch/puck/g09_48ae3fca-4828-4f1c-8dce-2874f0bdcdc7/Gau-51507.chk"
 -----
 titel
 -----
 Charge =  0 Multiplicity = 1

                         Standard orientation:
 ---------------------------------------------------------------------
 Center     Atomic      Atomic             Coordinates (Angstroms)
 Number     Number       Type             X           Y           Z
 ---------------------------------------------------------------------
      1          6           0       -1.729047    1.516959   -0.416239
      2          6           0       -1.121561    0.237089    0.077898
      3          6           0       -1.876854   -1.051518    0.243586
      4          6           0       -0.676484   -1.036366   -0.664689
      5          6           0        0.579294   -1.143629    0.204423
      6          8           0        1.796469   -0.782160   -0.416421
      7          6           0        1.810203    0.624600   -0.488304
      8          8           0        1.141491    1.101358    0.660499
      9          6           0        0.131517    0.158547    0.967448
     10          1           0       -2.436773    1.330202   -1.230360
     11          1           0       -2.272662    2.031578    0.385091
     12          1           0       -0.957605    2.201851   -0.781925
     13          1           0       -1.847610   -1.601685    1.183357
     14          1           0       -2.839582   -1.090980   -0.256519
     15          1           0       -0.735135   -1.286048   -1.717638
     16          1           0        0.742580   -2.079279    0.744646
     17          1           0        2.845864    0.974637   -0.470503
     18          1           0        1.305622    0.973397   -1.404990
     19          1           0       -0.010782    0.158658    2.051471
 ---------------------------------------------------------------------

 SCF Done:  E(RB3LYP) =  -423.163560861     A.U. after    1 cycles

 The electronic state is 1-A.
 Alpha  occ. eigenvalues --  -19.14876 -19.14797 -10.27224 -10.23627 -10.23469
 Alpha  occ. eigenvalues --  -10.20047 -10.19284 -10.19258 -10.18110  -1.09050
 Alpha  occ. eigenvalues --   -0.99695  -0.89776  -0.74499  -0.72145  -0.64524
 Alpha  occ. eigenvalues --   -0.64120  -0.58150  -0.54270  -0.51466  -0.50283
 Alpha  occ. eigenvalues --   -0.47783  -0.45095  -0.43748  -0.41774  -0.41094
 Alpha  occ. eigenvalues --   -0.40131  -0.38396  -0.37729  -0.32974  -0.32383
 Alpha  occ. eigenvalues --   -0.30599  -0.26465  -0.26169  -0.25252
 Alpha virt. eigenvalues --    0.09338   0.10400   0.11158   0.11999   0.12112
 Alpha virt. eigenvalues --    0.13123   0.13657   0.14983   0.15944   0.17096
 Alpha virt. eigenvalues --    0.17355   0.18900   0.19956   0.20749   0.21638

 Mulliken charges:
               1
     1  C   -0.503289
     2  C    0.333655
     3  C   -0.347192
     4  C   -0.143879
     5  C    0.089694
     6  O   -0.256130
     7  C    0.006081
     8  O   -0.254941
     9  C    0.018021
    10  H    0.117724
    11  H    0.122933
    12  H    0.128634
    13  H    0.105231
    14  H    0.116375
    15  H    0.092426
    16  H    0.085750
    17  H    0.120397
    18  H    0.088571
    19  H    0.079939
 Sum of Mulliken charges =   0.00000

 Dipole moment (field-independent basis, Debye):
    X=             -1.4917    Y=             -0.0864    Z=             -0.3861  Tot=              1.5433
 Quadrupole moment (field-independent basis, Debye-Ang):
   XX=            -53.2328   YY=            -54.6342   ZZ=            -51.9544
   XY=              1.6174   XZ=             -0.4322   YZ=             -2.5954

  Exact polarizability:  82.536   2.786  73.686  -1.719  -2.604  66.361
 Approx polarizability: 112.415   3.420 109.811  -4.436   0.715 102.893

                      1                      2                      3
                      A                      A                      A
 Frequencies --    129.8836               178.8113               194.0763
 Red. masses --      3.9455                 1.3659                 1.6582
 Frc consts  --      0.0392                 0.0257                 0.0368
 IR Inten    --      0.3786                 0.1279                 0.4010

                      4                      5                      6
                      A                      A                      A
 Frequencies --    257.8454               322.6608               346.7309
 Red. masses --      2.7155                 2.4428                 2.6673
 Frc consts  --      0.1064                 0.1498                 0.1889
 IR Inten    --      5.8351                 1.5617                 3.6531

                      7                      8                      9
                      A                      A                      A
 Frequencies --    437.9738               509.6811               561.3820
 Red. masses --      3.1371                 4.6579                 4.1305
 Frc consts  --      0.3546                 0.7129                 0.7670
 IR Inten    --      0.4093                 4.7513                 0.8855

                     10                     11                     12
                      A                      A                      A
 Frequencies --    721.6845               746.2629               806.6987
 Red. masses --      3.7702                 8.1246                 2.6369
 Frc consts  --      1.1569                 2.6658                 1.0110
 IR Inten    --      7.9499                 0.4129                 6.8909

                     13                     14                     15
                      A                      A                      A
 Frequencies --    837.5010               847.8357               908.9772
 Red. masses --      1.6854                 2.0519                 2.1414
 Frc consts  --      0.6965                 0.8690                 1.0425
 IR Inten    --     14.4301                 7.6335                 0.4252

                     16                     17                     18
                      A                      A                      A
 Frequencies --    929.6510               967.4843               980.6481
 Red. masses --      4.4063                 1.7111                 2.0072
 Frc consts  --      2.2437                 0.9437                 1.1373
 IR Inten    --      9.6703                17.9895                40.3186

                     19                     20                     21
                      A                      A                      A
 Frequencies --    999.5209              1032.2718              1033.6492
 Red. masses --      1.9164                 1.7311                 2.1298
 Frc consts  --      1.1281                 1.0868                 1.3407
 IR Inten    --      9.2918                23.6353                 7.2189

                     22                     23                     24
                      A                      A                      A
 Frequencies --   1054.2913              1090.2308              1108.1214
 Red. masses --      2.5657                 1.6827                 1.7211
 Frc consts  --      1.6802                 1.1784                 1.2452
 IR Inten    --      5.9502                 2.6284                 6.9595

                     25                     26                     27
                      A                      A                      A
 Frequencies --   1116.3313              1125.4102              1183.9195
 Red. masses --      3.5934                 2.8662                 2.0834
 Frc consts  --      2.6384                 2.1388                 1.7206
 IR Inten    --     84.6901                39.0202               110.0379

                     28                     29                     30
                      A                      A                      A
 Frequencies --   1216.6269              1223.6598              1237.4056
 Red. masses --      1.2900                 1.8788                 1.2177
 Frc consts  --      1.1250                 1.6575                 1.0985
 IR Inten    --      0.0992                 3.2190                 0.3086

                     31                     32                     33
                      A                      A                      A
 Frequencies --   1264.4755              1288.9992              1341.7378
 Red. masses --      1.7908                 2.3899                 1.3001
 Frc consts  --      1.6870                 2.3395                 1.3790
 IR Inten    --      4.2799                 1.1355                 6.2107

                     34                     35                     36
                      A                      A                      A
 Frequencies --   1354.0936              1382.1312              1420.7961
 Red. masses --      1.3368                 2.0042                 1.5516
 Frc consts  --      1.4442                 2.2557                 1.8454
 IR Inten    --     21.5882                 4.5247                 3.1153

                     37                     38                     39
                      A                      A                      A
 Frequencies --   1431.9760              1482.2166              1497.3630
 Red. masses --      1.2940                 1.0451                 1.1937
 Frc consts  --      1.5634                 1.3528                 1.5769
 IR Inten    --      7.9766                 3.4584                 5.7062

                     40                     41                     42
                      A                      A                      A
 Frequencies --   1500.9121              1540.3418              2958.7978
 Red. masses --      1.1516                 1.0993                 1.0697
 Frc consts  --      1.5285                 1.5367                 5.5178
 IR Inten    --      2.7105                 1.4803                75.8540

                     43                     44                     45
                      A                      A                      A
 Frequencies --   3026.9174              3071.9166              3083.6966
 Red. masses --      1.0367                 1.0871                 1.0878
 Frc consts  --      5.5961                 6.0443                 6.0946
 IR Inten    --     32.8709                28.6352                48.9008

                     46                     47                     48
                      A                      A                      A
 Frequencies --   3087.0384              3092.5994              3094.0564
 Red. masses --      1.0985                 1.0758                 1.0797
 Frc consts  --      6.1678                 6.0622                 6.0898
 IR Inten    --     20.6858                56.7506                27.4177

                     49                     50                     51
                      A                      A                      A
 Frequencies --   3105.5657              3180.3432              3192.7672
 Red. masses --      1.1011                 1.0962                 1.1069
 Frc consts  --      6.2568                 6.5325                 6.6480
 IR Inten    --     17.6552                 7.4138                14.1323

 - Thermochemistry -
 -------------------
 Temperature   298.150 Kelvin.  Pressure   1.00000 Atm.
 Atom     1 has atomic number  6 and mass  12.00000

 Molecular mass:   126.06808 amu.
 Principal axes and moments of inertia in atomic units:
                           1         2         3
     Eigenvalues --   618.194761053.659681343.74990
           X            0.99999  -0.00437   0.00068
           Y            0.00441   0.99808  -0.06174
           Z           -0.00041   0.06174   0.99809
 This molecule is an asymmetric top.
 Rotational symmetry number  1.
 Warning -- assumption of classical behavior for rotation
           may cause significant error
 Rotational temperatures (Kelvin)      0.14011     0.08220     0.06446
 Rotational constants (GHZ):           2.91937     1.71283     1.34306
 Zero-point vibrational energy     421719.3 (Joules/Mol)
                                  100.79334 (Kcal/Mol)
 Warning -- explicit consideration of   9 degrees of freedom as
           vibrations may cause significant error
 Vibrational temperatures:    186.87   257.27   279.23   370.98   464.24
          (Kelvin)            498.87   630.15   733.32   807.70  1038.34
                             1073.70  1160.66  1204.98  1219.84  1307.81
                             1337.56  1391.99  1410.93  1438.09  1485.21
                             1487.19  1516.89  1568.60  1594.34  1606.15
                             1619.21  1703.39  1750.45  1760.57  1780.35
                             1819.30  1854.58  1930.46  1948.24  1988.58
                             2044.21  2060.29  2132.58  2154.37  2159.48
                             2216.21  4257.04  4355.05  4419.80  4436.75
                             4441.55  4449.56  4451.65  4468.21  4575.80
                             4593.67

 Zero-point correction=                           0.160624 (Hartree/Particle)
 Thermal correction to Energy=                    0.168174
 Thermal correction to Enthalpy=                  0.169118
 Thermal correction to Gibbs Free Energy=         0.128838
 Sum of electronic and zero-point Energies=           -423.002936
 Sum of electronic and thermal Energies=              -422.995387
 Sum of electronic and thermal Enthalpies=            -422.994443
 Sum of electronic and thermal Free Energies=         -423.034723

                     E (Thermal)             CV                S
                      KCal/Mol        Cal/Mol-Kelvin    Cal/Mol-Kelvin
 Total                  105.531             29.820             84.776
 Electronic               0.000              0.000              0.000
 Translational            0.889              2.981             40.409
 Rotational               0.889              2.981             28.261
 Vibrational            103.753             23.858             16.107
 Vibration     1          0.612              1.923              2.948
 Vibration     2          0.629              1.868              2.341
 Vibration     3          0.635              1.848              2.189
 Vibration     4          0.667              1.750              1.676
 Vibration     5          0.708              1.630              1.297
 Vibration     6          0.725              1.582              1.181
 Vibration     7          0.798              1.387              0.833
 Vibration     8          0.865              1.229              0.634
 Vibration     9          0.917              1.115              0.521

 Optimization completed.
    -- Stationary point found.
 Normal termination of Gaussian 09 at Mon Jan 27 18:24:06 2020.
