 Gaussian 09, Revision D.01,
 Gaussian 09:  ES64L-G09RevD.01 24-Apr-2013

 -----------------------------
 # b3lyp 6-31G(2df,p) opt Freq
 -----------------------------

 -----
 titel
 -----
 Symbolic Z-matrix:
 Charge =  0 Multiplicity = 1

 SCF Done:  E(RB3LYP) =  -423.145408833     A.U. after   13 cycles
 Optimization completed.
    -- Stationary point found.
 Normal termination of Gaussian 09 at Tue Jan 28 02:55:04 2020.

 ----------------------------------------------------------------------
 #N Geom=AllCheck Guess=TCheck SCRF=Check GenChk RB3LYP/6-31G(2df,p) Fr
 eq
 ----------------------------------------------------------------------

 Structure from the checkpoint file:  "/scratch/puck/g09_1d6a1e02-2e83-4d0d-9e2b-d07038f822c3/Gau-65385.chk"
 -----
 titel
 -----
 Charge =  0 Multiplicity = 1

                         Standard orientation:
 ---------------------------------------------------------------------
 Center     Atomic      Atomic             Coordinates (Angstroms)
 Number     Number       Type             X           Y           Z
 ---------------------------------------------------------------------
      1          6           0       -2.605468   -0.206506   -0.381303
      2          6           0       -1.174747   -0.688094   -0.216683
      3          8           0       -0.791544   -0.586632    1.171723
      4          6           0        0.543783   -0.150429    1.207084
      5          6           0        0.869279    1.173848    0.526844
      6          8           0       -0.186450    1.505810   -0.375758
      7          6           0       -0.112964    0.151686   -0.923305
      8          6           0        1.198390   -0.140603   -0.146371
      9          6           0        2.448857   -0.813094   -0.622712
     10          1           0       -2.942285   -0.354455   -1.412639
     11          1           0       -3.270804   -0.767820    0.279863
     12          1           0       -2.669093    0.854561   -0.131600
     13          1           0       -1.081829   -1.739273   -0.541061
     14          1           0        1.085782   -0.448236    2.097768
     15          1           0        1.477191    1.978791    0.925800
     16          1           0       -0.121411    0.140043   -2.014902
     17          1           0        2.860657   -0.318013   -1.509300
     18          1           0        3.219103   -0.796616    0.154941
     19          1           0        2.263861   -1.863247   -0.877923
 ---------------------------------------------------------------------

 SCF Done:  E(RB3LYP) =  -423.145408833     A.U. after    1 cycles

 The electronic state is 1-A.
 Alpha  occ. eigenvalues --  -19.13879 -19.13832 -10.24030 -10.23562 -10.23330
 Alpha  occ. eigenvalues --  -10.23315 -10.19930 -10.19115 -10.17118  -1.07421
 Alpha  occ. eigenvalues --   -1.01284  -0.83382  -0.77231  -0.71886  -0.68916
 Alpha  occ. eigenvalues --   -0.61407  -0.57014  -0.54357  -0.51121  -0.49942
 Alpha  occ. eigenvalues --   -0.46021  -0.42801  -0.42682  -0.41093  -0.40460
 Alpha  occ. eigenvalues --   -0.39989  -0.38530  -0.36877  -0.35613  -0.33053
 Alpha  occ. eigenvalues --   -0.31435  -0.29822  -0.24633  -0.21431
 Alpha virt. eigenvalues --    0.07004   0.09717   0.10847   0.12178   0.12535
 Alpha virt. eigenvalues --    0.13518   0.14891   0.15442   0.15975   0.16346
 Alpha virt. eigenvalues --    0.17003   0.18467   0.18692   0.20439   0.22128

 Mulliken charges:
               1
     1  C   -0.406960
     2  C    0.146903
     3  O   -0.282589
     4  C    0.026021
     5  C    0.010908
     6  O   -0.299848
     7  C   -0.002907
     8  C    0.216153
     9  C   -0.518944
    10  H    0.109197
    11  H    0.126115
    12  H    0.143252
    13  H    0.066134
    14  H    0.103570
    15  H    0.102443
    16  H    0.082483
    17  H    0.126187
    18  H    0.126307
    19  H    0.125574
 Sum of Mulliken charges =   0.00000

 Dipole moment (field-independent basis, Debye):
    X=              1.6587    Y=             -1.1206    Z=             -0.9385  Tot=              2.2109
 Quadrupole moment (field-independent basis, Debye-Ang):
   XX=            -50.2173   YY=            -55.3236   ZZ=            -52.2282
   XY=              1.1925   XZ=              3.1890   YZ=              2.5014

  Exact polarizability:  84.748   1.448  68.391   3.413   3.063  70.257
 Approx polarizability: 107.452   1.858 107.496   3.545   3.211 109.166

                      1                      2                      3
                      A                      A                      A
 Frequencies --    140.1437               180.7919               210.5129
 Red. masses --      3.0356                 1.0435                 2.3521
 Frc consts  --      0.0351                 0.0201                 0.0614
 IR Inten    --      1.5169                 0.0368                 0.4633

                      4                      5                      6
                      A                      A                      A
 Frequencies --    236.8015               245.3377               302.8957
 Red. masses --      1.4651                 1.7978                 3.4660
 Frc consts  --      0.0484                 0.0638                 0.1874
 IR Inten    --      0.2444                 1.0090                 2.7946

                      7                      8                      9
                      A                      A                      A
 Frequencies --    397.2752               500.3519               554.4376
 Red. masses --      4.1842                 3.3178                 3.4757
 Frc consts  --      0.3891                 0.4894                 0.6295
 IR Inten    --      4.1054                 2.3997                 3.7592

                     10                     11                     12
                      A                      A                      A
 Frequencies --    615.3834               659.8108               761.0293
 Red. masses --      3.5877                 3.7780                 3.6394
 Frc consts  --      0.8005                 0.9691                 1.2419
 IR Inten    --      2.2119                 1.6774                16.4152

                     13                     14                     15
                      A                      A                      A
 Frequencies --    784.7139               831.8344               867.4972
 Red. masses --      5.5950                 2.8250                 2.9566
 Frc consts  --      2.0299                 1.1517                 1.3109
 IR Inten    --     14.2105                19.8599                 7.4779

                     16                     17                     18
                      A                      A                      A
 Frequencies --    884.9409               918.1657               931.7319
 Red. masses --      2.1026                 2.0631                 1.8286
 Frc consts  --      0.9702                 1.0247                 0.9353
 IR Inten    --      7.1590                 6.0791                 7.3182

                     19                     20                     21
                      A                      A                      A
 Frequencies --    965.6827              1012.9980              1021.2198
 Red. masses --      1.8449                 1.9821                 2.0977
 Frc consts  --      1.0136                 1.1984                 1.2889
 IR Inten    --     42.8900                 3.8121                13.8557

                     22                     23                     24
                      A                      A                      A
 Frequencies --   1038.5365              1066.6762              1094.0492
 Red. masses --      2.4160                 1.6420                 2.1327
 Frc consts  --      1.5353                 1.1008                 1.5040
 IR Inten    --      2.8370                 3.3813                46.1979

                     25                     26                     27
                      A                      A                      A
 Frequencies --   1104.5617              1136.7874              1155.6931
 Red. masses --      3.0921                 2.3144                 2.2944
 Frc consts  --      2.2227                 1.7622                 1.8055
 IR Inten    --     63.6509                32.6001                 6.9132

                     28                     29                     30
                      A                      A                      A
 Frequencies --   1195.6447              1217.2356              1254.5880
 Red. masses --      1.5783                 2.0045                 1.7275
 Frc consts  --      1.3294                 1.7499                 1.6020
 IR Inten    --      1.2684                 1.8318                 6.0467

                     31                     32                     33
                      A                      A                      A
 Frequencies --   1277.8600              1304.6397              1354.2071
 Red. masses --      1.5572                 1.4961                 1.4046
 Frc consts  --      1.4982                 1.5004                 1.5176
 IR Inten    --      5.8948                 1.9416                 4.5935

                     34                     35                     36
                      A                      A                      A
 Frequencies --   1376.2100              1405.8549              1414.7907
 Red. masses --      1.5165                 1.3699                 1.2256
 Frc consts  --      1.6923                 1.5952                 1.4453
 IR Inten    --      8.8786                14.9096                 0.5584

                     37                     38                     39
                      A                      A                      A
 Frequencies --   1466.4514              1486.2266              1487.0544
 Red. masses --      3.8843                 1.0493                 1.0521
 Frc consts  --      4.9216                 1.3655                 1.3708
 IR Inten    --      6.4644                 1.3508                 8.1273

                     40                     41                     42
                      A                      A                      A
 Frequencies --   1497.1198              1501.6146              2951.4140
 Red. masses --      1.0719                 1.0590                 1.0826
 Frc consts  --      1.4156                 1.4069                 5.5562
 IR Inten    --      4.2701                 2.4706                60.3539

                     43                     44                     45
                      A                      A                      A
 Frequencies --   3023.0261              3045.7961              3083.0619
 Red. masses --      1.0358                 1.0364                 1.1010
 Frc consts  --      5.5773                 5.6645                 6.1662
 IR Inten    --     37.8877                20.7646                21.9245

                     46                     47                     48
                      A                      A                      A
 Frequencies --   3098.5719              3101.3492              3115.5513
 Red. masses --      1.0993                 1.0909                 1.0999
 Frc consts  --      6.2186                 6.1824                 6.2903
 IR Inten    --      7.4453                37.7073                21.7061

                     49                     50                     51
                      A                      A                      A
 Frequencies --   3141.3027              3170.6245              3184.1317
 Red. masses --      1.1020                 1.0915                 1.0939
 Frc consts  --      6.4068                 6.4647                 6.5345
 IR Inten    --     11.7013                14.6112                24.7671

 - Thermochemistry -
 -------------------
 Temperature   298.150 Kelvin.  Pressure   1.00000 Atm.
 Atom     1 has atomic number  6 and mass  12.00000

 Molecular mass:   126.06808 amu.
 Principal axes and moments of inertia in atomic units:
                           1         2         3
     Eigenvalues --   583.141611219.998211261.06907
           X            0.99986  -0.01547   0.00711
           Y            0.01206   0.93817   0.34597
           Z           -0.01202  -0.34583   0.93822
 This molecule is an asymmetric top.
 Rotational symmetry number  1.
 Warning -- assumption of classical behavior for rotation
           may cause significant error
 Rotational temperatures (Kelvin)      0.14853     0.07100     0.06868
 Rotational constants (GHZ):           3.09486     1.47930     1.43112
 Zero-point vibrational energy     417342.3 (Joules/Mol)
                                   99.74721 (Kcal/Mol)
 Warning -- explicit consideration of  10 degrees of freedom as
           vibrations may cause significant error
 Vibrational temperatures:    201.64   260.12   302.88   340.70   352.99
          (Kelvin)            435.80   571.59   719.89   797.71   885.40
                              949.32  1094.95  1129.03  1196.82  1248.13
                             1273.23  1321.03  1340.55  1389.40  1457.48
                             1469.31  1494.22  1534.71  1574.09  1589.22
                             1635.58  1662.78  1720.26  1751.33  1805.07
                             1838.55  1877.08  1948.40  1980.06  2022.71
                             2035.57  2109.89  2138.35  2139.54  2154.02
                             2160.49  4246.42  4349.45  4382.22  4435.83
                             4458.15  4462.14  4482.58  4519.63  4561.82
                             4581.25

 Zero-point correction=                           0.158957 (Hartree/Particle)
 Thermal correction to Energy=                    0.166855
 Thermal correction to Enthalpy=                  0.167799
 Thermal correction to Gibbs Free Energy=         0.126952
 Sum of electronic and zero-point Energies=           -422.986452
 Sum of electronic and thermal Energies=              -422.978554
 Sum of electronic and thermal Enthalpies=            -422.977610
 Sum of electronic and thermal Free Energies=         -423.018457

                     E (Thermal)             CV                S
                      KCal/Mol        Cal/Mol-Kelvin    Cal/Mol-Kelvin
 Total                  104.703             31.086             85.968
 Electronic               0.000              0.000              0.000
 Translational            0.889              2.981             40.409
 Rotational               0.889              2.981             28.286
 Vibrational            102.925             25.125             17.274
 Vibration     1          0.615              1.913              2.802
 Vibration     2          0.630              1.866              2.320
 Vibration     3          0.643              1.825              2.039
 Vibration     4          0.656              1.784              1.827
 Vibration     5          0.660              1.770              1.764
 Vibration     6          0.694              1.668              1.401
 Vibration     7          0.764              1.476              0.973
 Vibration     8          0.856              1.249              0.657
 Vibration     9          0.910              1.130              0.535
 Vibration    10          0.975              0.999              0.424

 Optimization completed.
    -- Stationary point found.
 Normal termination of Gaussian 09 at Tue Jan 28 03:52:55 2020.
