 Gaussian 09, Revision D.01,
 Gaussian 09:  ES64L-G09RevD.01 24-Apr-2013

 -----------------------------
 # b3lyp 6-31G(2df,p) opt Freq
 -----------------------------

 -----
 titel
 -----
 Symbolic Z-matrix:
 Charge =  0 Multiplicity = 1

 SCF Done:  E(RB3LYP) =  -423.199692213     A.U. after   14 cycles
 Optimization completed.
    -- Stationary point found.
 Normal termination of Gaussian 09 at Tue Jan 28 12:36:26 2020.

 ----------------------------------------------------------------------
 #N Geom=AllCheck Guess=TCheck SCRF=Check GenChk RB3LYP/6-31G(2df,p) Fr
 eq
 ----------------------------------------------------------------------

 Structure from the checkpoint file:  "/scratch/puck/g09_092bda4a-631a-4788-9642-7ff6f7ae6e51/Gau-158039.chk"
 -----
 titel
 -----
 Charge =  0 Multiplicity = 1

                         Standard orientation:
 ---------------------------------------------------------------------
 Center     Atomic      Atomic             Coordinates (Angstroms)
 Number     Number       Type             X           Y           Z
 ---------------------------------------------------------------------
      1          6           0        3.063188   -0.714913    0.801861
      2          6           0        2.358291   -0.482817   -0.547394
      3          6           0        0.955665    0.026906   -0.410178
      4          6           0       -0.180683   -0.565661   -0.772529
      5          6           0       -1.357476    0.320500   -0.454107
      6          8           0       -0.792789    1.487135    0.130288
      7          6           0        0.630463    1.385698    0.161803
      8          6           0       -2.286703   -0.359629    0.552815
      9          8           0       -3.198057   -1.081527    0.248553
     10          1           0        2.512933   -1.439201    1.409992
     11          1           0        4.074009   -1.101674    0.643408
     12          1           0        3.148742    0.211256    1.378527
     13          1           0        2.946313    0.235679   -1.135109
     14          1           0        2.346198   -1.416557   -1.119061
     15          1           0       -0.293936   -1.540156   -1.229501
     16          1           0       -1.951130    0.575925   -1.344759
     17          1           0        1.079393    2.197042   -0.433958
     18          1           0        0.983059    1.512061    1.195680
     19          1           0       -2.015281   -0.139748    1.610437
 ---------------------------------------------------------------------

 SCF Done:  E(RB3LYP) =  -423.199692213     A.U. after    1 cycles

 The electronic state is 1-A.
 Alpha  occ. eigenvalues --  -19.14863 -19.14160 -10.26852 -10.24400 -10.24000
 Alpha  occ. eigenvalues --  -10.20397 -10.20325 -10.19420 -10.18981  -1.05395
 Alpha  occ. eigenvalues --   -1.04220  -0.82450  -0.77176  -0.74426  -0.64770
 Alpha  occ. eigenvalues --   -0.63776  -0.57405  -0.55829  -0.50159  -0.48067
 Alpha  occ. eigenvalues --   -0.46828  -0.45566  -0.43875  -0.43070  -0.41981
 Alpha  occ. eigenvalues --   -0.39201  -0.38813  -0.38229  -0.36105  -0.34921
 Alpha  occ. eigenvalues --   -0.32460  -0.28306  -0.27313  -0.23140
 Alpha virt. eigenvalues --   -0.03026   0.01714   0.08088   0.10513   0.11327
 Alpha virt. eigenvalues --    0.12959   0.13339   0.14828   0.15538   0.15866
 Alpha virt. eigenvalues --    0.16396   0.17620   0.19014   0.20429   0.21424

 Mulliken charges:
               1
     1  C   -0.376775
     2  C   -0.293540
     3  C    0.311855
     4  C   -0.236527
     5  C    0.009310
     6  O   -0.277074
     7  C   -0.158520
     8  C    0.138247
     9  O   -0.242414
    10  H    0.126588
    11  H    0.121552
    12  H    0.123523
    13  H    0.111754
    14  H    0.112712
    15  H    0.117707
    16  H    0.107951
    17  H    0.107626
    18  H    0.112217
    19  H    0.083808
 Sum of Mulliken charges =   0.00000

 Dipole moment (field-independent basis, Debye):
    X=              3.6632    Y=              0.2043    Z=             -0.2814  Tot=              3.6797
 Quadrupole moment (field-independent basis, Debye-Ang):
   XX=            -59.7069   YY=            -55.6121   ZZ=            -52.0163
   XY=             -2.9984   XZ=              0.5087   YZ=              0.5166

  Exact polarizability: 104.415   8.477  69.956   4.008   3.842  65.311
 Approx polarizability: 143.342  20.871 107.782   9.382   9.438  97.058

                      1                      2                      3
                      A                      A                      A
 Frequencies --     48.4917                73.7664                98.9949
 Red. masses --      3.5164                 3.2935                 2.7233
 Frc consts  --      0.0049                 0.0106                 0.0157
 IR Inten    --      1.1598                 6.7395                 1.3214

                      4                      5                      6
                      A                      A                      A
 Frequencies --    134.1975               209.6664               232.7595
 Red. masses --      2.5665                 1.8163                 1.4878
 Frc consts  --      0.0272                 0.0470                 0.0475
 IR Inten    --      0.6662                 1.2977                 0.6206

                      7                      8                      9
                      A                      A                      A
 Frequencies --    289.3329               350.5832               399.4487
 Red. masses --      3.6855                 2.1099                 4.1553
 Frc consts  --      0.1818                 0.1528                 0.3906
 IR Inten    --     11.0352                 0.4527                13.9498

                     10                     11                     12
                      A                      A                      A
 Frequencies --    477.1767               519.8747               605.7321
 Red. masses --      5.7506                 2.4544                 3.2823
 Frc consts  --      0.7715                 0.3908                 0.7096
 IR Inten    --      7.6961                 3.3538                 1.4690

                     13                     14                     15
                      A                      A                      A
 Frequencies --    786.0062               788.5855               852.9858
 Red. masses --      1.9181                 2.1202                 1.3435
 Frc consts  --      0.6982                 0.7768                 0.5759
 IR Inten    --      3.0113                12.4944                17.1964

                     16                     17                     18
                      A                      A                      A
 Frequencies --    898.3796               919.1447               954.9005
 Red. masses --      3.7032                 2.3323                 2.5890
 Frc consts  --      1.7610                 1.1609                 1.3909
 IR Inten    --      9.6138                 1.8382                 5.3999

                     19                     20                     21
                      A                      A                      A
 Frequencies --    974.8612              1024.6436              1035.0437
 Red. masses --      2.6268                 1.5928                 1.9398
 Frc consts  --      1.4708                 0.9853                 1.2244
 IR Inten    --      5.2351                 4.1946                 8.1287

                     22                     23                     24
                      A                      A                      A
 Frequencies --   1063.2969              1074.3808              1101.8367
 Red. masses --      2.8850                 2.0722                 1.6930
 Frc consts  --      1.9218                 1.4093                 1.2110
 IR Inten    --      3.7685                31.3345                 2.1281

                     25                     26                     27
                      A                      A                      A
 Frequencies --   1114.1331              1203.5419              1205.5425
 Red. masses --      5.6961                 1.2021                 1.6430
 Frc consts  --      4.1658                 1.0259                 1.4069
 IR Inten    --     83.4905                 0.4974                 2.1634

                     28                     29                     30
                      A                      A                      A
 Frequencies --   1257.2066              1271.4933              1301.2009
 Red. masses --      1.4403                 1.5086                 1.2310
 Frc consts  --      1.3413                 1.4370                 1.2280
 IR Inten    --      4.5155                 2.3574                 5.4734

                     31                     32                     33
                      A                      A                      A
 Frequencies --   1327.3493              1353.2393              1388.3357
 Red. masses --      1.5060                 1.4824                 1.3976
 Frc consts  --      1.5633                 1.5994                 1.5871
 IR Inten    --      2.9033                 7.3654                 1.1316

                     34                     35                     36
                      A                      A                      A
 Frequencies --   1393.6043              1410.1273              1481.7434
 Red. masses --      1.4141                 1.2149                 1.0702
 Frc consts  --      1.6181                 1.4234                 1.3844
 IR Inten    --      4.1163                 1.2441                 3.3091

                     37                     38                     39
                      A                      A                      A
 Frequencies --   1499.3877              1506.4268              1522.6286
 Red. masses --      1.0407                 1.0690                 1.0836
 Frc consts  --      1.3785                 1.4294                 1.4801
 IR Inten    --      5.4705                 2.8267                 1.1028

                     40                     41                     42
                      A                      A                      A
 Frequencies --   1716.6731              1836.0354              2881.2110
 Red. masses --      7.6339                10.8060                 1.0845
 Frc consts  --     13.2548                21.4623                 5.3042
 IR Inten    --      4.7867               203.2218                82.3439

                     43                     44                     45
                      A                      A                      A
 Frequencies --   2973.1820              2995.6252              3008.3053
 Red. masses --      1.0665                 1.0833                 1.0938
 Frc consts  --      5.5548                 5.7276                 5.8323
 IR Inten    --     71.7319                37.0789                36.5231

                     46                     47                     48
                      A                      A                      A
 Frequencies --   3014.9910              3041.3599              3070.0487
 Red. masses --      1.0657                 1.0348                 1.0954
 Frc consts  --      5.7075                 5.6394                 6.0832
 IR Inten    --     30.0895                27.4033                 9.2669

                     49                     50                     51
                      A                      A                      A
 Frequencies --   3113.3872              3115.5004              3222.1195
 Red. masses --      1.1015                 1.1027                 1.0955
 Frc consts  --      6.2907                 6.3064                 6.7013
 IR Inten    --     33.9995                27.6358                 3.5312

 - Thermochemistry -
 -------------------
 Temperature   298.150 Kelvin.  Pressure   1.00000 Atm.
 Atom     1 has atomic number  6 and mass  12.00000

 Molecular mass:   126.06808 amu.
 Principal axes and moments of inertia in atomic units:
                           1         2         3
     Eigenvalues --   537.636461974.857742208.03450
           X            0.99981  -0.01657   0.01065
           Y            0.01648   0.99983   0.00821
           Z           -0.01079  -0.00803   0.99991
 This molecule is an asymmetric top.
 Rotational symmetry number  1.
 Warning -- assumption of classical behavior for rotation
           may cause significant error
 Rotational temperatures (Kelvin)      0.16110     0.04386     0.03923
 Rotational constants (GHZ):           3.35681     0.91386     0.81735
 Zero-point vibrational energy     413540.0 (Joules/Mol)
                                   98.83843 (Kcal/Mol)
 Warning -- explicit consideration of  12 degrees of freedom as
           vibrations may cause significant error
 Vibrational temperatures:     69.77   106.13   142.43   193.08   301.66
          (Kelvin)            334.89   416.28   504.41   574.72   686.55
                              747.98   871.51  1130.89  1134.60  1227.25
                             1292.57  1322.44  1373.89  1402.61  1474.23
                             1489.20  1529.85  1545.79  1585.30  1602.99
                             1731.63  1734.50  1808.84  1829.39  1872.14
                             1909.76  1947.01  1997.50  2005.08  2028.86
                             2131.90  2157.28  2167.41  2190.72  2469.91
                             2641.64  4145.41  4277.74  4310.03  4328.27
                             4337.89  4375.83  4417.11  4479.46  4482.50
                             4635.91

 Zero-point correction=                           0.157509 (Hartree/Particle)
 Thermal correction to Energy=                    0.166865
 Thermal correction to Enthalpy=                  0.167809
 Thermal correction to Gibbs Free Energy=         0.122169
 Sum of electronic and zero-point Energies=           -423.042183
 Sum of electronic and thermal Energies=              -423.032827
 Sum of electronic and thermal Enthalpies=            -423.031883
 Sum of electronic and thermal Free Energies=         -423.077524

                     E (Thermal)             CV                S
                      KCal/Mol        Cal/Mol-Kelvin    Cal/Mol-Kelvin
 Total                  104.709             33.053             96.059
 Electronic               0.000              0.000              0.000
 Translational            0.889              2.981             40.409
 Rotational               0.889              2.981             29.240
 Vibrational            102.932             27.092             26.410
 Vibration     1          0.595              1.978              4.878
 Vibration     2          0.599              1.966              4.050
 Vibration     3          0.604              1.950              3.474
 Vibration     4          0.613              1.919              2.885
 Vibration     5          0.642              1.826              2.047
 Vibration     6          0.654              1.791              1.858
 Vibration     7          0.686              1.694              1.478
 Vibration     8          0.727              1.574              1.164
 Vibration     9          0.766              1.471              0.965
 Vibration    10          0.834              1.301              0.718
 Vibration    11          0.875              1.206              0.610
 Vibration    12          0.964              1.020              0.440

 Normal termination of Gaussian 09 at Tue Jan 28 13:16:12 2020.
