 Gaussian 09, Revision D.01,
 Gaussian 09:  ES64L-G09RevD.01 24-Apr-2013

 -----------------------------
 # b3lyp 6-31G(2df,p) opt Freq
 -----------------------------

 -----
 titel
 -----
 Symbolic Z-matrix:
 Charge =  0 Multiplicity = 1

 SCF Done:  E(RB3LYP) =  -423.141790707     A.U. after   13 cycles
 Optimization completed.
    -- Stationary point found.
 Normal termination of Gaussian 09 at Tue Jan 28 13:57:42 2020.

 ----------------------------------------------------------------------
 #N Geom=AllCheck Guess=TCheck SCRF=Check GenChk RB3LYP/6-31G(2df,p) Fr
 eq
 ----------------------------------------------------------------------

 Structure from the checkpoint file:  "/scratch/puck/g09_883d798c-a185-499c-ab6c-66222ed8805b/Gau-9510.chk"
 -----
 titel
 -----
 Charge =  0 Multiplicity = 1

                         Standard orientation:
 ---------------------------------------------------------------------
 Center     Atomic      Atomic             Coordinates (Angstroms)
 Number     Number       Type             X           Y           Z
 ---------------------------------------------------------------------
      1          6           0       -2.748750   -0.009746   -0.401048
      2          8           0       -1.582496   -0.605625    0.118732
      3          6           0       -0.682535    0.315507    0.674151
      4          6           0        0.076495    1.307958   -0.210445
      5          6           0        1.260226    0.626292   -0.870596
      6          8           0        1.234338   -0.759008   -1.104778
      7          6           0        1.108124   -1.400099    0.172181
      8          6           0        0.672252   -0.292413    1.133302
      9          6           0        1.370172    0.974634    0.566930
     10          1           0       -2.523729    0.679661   -1.227917
     11          1           0       -3.385221   -0.813551   -0.778207
     12          1           0       -3.301000    0.546744    0.373416
     13          1           0       -1.161044    0.860495    1.503151
     14          1           0       -0.276593    2.281057   -0.533865
     15          1           0        1.797934    1.178088   -1.632553
     16          1           0        0.361193   -2.193080    0.087855
     17          1           0        2.072977   -1.834465    0.473034
     18          1           0        0.771456   -0.538964    2.189167
     19          1           0        2.093379    1.618271    1.047441
 ---------------------------------------------------------------------

 SCF Done:  E(RB3LYP) =  -423.141790707     A.U. after    1 cycles

 The electronic state is 1-A.
 Alpha  occ. eigenvalues --  -19.13679 -19.13109 -10.23539 -10.23341 -10.22192
 Alpha  occ. eigenvalues --  -10.21891 -10.19453 -10.19385 -10.18957  -1.04238
 Alpha  occ. eigenvalues --   -1.02633  -0.88205  -0.75885  -0.70055  -0.64887
 Alpha  occ. eigenvalues --   -0.62261  -0.57506  -0.54204  -0.52330  -0.48074
 Alpha  occ. eigenvalues --   -0.47721  -0.45615  -0.43279  -0.42673  -0.41362
 Alpha  occ. eigenvalues --   -0.39914  -0.36337  -0.33360  -0.33032  -0.32796
 Alpha  occ. eigenvalues --   -0.30217  -0.27301  -0.25388  -0.22248
 Alpha virt. eigenvalues --    0.08169   0.09876   0.12046   0.13071   0.13429
 Alpha virt. eigenvalues --    0.14498   0.15141   0.15586   0.16190   0.16709
 Alpha virt. eigenvalues --    0.17605   0.17794   0.18935   0.19529   0.20997

 Mulliken charges:
               1
     1  C   -0.238756
     2  O   -0.243882
     3  C    0.173387
     4  C   -0.169397
     5  C    0.126401
     6  O   -0.269511
     7  C   -0.067713
     8  C   -0.154870
     9  C   -0.128741
    10  H    0.111936
    11  H    0.127708
    12  H    0.099735
    13  H    0.067364
    14  H    0.081436
    15  H    0.103800
    16  H    0.123457
    17  H    0.087350
    18  H    0.077386
    19  H    0.092909
 Sum of Mulliken charges =   0.00000

 Dipole moment (field-independent basis, Debye):
    X=             -0.3050    Y=              1.6733    Z=              1.2689  Tot=              2.1220
 Quadrupole moment (field-independent basis, Debye-Ang):
   XX=            -50.0547   YY=            -51.8273   ZZ=            -53.4542
   XY=              0.2007   XZ=              2.4635   YZ=             -2.3340

  Exact polarizability:  82.530  -0.773  73.089   1.984  -2.280  67.540
 Approx polarizability: 109.818  -1.378 108.200   2.747  -1.639 104.908

                      1                      2                      3
                      A                      A                      A
 Frequencies --     71.5308               149.1337               186.3896
 Red. masses --      3.0217                 2.1406                 1.8701
 Frc consts  --      0.0091                 0.0280                 0.0383
 IR Inten    --      3.0681                 0.3650                 1.3981

                      4                      5                      6
                      A                      A                      A
 Frequencies --    212.8855               306.3449               381.2483
 Red. masses --      2.1278                 2.5658                 3.9319
 Frc consts  --      0.0568                 0.1419                 0.3367
 IR Inten    --      1.8631                 5.3740                 3.1568

                      7                      8                      9
                      A                      A                      A
 Frequencies --    508.5653               573.5886               646.0929
 Red. masses --      3.8357                 3.6143                 4.6197
 Frc consts  --      0.5845                 0.7006                 1.1362
 IR Inten    --      2.3289                 1.3132                 2.0443

                     10                     11                     12
                      A                      A                      A
 Frequencies --    721.5250               778.5967               801.6285
 Red. masses --      4.6255                 2.1332                 1.9696
 Frc consts  --      1.4188                 0.7619                 0.7457
 IR Inten    --      2.5158                 1.9552                14.0765

                     13                     14                     15
                      A                      A                      A
 Frequencies --    825.4106               861.6649               895.1245
 Red. masses --      4.2328                 2.3021                 1.6096
 Frc consts  --      1.6991                 1.0071                 0.7599
 IR Inten    --     14.8038                 2.1297                 3.3261

                     16                     17                     18
                      A                      A                      A
 Frequencies --    927.0496               973.9113               986.0268
 Red. masses --      2.8770                 2.5709                 1.8947
 Frc consts  --      1.4568                 1.4367                 1.0853
 IR Inten    --     13.2036                 8.8442                40.3620

                     19                     20                     21
                      A                      A                      A
 Frequencies --   1019.3271              1030.2936              1045.5375
 Red. masses --      1.4734                 2.1216                 2.0707
 Frc consts  --      0.9020                 1.3269                 1.3337
 IR Inten    --     28.2592                 2.1804                 6.9168

                     22                     23                     24
                      A                      A                      A
 Frequencies --   1060.2400              1070.6326              1084.8225
 Red. masses --      1.4407                 3.1865                 2.7561
 Frc consts  --      0.9542                 2.1520                 1.9110
 IR Inten    --      4.2131                 3.4899                22.0446

                     25                     26                     27
                      A                      A                      A
 Frequencies --   1132.3428              1162.2199              1183.2465
 Red. masses --      2.5788                 2.8306                 1.3761
 Frc consts  --      1.9482                 2.2527                 1.1352
 IR Inten    --     90.7831               138.6449                 0.4177

                     28                     29                     30
                      A                      A                      A
 Frequencies --   1186.6591              1225.3835              1227.4111
 Red. masses --      1.5108                 1.6728                 1.6186
 Frc consts  --      1.2534                 1.4799                 1.4367
 IR Inten    --     17.0136                58.2766                 2.5776

                     31                     32                     33
                      A                      A                      A
 Frequencies --   1245.0672              1262.9199              1298.7959
 Red. masses --      1.3533                 2.1525                 1.2759
 Frc consts  --      1.2360                 2.0228                 1.2681
 IR Inten    --      4.0091                18.4114                 1.5404

                     34                     35                     36
                      A                      A                      A
 Frequencies --   1331.6798              1370.2382              1378.0289
 Red. masses --      1.6582                 1.3321                 1.6266
 Frc consts  --      1.7325                 1.4736                 1.8199
 IR Inten    --      6.9675                 5.2528                47.4429

                     37                     38                     39
                      A                      A                      A
 Frequencies --   1420.1457              1481.5350              1486.8431
 Red. masses --      1.7594                 1.1453                 1.0627
 Frc consts  --      2.0906                 1.4812                 1.3842
 IR Inten    --     16.5349                 1.6138                 3.5153

                     40                     41                     42
                      A                      A                      A
 Frequencies --   1506.0210              1510.6750              2969.4628
 Red. masses --      1.0765                 1.0831                 1.0523
 Frc consts  --      1.4386                 1.4564                 5.4671
 IR Inten    --      6.0594                 3.0795                33.2425

                     43                     44                     45
                      A                      A                      A
 Frequencies --   2977.9484              2994.9249              3024.6023
 Red. masses --      1.0711                 1.0704                 1.0989
 Frc consts  --      5.5964                 5.6569                 5.9229
 IR Inten    --     96.0383                73.3613                47.4784

                     46                     47                     48
                      A                      A                      A
 Frequencies --   3102.0289              3116.1759              3129.2699
 Red. masses --      1.0937                 1.0962                 1.0895
 Frc consts  --      6.2008                 6.2719                 6.2859
 IR Inten    --     18.7859                28.2887                25.8212

                     49                     50                     51
                      A                      A                      A
 Frequencies --   3167.1713              3189.3258              3213.7317
 Red. masses --      1.0909                 1.0906                 1.0974
 Frc consts  --      6.4475                 6.5360                 6.6781
 IR Inten    --     17.4218                15.8183                12.5792

 - Thermochemistry -
 -------------------
 Temperature   298.150 Kelvin.  Pressure   1.00000 Atm.
 Atom     1 has atomic number  6 and mass  12.00000

 Molecular mass:   126.06808 amu.
 Principal axes and moments of inertia in atomic units:
                           1         2         3
     Eigenvalues --   597.612691197.707621297.28248
           X            0.99964  -0.00903   0.02514
           Y            0.01116   0.99622  -0.08614
           Z           -0.02427   0.08639   0.99597
 This molecule is an asymmetric top.
 Rotational symmetry number  1.
 Warning -- assumption of classical behavior for rotation
           may cause significant error
 Rotational temperatures (Kelvin)      0.14493     0.07232     0.06677
 Rotational constants (GHZ):           3.01992     1.50683     1.39117
 Zero-point vibrational energy     421153.8 (Joules/Mol)
                                  100.65819 (Kcal/Mol)
 Warning -- explicit consideration of   8 degrees of freedom as
           vibrations may cause significant error
 Vibrational temperatures:    102.92   214.57   268.17   306.29   440.76
          (Kelvin)            548.53   731.71   825.27   929.58  1038.11
                             1120.23  1153.36  1187.58  1239.74  1287.88
                             1333.82  1401.24  1418.67  1466.58  1482.36
                             1504.29  1525.45  1540.40  1560.82  1629.19
                             1672.17  1702.43  1707.34  1763.05  1765.97
                             1791.37  1817.06  1868.68  1915.99  1971.46
                             1982.67  2043.27  2131.60  2139.23  2166.83
                             2173.52  4272.39  4284.60  4309.02  4351.72
                             4463.12  4483.48  4502.32  4556.85  4588.72
                             4623.84

 Zero-point correction=                           0.160409 (Hartree/Particle)
 Thermal correction to Energy=                    0.168034
 Thermal correction to Enthalpy=                  0.168978
 Thermal correction to Gibbs Free Energy=         0.128017
 Sum of electronic and zero-point Energies=           -422.981382
 Sum of electronic and thermal Energies=              -422.973757
 Sum of electronic and thermal Enthalpies=            -422.972813
 Sum of electronic and thermal Free Energies=         -423.013774

                     E (Thermal)             CV                S
                      KCal/Mol        Cal/Mol-Kelvin    Cal/Mol-Kelvin
 Total                  105.443             29.497             86.210
 Electronic               0.000              0.000              0.000
 Translational            0.889              2.981             40.409
 Rotational               0.889              2.981             28.320
 Vibrational            103.665             23.535             17.482
 Vibration     1          0.598              1.968              4.111
 Vibration     2          0.618              1.904              2.683
 Vibration     3          0.632              1.858              2.263
 Vibration     4          0.644              1.821              2.019
 Vibration     5          0.697              1.662              1.382
 Vibration     6          0.751              1.510              1.034
 Vibration     7          0.864              1.231              0.637
 Vibration     8          0.930              1.088              0.497

 Normal termination of Gaussian 09 at Tue Jan 28 14:48:37 2020.
 Normal termination of Gaussian 09 at Tue Jan 28 13:51:56 2020.
