 Gaussian 09, Revision D.01,
 Gaussian 09:  ES64L-G09RevD.01 24-Apr-2013

 -----------------------------
 # b3lyp 6-31G(2df,p) opt Freq
 -----------------------------

 -----
 titel
 -----
 Symbolic Z-matrix:
 Charge =  0 Multiplicity = 1

 SCF Done:  E(RB3LYP) =  -423.186652387     A.U. after   14 cycles
 Optimization completed.
    -- Stationary point found.
 Normal termination of Gaussian 09 at Mon Jan 27 18:34:52 2020.

 ----------------------------------------------------------------------
 #N Geom=AllCheck Guess=TCheck SCRF=Check GenChk RB3LYP/6-31G(2df,p) Fr
 eq
 ----------------------------------------------------------------------

 Structure from the checkpoint file:  "/scratch/puck/g09_e9a2eab8-c19f-4ec0-b23f-13cbc6ba74fa/Gau-18608.chk"
 -----
 titel
 -----
 Charge =  0 Multiplicity = 1

                         Standard orientation:
 ---------------------------------------------------------------------
 Center     Atomic      Atomic             Coordinates (Angstroms)
 Number     Number       Type             X           Y           Z
 ---------------------------------------------------------------------
      1          6           0       -2.541964   -0.063033    0.484590
      2          6           0       -1.083507    0.057507    0.119892
      3          6           0        0.002580   -0.091401    1.199589
      4          6           0        1.137312    0.025326    0.143714
      5          8           0        2.473992   -0.125626    0.527067
      6          6           0        0.688724   -1.131710   -0.796957
      7          8           0       -0.734480   -1.056405   -0.777274
      8          6           0        0.722289    1.304581   -0.569422
      9          6           0       -0.613663    1.327616   -0.585667
     10          1           0       -2.836848    0.747926    1.157180
     11          1           0       -3.164776   -0.009918   -0.413793
     12          1           0       -2.737610   -1.018678    0.978260
     13          1           0        0.013721    0.725713    1.923895
     14          1           0       -0.028571   -1.060830    1.704689
     15          1           0        2.716167    0.625938    1.077706
     16          1           0        1.070936   -1.011002   -1.816796
     17          1           0        1.028483   -2.094900   -0.396270
     18          1           0        1.417069    1.962469   -1.078014
     19          1           0       -1.265297    2.016215   -1.109640
 ---------------------------------------------------------------------

 SCF Done:  E(RB3LYP) =  -423.186652387     A.U. after    1 cycles

 The electronic state is 1-A.
 Alpha  occ. eigenvalues --  -19.14641 -19.12903 -10.24355 -10.23935 -10.21896
 Alpha  occ. eigenvalues --  -10.18319 -10.18166 -10.17986 -10.17653  -1.03900
 Alpha  occ. eigenvalues --   -1.01984  -0.83515  -0.76270  -0.71866  -0.67688
 Alpha  occ. eigenvalues --   -0.60453  -0.58073  -0.53935  -0.51087  -0.48806
 Alpha  occ. eigenvalues --   -0.45426  -0.44393  -0.43724  -0.41368  -0.38402
 Alpha  occ. eigenvalues --   -0.38044  -0.37691  -0.36417  -0.34990  -0.34403
 Alpha  occ. eigenvalues --   -0.29596  -0.27462  -0.25614  -0.23718
 Alpha virt. eigenvalues --    0.00439   0.07589   0.10281   0.11813   0.12478
 Alpha virt. eigenvalues --    0.13611   0.15244   0.16286   0.16834   0.17761
 Alpha virt. eigenvalues --    0.18307   0.19863   0.20681   0.21685   0.22302

 Mulliken charges:
               1
     1  C   -0.484756
     2  C    0.380920
     3  C   -0.312397
     4  C    0.336001
     5  O   -0.496953
     6  C   -0.086727
     7  O   -0.306989
     8  C   -0.177271
     9  C   -0.106461
    10  H    0.118195
    11  H    0.128013
    12  H    0.125704
    13  H    0.093017
    14  H    0.101106
    15  H    0.280091
    16  H    0.098598
    17  H    0.104816
    18  H    0.102892
    19  H    0.102201
 Sum of Mulliken charges =   0.00000

 Dipole moment (field-independent basis, Debye):
    X=              0.0551    Y=              1.9107    Z=              1.1483  Tot=              2.2299
 Quadrupole moment (field-independent basis, Debye-Ang):
   XX=            -53.0650   YY=            -52.5632   ZZ=            -52.1019
   XY=              1.5389   XZ=             -0.0204   YZ=             -0.5666

  Exact polarizability:  87.801  -1.495  72.201  -1.506  -2.484  65.601
 Approx polarizability: 130.507  -1.936 109.819   0.843  -0.989  97.715

                      1                      2                      3
                      A                      A                      A
 Frequencies --    202.7182               236.7746               260.8960
 Red. masses --      1.0354                 2.2395                 2.3333
 Frc consts  --      0.0251                 0.0740                 0.0936
 IR Inten    --      0.0511                11.3560                 2.3889

                      4                      5                      6
                      A                      A                      A
 Frequencies --    277.4525               292.3304               355.5432
 Red. masses --      1.7923                 1.8712                 2.9974
 Frc consts  --      0.0813                 0.0942                 0.2232
 IR Inten    --     25.0619                56.4774                 4.5514

                      7                      8                      9
                      A                      A                      A
 Frequencies --    414.2477               419.7064               507.3839
 Red. masses --      3.3240                 2.7815                 1.9775
 Frc consts  --      0.3361                 0.2887                 0.2999
 IR Inten    --      4.8101                 8.6267                 3.0424

                     10                     11                     12
                      A                      A                      A
 Frequencies --    525.1465               578.9556               652.9202
 Red. masses --      3.0953                 4.8094                 4.3435
 Frc consts  --      0.5029                 0.9498                 1.0910
 IR Inten    --      1.2681                 2.3800                 0.9657

                     13                     14                     15
                      A                      A                      A
 Frequencies --    673.2611               744.1555               787.7395
 Red. masses --      3.7079                 1.7376                 3.8544
 Frc consts  --      0.9902                 0.5669                 1.4092
 IR Inten    --      5.6465                10.7759                 5.1505

                     16                     17                     18
                      A                      A                      A
 Frequencies --    814.0010               842.4552               916.6316
 Red. masses --      3.6512                 3.1114                 1.7379
 Frc consts  --      1.4254                 1.3011                 0.8603
 IR Inten    --     33.4615                23.7596                 1.4281

                     19                     20                     21
                      A                      A                      A
 Frequencies --    939.3200               951.0016               963.4701
 Red. masses --      1.5827                 1.9207                 1.8415
 Frc consts  --      0.8228                 1.0235                 1.0072
 IR Inten    --      9.6326                 3.3785                 3.0733

                     22                     23                     24
                      A                      A                      A
 Frequencies --   1022.2702              1038.0175              1072.5611
 Red. masses --      1.5245                 5.0404                 1.2062
 Frc consts  --      0.9386                 3.1998                 0.8175
 IR Inten    --     15.7150                71.9183                 3.3415

                     25                     26                     27
                      A                      A                      A
 Frequencies --   1092.6113              1120.3647              1157.6391
 Red. masses --      1.5280                 1.9445                 1.5163
 Frc consts  --      1.0747                 1.4381                 1.1972
 IR Inten    --     40.0345                15.2144                13.0045

                     28                     29                     30
                      A                      A                      A
 Frequencies --   1182.7282              1208.9207              1224.1368
 Red. masses --      1.7981                 1.3850                 2.1606
 Frc consts  --      1.4820                 1.1926                 1.9076
 IR Inten    --     17.8281                 7.8327                12.4244

                     31                     32                     33
                      A                      A                      A
 Frequencies --   1255.5449              1295.5148              1348.0605
 Red. masses --      2.4716                 2.2718                 1.6534
 Frc consts  --      2.2956                 2.2465                 1.7703
 IR Inten    --     88.6548                 2.7132                 8.5596

                     34                     35                     36
                      A                      A                      A
 Frequencies --   1364.6839              1376.4936              1415.6063
 Red. masses --      1.7668                 1.9311                 1.4766
 Frc consts  --      1.9387                 2.1558                 1.7434
 IR Inten    --     49.1105                44.8151                11.9336

                     37                     38                     39
                      A                      A                      A
 Frequencies --   1481.8183              1488.3995              1493.5631
 Red. masses --      1.0545                 1.1189                 1.0571
 Frc consts  --      1.3642                 1.4604                 1.3894
 IR Inten    --      2.9652                 3.1002                 2.0363

                     40                     41                     42
                      A                      A                      A
 Frequencies --   1523.8387              1636.3150              3019.8316
 Red. masses --      1.0944                 6.4715                 1.0559
 Frc consts  --      1.4973                10.2091                 5.6732
 IR Inten    --      1.6617                 1.1804                58.2983

                     43                     44                     45
                      A                      A                      A
 Frequencies --   3042.2229              3062.4768              3066.6342
 Red. masses --      1.0353                 1.0626                 1.1041
 Frc consts  --      5.6453                 5.8719                 6.1179
 IR Inten    --     17.7827                 7.5406                48.4734

                     46                     47                     48
                      A                      A                      A
 Frequencies --   3112.7732              3121.0664              3127.4233
 Red. masses --      1.1012                 1.1024                 1.1081
 Frc consts  --      6.2868                 6.3268                 6.3855
 IR Inten    --     15.9234                 7.2396                30.1805

                     49                     50                     51
                      A                      A                      A
 Frequencies --   3191.5905              3217.3711              3814.9317
 Red. masses --      1.0856                 1.1074                 1.0661
 Frc consts  --      6.5153                 6.7541                 9.1414
 IR Inten    --      5.8770                11.6469                23.5454

 - Thermochemistry -
 -------------------
 Temperature   298.150 Kelvin.  Pressure   1.00000 Atm.
 Atom     1 has atomic number  6 and mass  12.00000

 Molecular mass:   126.06808 amu.
 Principal axes and moments of inertia in atomic units:
                           1         2         3
     Eigenvalues --   566.614181197.834641291.30329
           X            0.99977  -0.00470  -0.02070
           Y            0.00350   0.99833  -0.05771
           Z            0.02093   0.05762   0.99812
 This molecule is an asymmetric top.
 Rotational symmetry number  1.
 Warning -- assumption of classical behavior for rotation
           may cause significant error
 Rotational temperatures (Kelvin)      0.15286     0.07231     0.06707
 Rotational constants (GHZ):           3.18513     1.50667     1.39761
 Zero-point vibrational energy     418283.4 (Joules/Mol)
                                   99.97213 (Kcal/Mol)
 Warning -- explicit consideration of  11 degrees of freedom as
           vibrations may cause significant error
 Vibrational temperatures:    291.67   340.67   375.37   399.19   420.60
          (Kelvin)            511.55   596.01   603.86   730.01   755.57
                              832.99   939.41   968.67  1070.67  1133.38
                             1171.16  1212.10  1318.83  1351.47  1368.28
                             1386.22  1470.82  1493.47  1543.17  1572.02
                             1611.95  1665.58  1701.68  1739.37  1761.26
                             1806.45  1863.95  1939.56  1963.47  1980.46
                             2036.74  2132.00  2141.47  2148.90  2192.46
                             2354.29  4344.86  4377.07  4406.22  4412.20
                             4478.58  4490.51  4499.66  4591.98  4629.07
                             5488.83

 Zero-point correction=                           0.159316 (Hartree/Particle)
 Thermal correction to Energy=                    0.167151
 Thermal correction to Enthalpy=                  0.168095
 Thermal correction to Gibbs Free Energy=         0.127855
 Sum of electronic and zero-point Energies=           -423.027337
 Sum of electronic and thermal Energies=              -423.019501
 Sum of electronic and thermal Enthalpies=            -423.018557
 Sum of electronic and thermal Free Energies=         -423.058797

                     E (Thermal)             CV                S
                      KCal/Mol        Cal/Mol-Kelvin    Cal/Mol-Kelvin
 Total                  104.889             32.394             84.692
 Electronic               0.000              0.000              0.000
 Translational            0.889              2.981             40.409
 Rotational               0.889              2.981             28.263
 Vibrational            103.112             26.432             16.021
 Vibration     1          0.639              1.836              2.108
 Vibration     2          0.656              1.784              1.827
 Vibration     3          0.669              1.744              1.656
 Vibration     4          0.678              1.715              1.549
 Vibration     5          0.688              1.688              1.460
 Vibration     6          0.731              1.564              1.142
 Vibration     7          0.778              1.439              0.912
 Vibration     8          0.782              1.427              0.893
 Vibration     9          0.863              1.234              0.640
 Vibration    10          0.880              1.194              0.598
 Vibration    11          0.936              1.077              0.487

 Normal termination of Gaussian 09 at Mon Jan 27 20:22:54 2020.
