 Gaussian 09, Revision D.01,
 Gaussian 09:  ES64L-G09RevD.01 24-Apr-2013

 -----------------------------
 # b3lyp 6-31G(2df,p) opt Freq
 -----------------------------

 -----
 titel
 -----
 Symbolic Z-matrix:
 Charge =  0 Multiplicity = 1

 SCF Done:  E(RB3LYP) =  -423.200078341     A.U. after   13 cycles
 Optimization completed.
    -- Stationary point found.
 Normal termination of Gaussian 09 at Mon Jan 27 18:12:59 2020.

 ----------------------------------------------------------------------
 #N Geom=AllCheck Guess=TCheck SCRF=Check GenChk RB3LYP/6-31G(2df,p) Fr
 eq
 ----------------------------------------------------------------------

 Structure from the checkpoint file:  "/scratch/puck/g09_d429b3c0-e038-4c2c-8a4a-9a466ff7ceda/Gau-35183.chk"
 -----
 titel
 -----
 Charge =  0 Multiplicity = 1

                         Standard orientation:
 ---------------------------------------------------------------------
 Center     Atomic      Atomic             Coordinates (Angstroms)
 Number     Number       Type             X           Y           Z
 ---------------------------------------------------------------------
      1          6           0       -2.301919   -0.408285    0.095611
      2          6           0       -0.810384   -0.240536    0.041429
      3          8           0       -0.113103   -1.473030   -0.009884
      4          6           0        1.186649   -0.925111   -0.115792
      5          6           0        1.301320   -0.069889    1.161797
      6          6           0       -0.041266    0.692071    1.069289
      7          6           0        0.034118    1.780576   -0.031824
      8          6           0       -0.116921    0.644603   -1.064337
      9          8           0        1.120266   -0.056026   -1.244682
     10          1           0       -2.597708   -0.942705    1.003658
     11          1           0       -2.800239    0.565632    0.095568
     12          1           0       -2.656572   -0.976987   -0.769313
     13          1           0        1.931185   -1.700127   -0.292033
     14          1           0        1.346085   -0.718102    2.041271
     15          1           0        2.174412    0.586616    1.154596
     16          1           0       -0.500196    0.931741    2.028679
     17          1           0       -0.838210    2.441548   -0.026937
     18          1           0        0.945709    2.379223   -0.096003
     19          1           0       -0.571351    0.825033   -2.040006
 ---------------------------------------------------------------------

 SCF Done:  E(RB3LYP) =  -423.200078341     A.U. after    1 cycles

 The electronic state is 1-A.
 Alpha  occ. eigenvalues --  -19.14457 -19.13980 -10.27307 -10.23700 -10.22820
 Alpha  occ. eigenvalues --  -10.19129 -10.18474 -10.18318 -10.18189  -1.09502
 Alpha  occ. eigenvalues --   -0.99169  -0.83905  -0.76994  -0.72196  -0.64517
 Alpha  occ. eigenvalues --   -0.61616  -0.59690  -0.54758  -0.51961  -0.47896
 Alpha  occ. eigenvalues --   -0.45710  -0.44413  -0.42210  -0.40958  -0.40751
 Alpha  occ. eigenvalues --   -0.39395  -0.37926  -0.37872  -0.34457  -0.32686
 Alpha  occ. eigenvalues --   -0.30952  -0.29434  -0.26274  -0.25084
 Alpha virt. eigenvalues --    0.08575   0.10284   0.12280   0.12671   0.13329
 Alpha virt. eigenvalues --    0.14037   0.14809   0.16051   0.16378   0.16513
 Alpha virt. eigenvalues --    0.17427   0.17926   0.19426   0.21681   0.22186

 Mulliken charges:
               1
     1  C   -0.507699
     2  C    0.432065
     3  O   -0.276252
     4  C    0.163408
     5  C   -0.237671
     6  C   -0.120148
     7  C   -0.251306
     8  C    0.038624
     9  O   -0.278799
    10  H    0.130550
    11  H    0.123638
    12  H    0.133474
    13  H    0.090063
    14  H    0.106532
    15  H    0.106183
    16  H    0.068268
    17  H    0.099556
    18  H    0.103249
    19  H    0.076263
 Sum of Mulliken charges =   0.00000

 Dipole moment (field-independent basis, Debye):
    X=             -0.7451    Y=              1.0814    Z=              1.1893  Tot=              1.7717
 Quadrupole moment (field-independent basis, Debye-Ang):
   XX=            -50.5169   YY=            -54.2875   ZZ=            -54.0551
   XY=             -2.0893   XZ=              2.4241   YZ=             -0.5913

  Exact polarizability:  78.069  -2.456  72.006   2.468  -1.204  68.485
 Approx polarizability: 108.906  -3.282 108.142   0.241  -1.960 103.379

                      1                      2                      3
                      A                      A                      A
 Frequencies --    208.7962               238.2104               263.9977
 Red. masses --      1.0210                 2.7135                 2.4317
 Frc consts  --      0.0262                 0.0907                 0.0999
 IR Inten    --      0.0169                 0.9088                 0.3704

                      4                      5                      6
                      A                      A                      A
 Frequencies --    371.2730               387.0934               467.0092
 Red. masses --      2.3383                 2.7073                 2.1959
 Frc consts  --      0.1899                 0.2390                 0.2822
 IR Inten    --      0.8944                 2.0228                 1.0351

                      7                      8                      9
                      A                      A                      A
 Frequencies --    583.7285               601.9038               644.7609
 Red. masses --      4.8213                 4.3814                 4.8791
 Frc consts  --      0.9679                 0.9352                 1.1951
 IR Inten    --      6.0642                 5.2557                 0.5233

                     10                     11                     12
                      A                      A                      A
 Frequencies --    662.5444               784.1825               834.1130
 Red. masses --      4.3864                 3.6076                 2.8964
 Frc consts  --      1.1345                 1.3071                 1.1873
 IR Inten    --      5.9036                 1.3949                 3.4881

                     13                     14                     15
                      A                      A                      A
 Frequencies --    841.3391               862.4432               894.0379
 Red. masses --      3.5377                 2.2345                 2.8483
 Frc consts  --      1.4754                 0.9792                 1.3414
 IR Inten    --     14.4851                 7.5314                22.0698

                     16                     17                     18
                      A                      A                      A
 Frequencies --    901.9635               927.0220               951.6172
 Red. masses --      2.2612                 2.2821                 2.1433
 Frc consts  --      1.0838                 1.1555                 1.1436
 IR Inten    --     22.8305                13.2990                 3.8380

                     19                     20                     21
                      A                      A                      A
 Frequencies --    974.0953               981.3613              1029.0103
 Red. masses --      2.3497                 1.9338                 2.6187
 Frc consts  --      1.3136                 1.0973                 1.6337
 IR Inten    --     34.2260                10.8768                14.7497

                     22                     23                     24
                      A                      A                      A
 Frequencies --   1058.3934              1095.0123              1116.3009
 Red. masses --      1.8781                 1.7989                 2.4275
 Frc consts  --      1.2396                 1.2708                 1.7823
 IR Inten    --     58.1435                13.0943                13.6174

                     25                     26                     27
                      A                      A                      A
 Frequencies --   1131.1427              1159.7219              1177.3915
 Red. masses --      1.5535                 1.7722                 1.8936
 Frc consts  --      1.1711                 1.4043                 1.5466
 IR Inten    --     33.7603                10.9051                19.5273

                     28                     29                     30
                      A                      A                      A
 Frequencies --   1191.2953              1206.7311              1250.0886
 Red. masses --      2.2101                 1.3531                 1.8270
 Frc consts  --      1.8480                 1.1609                 1.6822
 IR Inten    --     20.1240                 1.1312                 0.8299

                     31                     32                     33
                      A                      A                      A
 Frequencies --   1279.4050              1305.2459              1326.9085
 Red. masses --      1.4676                 1.3534                 1.4780
 Frc consts  --      1.4154                 1.3585                 1.5332
 IR Inten    --     10.9382                 9.9595                 6.8009

                     34                     35                     36
                      A                      A                      A
 Frequencies --   1336.7719              1344.3974              1370.0931
 Red. masses --      1.8491                 1.7970                 1.5558
 Frc consts  --      1.9468                 1.9136                 1.7207
 IR Inten    --     12.0715                 7.2163                 5.9770

                     37                     38                     39
                      A                      A                      A
 Frequencies --   1420.2950              1471.2377              1482.1386
 Red. masses --      1.4848                 1.1047                 1.0475
 Frc consts  --      1.7648                 1.4088                 1.3558
 IR Inten    --      6.7254                 1.6852                 3.4087

                     40                     41                     42
                      A                      A                      A
 Frequencies --   1486.4718              1496.0591              3040.4648
 Red. masses --      1.1096                 1.0506                 1.0353
 Frc consts  --      1.4445                 1.3854                 5.6387
 IR Inten    --      4.3968                 3.0684                18.7830

                     43                     44                     45
                      A                      A                      A
 Frequencies --   3053.1240              3062.5262              3096.9743
 Red. masses --      1.0590                 1.0598                 1.0898
 Frc consts  --      5.8159                 5.8565                 6.1582
 IR Inten    --     23.9282                23.3804                55.7944

                     46                     47                     48
                      A                      A                      A
 Frequencies --   3105.0262              3111.0690              3112.3018
 Red. masses --      1.0901                 1.1021                 1.1056
 Frc consts  --      6.1923                 6.2846                 6.3097
 IR Inten    --     22.3648                16.1040                18.2323

                     49                     50                     51
                      A                      A                      A
 Frequencies --   3115.9383              3118.5540              3141.8197
 Red. masses --      1.1017                 1.1058                 1.0923
 Frc consts  --      6.3022                 6.3361                 6.3526
 IR Inten    --     17.5684                28.3676                36.5105

 - Thermochemistry -
 -------------------
 Temperature   298.150 Kelvin.  Pressure   1.00000 Atm.
 Atom     1 has atomic number  6 and mass  12.00000

 Molecular mass:   126.06808 amu.
 Principal axes and moments of inertia in atomic units:
                           1         2         3
     Eigenvalues --   712.92737 883.97712 997.44259
           X            0.99883  -0.00596   0.04808
           Y            0.00664   0.99988  -0.01414
           Z           -0.04799   0.01444   0.99874
 This molecule is an asymmetric top.
 Rotational symmetry number  1.
 Warning -- assumption of classical behavior for rotation
           may cause significant error
 Rotational temperatures (Kelvin)      0.12149     0.09798     0.08684
 Rotational constants (GHZ):           2.53145     2.04162     1.80937
 Zero-point vibrational energy     425113.4 (Joules/Mol)
                                  101.60453 (Kcal/Mol)
 Warning -- explicit consideration of   8 degrees of freedom as
           vibrations may cause significant error
 Vibrational temperatures:    300.41   342.73   379.83   534.18   556.94
          (Kelvin)            671.92   839.85   866.00   927.67   953.25
                             1128.26  1200.10  1210.50  1240.86  1286.32
                             1297.72  1333.78  1369.16  1401.50  1411.96
                             1480.51  1522.79  1575.48  1606.11  1627.46
                             1668.58  1694.00  1714.01  1736.21  1798.60
                             1840.78  1877.96  1909.12  1923.31  1934.29
                             1971.26  2043.49  2116.78  2132.46  2138.70
                             2152.49  4374.55  4392.76  4406.29  4455.85
                             4467.43  4476.13  4477.90  4483.13  4486.90
                             4520.37

 Zero-point correction=                           0.161917 (Hartree/Particle)
 Thermal correction to Energy=                    0.168642
 Thermal correction to Enthalpy=                  0.169586
 Thermal correction to Gibbs Free Energy=         0.131309
 Sum of electronic and zero-point Energies=           -423.038161
 Sum of electronic and thermal Energies=              -423.031436
 Sum of electronic and thermal Enthalpies=            -423.030492
 Sum of electronic and thermal Free Energies=         -423.068769

                     E (Thermal)             CV                S
                      KCal/Mol        Cal/Mol-Kelvin    Cal/Mol-Kelvin
 Total                  105.824             28.457             80.560
 Electronic               0.000              0.000              0.000
 Translational            0.889              2.981             40.409
 Rotational               0.889              2.981             27.932
 Vibrational            104.047             22.495             12.219
 Vibration     1          0.642              1.827              2.054
 Vibration     2          0.656              1.782              1.816
 Vibration     3          0.671              1.739              1.635
 Vibration     4          0.743              1.531              1.075
 Vibration     5          0.756              1.498              1.011
 Vibration     6          0.824              1.323              0.746
 Vibration     7          0.941              1.067              0.479
 Vibration     8          0.960              1.028              0.446

 Normal termination of Gaussian 09 at Mon Jan 27 19:03:56 2020.
