 Gaussian 09, Revision D.01,
 Gaussian 09:  ES64L-G09RevD.01 24-Apr-2013

 -----------------------------
 # b3lyp 6-31G(2df,p) opt Freq
 -----------------------------

 -----
 titel
 -----
 Symbolic Z-matrix:
 Charge =  0 Multiplicity = 1

 SCF Done:  E(RB3LYP) =  -423.152478260     A.U. after   13 cycles
 Optimization completed.
    -- Stationary point found.
 Normal termination of Gaussian 09 at Mon Jan 27 18:04:41 2020.

 ----------------------------------------------------------------------
 #N Geom=AllCheck Guess=TCheck SCRF=Check GenChk RB3LYP/6-31G(2df,p) Fr
 eq
 ----------------------------------------------------------------------

 Structure from the checkpoint file:  "/scratch/puck/g09_ce4db6dd-70e3-4710-a2de-85feb98caa78/Gau-170366.chk"
 -----
 titel
 -----
 Charge =  0 Multiplicity = 1

                         Standard orientation:
 ---------------------------------------------------------------------
 Center     Atomic      Atomic             Coordinates (Angstroms)
 Number     Number       Type             X           Y           Z
 ---------------------------------------------------------------------
      1          6           0        2.527035   -0.712826   -0.184299
      2          6           0        1.130823   -0.208224   -0.042238
      3          8           0        0.139490   -0.701332   -0.949197
      4          6           0       -0.907169   -0.401675    0.041763
      5          6           0       -1.886660   -1.531380    0.213618
      6          6           0       -1.446404    0.974270   -0.345516
      7          8           0       -0.309149    1.840590   -0.268228
      8          6           0        0.683856    1.156750    0.459822
      9          6           0        0.163069   -0.088279    1.118098
     10          1           0        3.172412   -0.273251    0.582076
     11          1           0        2.563659   -1.802701   -0.086581
     12          1           0        2.930823   -0.442669   -1.166152
     13          1           0       -2.611793   -1.298000    1.000166
     14          1           0       -2.432867   -1.707570   -0.718644
     15          1           0       -1.363351   -2.452475    0.481794
     16          1           0       -1.827840    0.981257   -1.371280
     17          1           0       -2.237271    1.314110    0.341300
     18          1           0        1.395175    1.812627    0.948153
     19          1           0        0.181021   -0.377208    2.161079
 ---------------------------------------------------------------------

 SCF Done:  E(RB3LYP) =  -423.152478260     A.U. after    1 cycles

 The electronic state is 1-A.
 Alpha  occ. eigenvalues --  -19.13790 -19.13226 -10.24643 -10.24099 -10.23220
 Alpha  occ. eigenvalues --  -10.22499 -10.18780 -10.18580 -10.18474  -1.07135
 Alpha  occ. eigenvalues --   -1.01081  -0.82604  -0.78069  -0.72691  -0.69296
 Alpha  occ. eigenvalues --   -0.59558  -0.58598  -0.53886  -0.50669  -0.48458
 Alpha  occ. eigenvalues --   -0.45886  -0.43767  -0.42856  -0.41334  -0.40985
 Alpha  occ. eigenvalues --   -0.40516  -0.39172  -0.36730  -0.35146  -0.33059
 Alpha  occ. eigenvalues --   -0.31374  -0.29543  -0.25043  -0.21094
 Alpha virt. eigenvalues --    0.08385   0.09460   0.10238   0.11310   0.12931
 Alpha virt. eigenvalues --    0.13574   0.14788   0.15430   0.15701   0.16972
 Alpha virt. eigenvalues --    0.17612   0.18456   0.19158   0.20039   0.22516

 Mulliken charges:
               1
     1  C   -0.502266
     2  C    0.436138
     3  O   -0.364094
     4  C    0.387331
     5  C   -0.489726
     6  C   -0.094696
     7  O   -0.269339
     8  C    0.036429
     9  C   -0.318894
    10  H    0.124124
    11  H    0.128249
    12  H    0.137248
    13  H    0.122711
    14  H    0.132142
    15  H    0.132692
    16  H    0.114736
    17  H    0.088279
    18  H    0.104862
    19  H    0.094073
 Sum of Mulliken charges =   0.00000

 Dipole moment (field-independent basis, Debye):
    X=             -0.1245    Y=             -1.0390    Z=              1.8518  Tot=              2.1270
 Quadrupole moment (field-independent basis, Debye-Ang):
   XX=            -46.8511   YY=            -56.6734   ZZ=            -53.4994
   XY=              1.2057   XZ=              1.1264   YZ=             -0.0641

  Exact polarizability:  87.879   0.073  71.315   0.484   0.548  64.877
 Approx polarizability: 115.110   0.187 105.092  -1.115   1.667 104.042

                      1                      2                      3
                      A                      A                      A
 Frequencies --    184.4235               197.0671               201.6389
 Red. masses --      2.5738                 1.0926                 1.0443
 Frc consts  --      0.0516                 0.0250                 0.0250
 IR Inten    --      2.1636                 0.2105                 0.0676

                      4                      5                      6
                      A                      A                      A
 Frequencies --    241.4927               261.3937               297.0426
 Red. masses --      2.4752                 2.4059                 2.9590
 Frc consts  --      0.0850                 0.0969                 0.1538
 IR Inten    --      1.9916                 0.5093                 1.2721

                      7                      8                      9
                      A                      A                      A
 Frequencies --    352.3500               432.1317               532.9527
 Red. masses --      3.0192                 3.0138                 4.0027
 Frc consts  --      0.2208                 0.3316                 0.6699
 IR Inten    --      3.7177                 2.1367                 2.0617

                     10                     11                     12
                      A                      A                      A
 Frequencies --    583.6577               637.4997               727.5955
 Red. masses --      3.7476                 3.5850                 3.0094
 Frc consts  --      0.7522                 0.8584                 0.9387
 IR Inten    --      0.7315                 6.5032                 6.0076

                     13                     14                     15
                      A                      A                      A
 Frequencies --    760.8723               788.1073               847.1466
 Red. masses --      4.5009                 3.9083                 3.2297
 Frc consts  --      1.5352                 1.4302                 1.3656
 IR Inten    --     18.9309                 3.3288                38.3361

                     16                     17                     18
                      A                      A                      A
 Frequencies --    864.9869               891.0998               921.9716
 Red. masses --      2.3748                 1.7456                 1.7972
 Frc consts  --      1.0469                 0.8167                 0.9001
 IR Inten    --      7.7226                 2.3336                 2.8739

                     19                     20                     21
                      A                      A                      A
 Frequencies --    936.7624               981.8795               996.6295
 Red. masses --      2.0179                 2.9109                 1.4721
 Frc consts  --      1.0433                 1.6535                 0.8615
 IR Inten    --     17.1147                18.7627                 4.1567

                     22                     23                     24
                      A                      A                      A
 Frequencies --   1004.0472              1079.4472              1098.6850
 Red. masses --      1.6623                 2.3675                 3.8927
 Frc consts  --      0.9874                 1.6253                 2.7685
 IR Inten    --      4.8113                30.3897                64.4210

                     25                     26                     27
                      A                      A                      A
 Frequencies --   1108.2119              1128.3609              1145.7867
 Red. masses --      1.9839                 2.3064                 1.9526
 Frc consts  --      1.4356                 1.7302                 1.5103
 IR Inten    --      8.1331                60.4066                 7.2452

                     28                     29                     30
                      A                      A                      A
 Frequencies --   1197.7671              1232.1447              1263.1699
 Red. masses --      1.4661                 2.1917                 2.1605
 Frc consts  --      1.2392                 1.9605                 2.0311
 IR Inten    --     24.2477                 5.9352                20.8387

                     31                     32                     33
                      A                      A                      A
 Frequencies --   1271.8315              1302.2401              1379.4627
 Red. masses --      1.6441                 2.6188                 1.6623
 Frc consts  --      1.5669                 2.6166                 1.8637
 IR Inten    --     10.6684                16.6128                 3.6691

                     34                     35                     36
                      A                      A                      A
 Frequencies --   1406.9717              1411.1876              1453.2387
 Red. masses --      1.2838                 1.4476                 2.9972
 Frc consts  --      1.4973                 1.6985                 3.7294
 IR Inten    --      6.2230                12.2377                 6.4841

                     37                     38                     39
                      A                      A                      A
 Frequencies --   1473.0912              1482.4866              1492.0171
 Red. masses --      1.0447                 1.0909                 1.0510
 Frc consts  --      1.3356                 1.4126                 1.3785
 IR Inten    --      3.4493                 2.7818                 3.3671

                     40                     41                     42
                      A                      A                      A
 Frequencies --   1499.8242              1500.0608              2983.3689
 Red. masses --      1.0899                 1.1145                 1.0683
 Frc consts  --      1.4445                 1.4776                 5.6024
 IR Inten    --      0.2644                 3.8699                71.4439

                     43                     44                     45
                      A                      A                      A
 Frequencies --   3033.0943              3039.6504              3081.3454
 Red. masses --      1.0350                 1.0356                 1.0950
 Frc consts  --      5.6099                 5.6374                 6.1258
 IR Inten    --     25.5433                16.9745                20.8483

                     46                     47                     48
                      A                      A                      A
 Frequencies --   3099.0475              3108.8867              3113.0223
 Red. masses --      1.1015                 1.1010                 1.1005
 Frc consts  --      6.2327                 6.2697                 6.2836
 IR Inten    --     15.7259                15.3876                14.9875

                     49                     50                     51
                      A                      A                      A
 Frequencies --   3123.2681              3184.2621              3193.4511
 Red. masses --      1.1013                 1.0908                 1.0970
 Frc consts  --      6.3298                 6.5167                 6.5916
 IR Inten    --     13.6083                10.5097                12.9452

 - Thermochemistry -
 -------------------
 Temperature   298.150 Kelvin.  Pressure   1.00000 Atm.
 Atom     1 has atomic number  6 and mass  12.00000

 Molecular mass:   126.06808 amu.
 Principal axes and moments of inertia in atomic units:
                           1         2         3
     Eigenvalues --   689.65476 980.686871337.55204
           X            0.99975   0.02234   0.00068
           Y           -0.02233   0.99972  -0.00797
           Z           -0.00086   0.00795   0.99997
 This molecule is an asymmetric top.
 Rotational symmetry number  1.
 Warning -- assumption of classical behavior for rotation
           may cause significant error
 Rotational temperatures (Kelvin)      0.12559     0.08832     0.06476
 Rotational constants (GHZ):           2.61688     1.84028     1.34929
 Zero-point vibrational energy     415870.6 (Joules/Mol)
                                   99.39545 (Kcal/Mol)
 Warning -- explicit consideration of  10 degrees of freedom as
           vibrations may cause significant error
 Vibrational temperatures:    265.34   283.54   290.11   347.45   376.09
          (Kelvin)            427.38   506.95   621.74   766.80   839.75
                              917.22  1046.85  1094.72  1133.91  1218.85
                             1244.52  1282.09  1326.51  1347.79  1412.70
                             1433.93  1444.60  1553.08  1580.76  1594.47
                             1623.46  1648.53  1723.32  1772.78  1817.42
                             1829.88  1873.63  1984.74  2024.32  2030.38
                             2090.88  2119.45  2132.96  2146.68  2157.91
                             2158.25  4292.40  4363.94  4373.37  4433.36
                             4458.83  4472.99  4478.94  4493.68  4581.44
                             4594.66

 Zero-point correction=                           0.158397 (Hartree/Particle)
 Thermal correction to Energy=                    0.166389
 Thermal correction to Enthalpy=                  0.167333
 Thermal correction to Gibbs Free Energy=         0.126500
 Sum of electronic and zero-point Energies=           -422.994082
 Sum of electronic and thermal Energies=              -422.986089
 Sum of electronic and thermal Enthalpies=            -422.985145
 Sum of electronic and thermal Free Energies=         -423.025978

                     E (Thermal)             CV                S
                      KCal/Mol        Cal/Mol-Kelvin    Cal/Mol-Kelvin
 Total                  104.411             31.765             85.941
 Electronic               0.000              0.000              0.000
 Translational            0.889              2.981             40.409
 Rotational               0.889              2.981             28.294
 Vibrational            102.633             25.803             17.238
 Vibration     1          0.631              1.861              2.283
 Vibration     2          0.636              1.844              2.160
 Vibration     3          0.639              1.838              2.118
 Vibration     4          0.658              1.777              1.792
 Vibration     5          0.669              1.743              1.652
 Vibration     6          0.691              1.679              1.434
 Vibration     7          0.729              1.570              1.156
 Vibration     8          0.793              1.400              0.852
 Vibration     9          0.888              1.177              0.581
 Vibration    10          0.941              1.067              0.479

 Normal termination of Gaussian 09 at Mon Jan 27 18:48:48 2020.
