 Gaussian 09, Revision D.01,
 Gaussian 09:  ES64L-G09RevD.01 24-Apr-2013

 -----------------------------
 # b3lyp 6-31G(2df,p) opt Freq
 -----------------------------

 -----
 titel
 -----
 Symbolic Z-matrix:
 Charge =  0 Multiplicity = 1

 SCF Done:  E(RB3LYP) =  -423.160952800     A.U. after   14 cycles
 Optimization completed.
    -- Stationary point found.
 Normal termination of Gaussian 09 at Mon Jan 27 23:07:29 2020.

 ----------------------------------------------------------------------
 #N Geom=AllCheck Guess=TCheck SCRF=Check GenChk RB3LYP/6-31G(2df,p) Fr
 eq
 ----------------------------------------------------------------------

 Structure from the checkpoint file:  "/scratch/puck/g09_af8ef691-96b3-40f4-a575-e67f0656e6e4/Gau-18432.chk"
 -----
 titel
 -----
 Charge =  0 Multiplicity = 1

                         Standard orientation:
 ---------------------------------------------------------------------
 Center     Atomic      Atomic             Coordinates (Angstroms)
 Number     Number       Type             X           Y           Z
 ---------------------------------------------------------------------
      1          6           0        0.130244    1.938920    0.924288
      2          6           0       -0.112267    0.664154    0.121951
      3          6           0       -1.467894    0.708348   -0.545789
      4          8           0       -2.088290   -0.249121   -0.952408
      5          6           0        0.925362    0.270816   -0.972908
      6          6           0        2.253884   -0.099841   -0.374492
      7          6           0        1.132949   -1.098002   -0.341838
      8          6           0        0.182273   -0.743823    0.818529
      9          8           0       -0.895061   -1.590969    1.058454
     10          1           0       -0.559242    2.005097    1.773572
     11          1           0        1.147965    1.970450    1.320430
     12          1           0       -0.011878    2.833215    0.306152
     13          1           0       -1.879988    1.732620   -0.690110
     14          1           0        0.827737    0.535532   -2.019450
     15          1           0        3.038638   -0.289305   -1.099894
     16          1           0        2.606996    0.358532    0.546141
     17          1           0        1.188696   -2.072793   -0.809924
     18          1           0        0.696625   -0.623175    1.779115
     19          1           0       -1.456049   -1.572893    0.267173
 ---------------------------------------------------------------------

 SCF Done:  E(RB3LYP) =  -423.160952800     A.U. after    1 cycles

 The electronic state is 1-A.
 Alpha  occ. eigenvalues --  -19.15619 -19.12757 -10.28263 -10.24029 -10.21074
 Alpha  occ. eigenvalues --  -10.20722 -10.19743 -10.19405 -10.18864  -1.06364
 Alpha  occ. eigenvalues --   -1.01592  -0.90115  -0.78273  -0.68974  -0.66247
 Alpha  occ. eigenvalues --   -0.61063  -0.58662  -0.55551  -0.51481  -0.47753
 Alpha  occ. eigenvalues --   -0.47189  -0.44973  -0.44357  -0.42734  -0.40499
 Alpha  occ. eigenvalues --   -0.40308  -0.39285  -0.36828  -0.36360  -0.31734
 Alpha  occ. eigenvalues --   -0.30642  -0.27258  -0.26863  -0.24619
 Alpha virt. eigenvalues --   -0.03927   0.08552   0.08935   0.10195   0.11489
 Alpha virt. eigenvalues --    0.13216   0.14372   0.14843   0.15835   0.16092
 Alpha virt. eigenvalues --    0.17210   0.17457   0.20373   0.21780   0.22892

 Mulliken charges:
               1
     1  C   -0.480819
     2  C    0.147835
     3  C    0.134538
     4  O   -0.287853
     5  C   -0.061014
     6  C   -0.312188
     7  C   -0.084183
     8  C    0.109477
     9  O   -0.437219
    10  H    0.130272
    11  H    0.126448
    12  H    0.120190
    13  H    0.088335
    14  H    0.093534
    15  H    0.120355
    16  H    0.110133
    17  H    0.097219
    18  H    0.087190
    19  H    0.297749
 Sum of Mulliken charges =   0.00000

 Dipole moment (field-independent basis, Debye):
    X=              1.8288    Y=              2.2123    Z=             -0.6245  Tot=              2.9375
 Quadrupole moment (field-independent basis, Debye-Ang):
   XX=            -55.2069   YY=            -53.6896   ZZ=            -54.2893
   XY=             -3.2036   XZ=             -1.0949   YZ=              2.3739

  Exact polarizability:  81.930  -1.545  77.502   1.146   1.158  66.645
 Approx polarizability: 117.981   4.336 117.328   5.191  -0.286 102.278

                      1                      2                      3
                      A                      A                      A
 Frequencies --     78.3457               132.6522               198.4374
 Red. masses --      2.5289                 4.1502                 1.0809
 Frc consts  --      0.0091                 0.0430                 0.0251
 IR Inten    --      7.9123                 1.1037                 0.2260

                      4                      5                      6
                      A                      A                      A
 Frequencies --    230.8826               271.1985               290.4707
 Red. masses --      2.8107                 3.1951                 4.4392
 Frc consts  --      0.0883                 0.1385                 0.2207
 IR Inten    --      0.3166                 7.3273                 3.3159

                      7                      8                      9
                      A                      A                      A
 Frequencies --    300.4519               380.3898               424.1783
 Red. masses --      2.8324                 3.1663                 3.7086
 Frc consts  --      0.1506                 0.2699                 0.3931
 IR Inten    --      0.8148                 2.8960                 1.4734

                     10                     11                     12
                      A                      A                      A
 Frequencies --    497.5283               604.1130               613.7575
 Red. masses --      3.9168                 1.2811                 3.2538
 Frc consts  --      0.5712                 0.2755                 0.7222
 IR Inten    --      1.6856               103.1639                10.7854

                     13                     14                     15
                      A                      A                      A
 Frequencies --    651.9987               774.1204               790.6824
 Red. masses --      2.8197                 2.1561                 2.2869
 Frc consts  --      0.7062                 0.7613                 0.8424
 IR Inten    --     12.9540                 2.1896                 4.9078

                     16                     17                     18
                      A                      A                      A
 Frequencies --    807.3382               905.8695               936.0653
 Red. masses --      2.0350                 1.7920                 2.2159
 Frc consts  --      0.7815                 0.8664                 1.1440
 IR Inten    --      2.1605                26.7512                43.4582

                     19                     20                     21
                      A                      A                      A
 Frequencies --    945.5642               954.9512              1001.4375
 Red. masses --      2.1058                 2.0214                 1.5896
 Frc consts  --      1.1093                 1.0861                 0.9393
 IR Inten    --      6.2043                 6.2104                 4.6803

                     22                     23                     24
                      A                      A                      A
 Frequencies --   1033.9987              1044.7774              1069.3602
 Red. masses --      1.4837                 1.4723                 1.3759
 Frc consts  --      0.9346                 0.9469                 0.9270
 IR Inten    --      3.4138                 2.6505                 0.1001

                     25                     26                     27
                      A                      A                      A
 Frequencies --   1085.0391              1136.1089              1158.6483
 Red. masses --      1.3706                 2.7282                 2.2423
 Frc consts  --      0.9507                 2.0747                 1.7736
 IR Inten    --      3.6360                10.0495                52.2256

                     28                     29                     30
                      A                      A                      A
 Frequencies --   1165.9586              1193.1149              1218.3948
 Red. masses --      2.7310                 1.9324                 3.0646
 Frc consts  --      2.1875                 1.6208                 2.6804
 IR Inten    --     27.4903                41.9819                15.7133

                     31                     32                     33
                      A                      A                      A
 Frequencies --   1264.5852              1280.0967              1333.8915
 Red. masses --      1.4421                 1.6978                 1.7509
 Frc consts  --      1.3588                 1.6392                 1.8354
 IR Inten    --     15.0490                22.4101                10.2750

                     34                     35                     36
                      A                      A                      A
 Frequencies --   1341.3075              1410.1860              1434.8235
 Red. masses --      2.1153                 1.2553                 1.2044
 Frc consts  --      2.2423                 1.4708                 1.4609
 IR Inten    --      0.7109                 5.0159                 7.0176

                     37                     38                     39
                      A                      A                      A
 Frequencies --   1468.1497              1484.6160              1495.4886
 Red. masses --      1.1923                 1.1232                 1.0629
 Frc consts  --      1.5142                 1.4586                 1.4006
 IR Inten    --     82.5589                 4.9991                14.5438

                     40                     41                     42
                      A                      A                      A
 Frequencies --   1499.4180              1791.6372              2877.2991
 Red. masses --      1.1083                10.3574                 1.0833
 Frc consts  --      1.4680                19.5885                 5.2840
 IR Inten    --     14.0219               129.8828               115.8634

                     43                     44                     45
                      A                      A                      A
 Frequencies --   3027.7164              3037.3698              3089.6297
 Red. masses --      1.0397                 1.0842                 1.1008
 Frc consts  --      5.6155                 5.8934                 6.1910
 IR Inten    --     21.1293                40.4878                19.0905

                     46                     47                     48
                      A                      A                      A
 Frequencies --   3111.4815              3118.7824              3171.5734
 Red. masses --      1.0597                 1.0944                 1.0911
 Frc consts  --      6.0445                 6.2720                 6.4664
 IR Inten    --     10.5742                24.9942                12.8630

                     49                     50                     51
                      A                      A                      A
 Frequencies --   3192.7606              3203.4797              3682.7324
 Red. masses --      1.1014                 1.1067                 1.0650
 Frc consts  --      6.6152                 6.6914                 8.5103
 IR Inten    --      4.1326                16.0220                93.5506

 - Thermochemistry -
 -------------------
 Temperature   298.150 Kelvin.  Pressure   1.00000 Atm.
 Atom     1 has atomic number  6 and mass  12.00000

 Molecular mass:   126.06808 amu.
 Principal axes and moments of inertia in atomic units:
                           1         2         3
     Eigenvalues --   823.157691089.930201316.97590
           X            0.99959  -0.02487  -0.01426
           Y            0.02600   0.99597   0.08586
           Z            0.01207  -0.08619   0.99621
 This molecule is an asymmetric top.
 Rotational symmetry number  1.
 Warning -- assumption of classical behavior for rotation
           may cause significant error
 Rotational temperatures (Kelvin)      0.10522     0.07947     0.06577
 Rotational constants (GHZ):           2.19246     1.65583     1.37037
 Zero-point vibrational energy     413984.8 (Joules/Mol)
                                   98.94475 (Kcal/Mol)
 Warning -- explicit consideration of  12 degrees of freedom as
           vibrations may cause significant error
 Vibrational temperatures:    112.72   190.86   285.51   332.19   390.19
          (Kelvin)            417.92   432.28   547.30   610.30   715.83
                              869.18   883.06   938.08  1113.79  1137.61
                             1161.58  1303.34  1346.79  1360.45  1373.96
                             1440.84  1487.69  1503.20  1538.57  1561.13
                             1634.61  1667.03  1677.55  1716.62  1753.00
                             1819.45  1841.77  1919.17  1929.84  2028.94
                             2064.39  2112.34  2136.03  2151.67  2157.33
                             2577.76  4139.79  4356.20  4370.09  4445.28
                             4476.72  4487.23  4563.18  4593.66  4609.09
                             5298.62

 Zero-point correction=                           0.157678 (Hartree/Particle)
 Thermal correction to Energy=                    0.166394
 Thermal correction to Enthalpy=                  0.167338
 Thermal correction to Gibbs Free Energy=         0.124546
 Sum of electronic and zero-point Energies=           -423.003274
 Sum of electronic and thermal Energies=              -422.994559
 Sum of electronic and thermal Enthalpies=            -422.993614
 Sum of electronic and thermal Free Energies=         -423.036407

                     E (Thermal)             CV                S
                      KCal/Mol        Cal/Mol-Kelvin    Cal/Mol-Kelvin
 Total                  104.414             33.407             90.065
 Electronic               0.000              0.000              0.000
 Translational            0.889              2.981             40.409
 Rotational               0.889              2.981             28.559
 Vibrational            102.636             27.446             21.097
 Vibration     1          0.600              1.964              3.932
 Vibration     2          0.613              1.921              2.907
 Vibration     3          0.637              1.842              2.148
 Vibration     4          0.653              1.794              1.872
 Vibration     5          0.675              1.726              1.589
 Vibration     6          0.686              1.691              1.471
 Vibration     7          0.693              1.673              1.414
 Vibration     8          0.750              1.512              1.038
 Vibration     9          0.786              1.418              0.878
 Vibration    10          0.853              1.256              0.664
 Vibration    11          0.963              1.023              0.443
 Vibration    12          0.973              1.003              0.427

 Optimization completed.
    -- Stationary point found.
 Normal termination of Gaussian 09 at Mon Jan 27 23:55:50 2020.
