 Gaussian 09, Revision D.01,
 Gaussian 09:  ES64L-G09RevD.01 24-Apr-2013

 -----------------------------
 # b3lyp 6-31G(2df,p) opt Freq
 -----------------------------

 -----
 titel
 -----
 Symbolic Z-matrix:
 Charge =  0 Multiplicity = 1

 SCF Done:  E(RB3LYP) =  -423.101797024     A.U. after   14 cycles
 Optimization completed.
    -- Stationary point found.
 Normal termination of Gaussian 09 at Tue Jan 28 12:48:05 2020.

 ----------------------------------------------------------------------
 #N Geom=AllCheck Guess=TCheck SCRF=Check GenChk RB3LYP/6-31G(2df,p) Fr
 eq
 ----------------------------------------------------------------------

 Structure from the checkpoint file:  "/scratch/puck/g09_f0f4c92f-6483-4276-9eb1-302ff90abae4/Gau-10923.chk"
 -----
 titel
 -----
 Charge =  0 Multiplicity = 1

                         Standard orientation:
 ---------------------------------------------------------------------
 Center     Atomic      Atomic             Coordinates (Angstroms)
 Number     Number       Type             X           Y           Z
 ---------------------------------------------------------------------
      1          6           0        2.899302    0.246044   -0.312576
      2          8           0        1.731105    0.532050    0.427104
      3          6           0        0.786764   -0.511181    0.397482
      4          6           0       -0.454128   -0.114676    1.177906
      5          6           0       -1.609803   -0.801468    0.428827
      6          8           0       -1.050025   -1.594230   -0.624146
      7          6           0       -0.147926   -0.479337   -0.853269
      8          6           0       -1.102353    0.507203   -0.065480
      9          6           0       -1.698667    1.844222   -0.351694
     10          1           0        2.692670    0.099239   -1.383061
     11          1           0        3.568942    1.101842   -0.199746
     12          1           0        3.406099   -0.655062    0.065005
     13          1           0        1.260656   -1.481513    0.610920
     14          1           0       -0.521375    0.206423    2.209690
     15          1           0       -2.543181   -1.107481    0.883878
     16          1           0        0.219776   -0.403069   -1.875027
     17          1           0       -2.290175    1.831796   -1.274010
     18          1           0       -2.360277    2.151892    0.465291
     19          1           0       -0.920896    2.608530   -0.453779
 ---------------------------------------------------------------------

 SCF Done:  E(RB3LYP) =  -423.101797023     A.U. after    1 cycles

 The electronic state is 1-A.
 Alpha  occ. eigenvalues --  -19.14279 -19.13540 -10.23756 -10.23685 -10.23319
 Alpha  occ. eigenvalues --  -10.22548 -10.19978 -10.18978 -10.18573  -1.06301
 Alpha  occ. eigenvalues --   -1.03243  -0.85673  -0.74061  -0.71493  -0.67874
 Alpha  occ. eigenvalues --   -0.62206  -0.56295  -0.53712  -0.50728  -0.49438
 Alpha  occ. eigenvalues --   -0.45884  -0.45460  -0.43529  -0.42552  -0.40089
 Alpha  occ. eigenvalues --   -0.39934  -0.38425  -0.36813  -0.35973  -0.31225
 Alpha  occ. eigenvalues --   -0.29163  -0.27298  -0.24677  -0.22340
 Alpha virt. eigenvalues --    0.07880   0.08983   0.10587   0.11131   0.12381
 Alpha virt. eigenvalues --    0.13720   0.14008   0.15205   0.15434   0.16273
 Alpha virt. eigenvalues --    0.17622   0.17760   0.19640   0.20273   0.22069

 Mulliken charges:
               1
     1  C   -0.238127
     2  O   -0.252946
     3  C    0.150136
     4  C   -0.211122
     5  C    0.030368
     6  O   -0.297051
     7  C   -0.030291
     8  C    0.302094
     9  C   -0.532728
    10  H    0.105942
    11  H    0.128194
    12  H    0.109612
    13  H    0.065215
    14  H    0.092962
    15  H    0.108706
    16  H    0.084395
    17  H    0.126175
    18  H    0.125194
    19  H    0.133272
 Sum of Mulliken charges =   0.00000

 Dipole moment (field-independent basis, Debye):
    X=              0.2752    Y=              1.0343    Z=              0.0107  Tot=              1.0703
 Quadrupole moment (field-independent basis, Debye-Ang):
   XX=            -48.2296   YY=            -56.7490   ZZ=            -51.7536
   XY=             -2.9612   XZ=             -4.0320   YZ=             -2.2561

  Exact polarizability:  86.183  -1.227  71.208  -2.863  -2.006  68.413
 Approx polarizability: 111.071   2.002 106.653  -2.703  -0.166 106.726

                      1                      2                      3
                      A                      A                      A
 Frequencies --     87.9982               118.4023               167.9009
 Red. masses --      2.5559                 2.1668                 1.4574
 Frc consts  --      0.0117                 0.0179                 0.0242
 IR Inten    --      1.6275                 1.9632                 1.5476

                      4                      5                      6
                      A                      A                      A
 Frequencies --    203.1433               232.5429               275.4458
 Red. masses --      1.0589                 2.5991                 2.6974
 Frc consts  --      0.0257                 0.0828                 0.1206
 IR Inten    --      0.0818                 0.8816                 1.4960

                      7                      8                      9
                      A                      A                      A
 Frequencies --    317.6101               421.8178               497.2579
 Red. masses --      3.3106                 3.8097                 5.8525
 Frc consts  --      0.1968                 0.3994                 0.8526
 IR Inten    --      3.6332                 0.0577                 0.6302

                     10                     11                     12
                      A                      A                      A
 Frequencies --    563.6486               609.3089               769.5076
 Red. masses --      3.8679                 3.1073                 4.7367
 Frc consts  --      0.7240                 0.6797                 1.6526
 IR Inten    --     12.6719                 3.5894                 7.1328

                     13                     14                     15
                      A                      A                      A
 Frequencies --    802.4609               848.8197               862.5146
 Red. masses --      2.6999                 2.5694                 2.1048
 Frc consts  --      1.0244                 1.0907                 0.9226
 IR Inten    --      4.4824                10.5217                 2.6463

                     16                     17                     18
                      A                      A                      A
 Frequencies --    886.7116               933.3959               970.7591
 Red. masses --      1.8567                 2.6706                 2.0487
 Frc consts  --      0.8601                 1.3709                 1.1375
 IR Inten    --      8.3620                18.5926                27.8704

                     19                     20                     21
                      A                      A                      A
 Frequencies --    986.2321               999.5549              1021.6020
 Red. masses --      2.5252                 2.0852                 1.9436
 Frc consts  --      1.4471                 1.2275                 1.1951
 IR Inten    --     10.8847                 0.4427                17.8369

                     22                     23                     24
                      A                      A                      A
 Frequencies --   1039.6206              1088.5076              1116.9385
 Red. masses --      2.4623                 3.4044                 1.9606
 Frc consts  --      1.5680                 2.3766                 1.4411
 IR Inten    --     25.4552                 3.6129                22.5500

                     25                     26                     27
                      A                      A                      A
 Frequencies --   1138.7163              1157.5137              1175.3859
 Red. masses --      3.2240                 1.8060                 1.7012
 Frc consts  --      2.4631                 1.4257                 1.3847
 IR Inten    --    100.3969                11.7018                 2.7839

                     28                     29                     30
                      A                      A                      A
 Frequencies --   1184.1897              1206.4471              1226.0714
 Red. masses --      1.4697                 1.3119                 1.9269
 Frc consts  --      1.2143                 1.1250                 1.7066
 IR Inten    --      8.7121                 4.7560                11.6028

                     31                     32                     33
                      A                      A                      A
 Frequencies --   1236.6278              1281.4644              1295.2788
 Red. masses --      2.1333                 1.7118                 1.4819
 Frc consts  --      1.9222                 1.6562                 1.4649
 IR Inten    --     58.7404                 3.6532                 5.9459

                     34                     35                     36
                      A                      A                      A
 Frequencies --   1378.8717              1409.4139              1468.0383
 Red. masses --      1.5078                 1.2193                 3.4664
 Frc consts  --      1.6891                 1.4271                 4.4015
 IR Inten    --     52.8001                 1.3886                 1.1368

                     37                     38                     39
                      A                      A                      A
 Frequencies --   1479.2083              1484.1214              1486.5549
 Red. masses --      1.1497                 1.1340                 1.0634
 Frc consts  --      1.4821                 1.4717                 1.3846
 IR Inten    --      2.0161                 4.0761                 4.3231

                     40                     41                     42
                      A                      A                      A
 Frequencies --   1497.7347              1508.5701              2978.4888
 Red. masses --      1.0773                 1.0597                 1.0433
 Frc consts  --      1.4239                 1.4208                 5.4534
 IR Inten    --      3.3712                 7.3499                32.1721

                     43                     44                     45
                      A                      A                      A
 Frequencies --   2990.9461              3025.7585              3027.8032
 Red. masses --      1.0760                 1.0348                 1.1031
 Frc consts  --      5.6711                 5.5818                 5.9582
 IR Inten    --     99.2210                32.4892                51.7354

                     46                     47                     48
                      A                      A                      A
 Frequencies --   3090.3868              3095.8200              3117.0584
 Red. masses --      1.1013                 1.1005                 1.0966
 Frc consts  --      6.1972                 6.2141                 6.2776
 IR Inten    --     19.3187                16.4235                28.3905

                     49                     50                     51
                      A                      A                      A
 Frequencies --   3138.3514              3196.4928              3206.1998
 Red. masses --      1.0924                 1.0917                 1.0967
 Frc consts  --      6.3393                 6.5719                 6.6422
 IR Inten    --     29.7507                 5.8861                19.1297

 - Thermochemistry -
 -------------------
 Temperature   298.150 Kelvin.  Pressure   1.00000 Atm.
 Atom     1 has atomic number  6 and mass  12.00000

 Molecular mass:   126.06808 amu.
 Principal axes and moments of inertia in atomic units:
                           1         2         3
     Eigenvalues --   636.098091300.394031545.58652
           X            0.99866  -0.04857  -0.01790
           Y            0.04763   0.99763  -0.04968
           Z            0.02027   0.04877   0.99860
 This molecule is an asymmetric top.
 Rotational symmetry number  1.
 Warning -- assumption of classical behavior for rotation
           may cause significant error
 Rotational temperatures (Kelvin)      0.13616     0.06661     0.05604
 Rotational constants (GHZ):           2.83721     1.38784     1.16767
 Zero-point vibrational energy     414525.3 (Joules/Mol)
                                   99.07392 (Kcal/Mol)
 Warning -- explicit consideration of  11 degrees of freedom as
           vibrations may cause significant error
 Vibrational temperatures:    126.61   170.35   241.57   292.28   334.58
          (Kelvin)            396.30   456.97   606.90   715.44   810.96
                              876.66  1107.15  1154.56  1221.26  1240.96
                             1275.78  1342.95  1396.70  1418.97  1438.13
                             1469.86  1495.78  1566.12  1607.02  1638.36
                             1665.40  1691.12  1703.78  1735.81  1764.04
                             1779.23  1843.74  1863.61  1983.89  2027.83
                             2112.18  2128.25  2135.32  2138.82  2154.90
                             2170.49  4285.38  4303.30  4353.39  4356.33
                             4446.37  4454.19  4484.75  4515.38  4599.03
                             4613.00

 Zero-point correction=                           0.157884 (Hartree/Particle)
 Thermal correction to Energy=                    0.166379
 Thermal correction to Enthalpy=                  0.167323
 Thermal correction to Gibbs Free Energy=         0.124662
 Sum of electronic and zero-point Energies=           -422.943913
 Sum of electronic and thermal Energies=              -422.935418
 Sum of electronic and thermal Enthalpies=            -422.934474
 Sum of electronic and thermal Free Energies=         -422.977135

                     E (Thermal)             CV                S
                      KCal/Mol        Cal/Mol-Kelvin    Cal/Mol-Kelvin
 Total                  104.404             31.885             89.787
 Electronic               0.000              0.000              0.000
 Translational            0.889              2.981             40.409
 Rotational               0.889              2.981             28.638
 Vibrational            102.627             25.923             20.741
 Vibration     1          0.601              1.958              3.704
 Vibration     2          0.609              1.934              3.126
 Vibration     3          0.625              1.882              2.459
 Vibration     4          0.639              1.835              2.104
 Vibration     5          0.653              1.791              1.859
 Vibration     6          0.677              1.719              1.562
 Vibration     7          0.704              1.640              1.322
 Vibration     8          0.784              1.423              0.886
 Vibration     9          0.853              1.256              0.665
 Vibration    10          0.919              1.110              0.517
 Vibration    11          0.968              1.012              0.434

 Optimization completed.
    -- Stationary point found.
 Normal termination of Gaussian 09 at Tue Jan 28 14:46:50 2020.
