 Gaussian 09, Revision D.01,
 Gaussian 09:  ES64L-G09RevD.01 24-Apr-2013

 -----------------------------
 # b3lyp 6-31G(2df,p) opt Freq
 -----------------------------

 -----
 titel
 -----
 Symbolic Z-matrix:
 Charge =  0 Multiplicity = 1

 SCF Done:  E(RB3LYP) =  -423.159978934     A.U. after   14 cycles
 Optimization completed.
    -- Stationary point found.
 Normal termination of Gaussian 09 at Tue Jan 28 08:21:51 2020.

 ----------------------------------------------------------------------
 #N Geom=AllCheck Guess=TCheck SCRF=Check GenChk RB3LYP/6-31G(2df,p) Fr
 eq
 ----------------------------------------------------------------------

 Structure from the checkpoint file:  "/scratch/puck/g09_c7a3a619-66ef-4b64-8362-d042a9128c41/Gau-59747.chk"
 -----
 titel
 -----
 Charge =  0 Multiplicity = 1

                         Standard orientation:
 ---------------------------------------------------------------------
 Center     Atomic      Atomic             Coordinates (Angstroms)
 Number     Number       Type             X           Y           Z
 ---------------------------------------------------------------------
      1          8           0       -2.341886   -1.346958   -0.261776
      2          6           0       -2.342141    0.017536    0.110165
      3          6           0       -0.996333    0.745595   -0.033654
      4          8           0       -0.939835    1.935364    0.182043
      5          6           0        0.204447   -0.087259   -0.408719
      6          6           0        0.717125   -0.985858    0.782749
      7          6           0        2.046396   -0.226316    0.742950
      8          6           0        2.666635   -0.313232   -0.622666
      9          6           0        1.540811    0.655625   -0.402128
     10          1           0       -2.371579   -1.401523   -1.221398
     11          1           0       -3.099902    0.607378   -0.424049
     12          1           0       -2.613181    0.053740    1.171663
     13          1           0       -0.021805   -0.651374   -1.321984
     14          1           0        0.151426   -0.810707    1.700953
     15          1           0        0.751442   -2.062716    0.595210
     16          1           0        2.621784    0.061278    1.614092
     17          1           0        3.650718    0.135145   -0.714374
     18          1           0        2.523240   -1.199192   -1.238851
     19          1           0        1.639994    1.724168   -0.535575
 ---------------------------------------------------------------------

 SCF Done:  E(RB3LYP) =  -423.159978934     A.U. after    1 cycles

 The electronic state is 1-A.
 Alpha  occ. eigenvalues --  -19.15324 -19.12839 -10.26522 -10.23968 -10.19752
 Alpha  occ. eigenvalues --  -10.19391 -10.19238 -10.18988 -10.18683  -1.04340
 Alpha  occ. eigenvalues --   -1.02974  -0.89655  -0.75433  -0.71161  -0.66894
 Alpha  occ. eigenvalues --   -0.59378  -0.56649  -0.53061  -0.52315  -0.48958
 Alpha  occ. eigenvalues --   -0.47056  -0.45180  -0.44161  -0.43178  -0.40244
 Alpha  occ. eigenvalues --   -0.38654  -0.37555  -0.34822  -0.32836  -0.32532
 Alpha  occ. eigenvalues --   -0.30705  -0.29148  -0.25999  -0.23578
 Alpha virt. eigenvalues --   -0.01491   0.05604   0.09531   0.11051   0.11401
 Alpha virt. eigenvalues --    0.12592   0.14056   0.14473   0.15515   0.17203
 Alpha virt. eigenvalues --    0.17647   0.18197   0.20640   0.22107   0.22644

 Mulliken charges:
               1
     1  O   -0.402646
     2  C   -0.167749
     3  C    0.303818
     4  O   -0.302291
     5  C   -0.082471
     6  C   -0.240567
     7  C   -0.028628
     8  C   -0.297001
     9  C   -0.041588
    10  H    0.291221
    11  H    0.125634
    12  H    0.146265
    13  H    0.069898
    14  H    0.112266
    15  H    0.105722
    16  H    0.088333
    17  H    0.113778
    18  H    0.100689
    19  H    0.105317
 Sum of Mulliken charges =   0.00000

 Dipole moment (field-independent basis, Debye):
    X=              0.0619    Y=             -1.5090    Z=             -1.2064  Tot=              1.9329
 Quadrupole moment (field-independent basis, Debye-Ang):
   XX=            -49.9687   YY=            -60.5012   ZZ=            -49.2161
   XY=              0.9005   XZ=              3.1903   YZ=              1.3022

  Exact polarizability:  88.385  -1.507  73.237  -1.361   0.886  64.979
 Approx polarizability: 109.160  -2.644 119.198  -0.477   1.585 102.506

                      1                      2                      3
                      A                      A                      A
 Frequencies --     45.7433                63.4814               124.9690
 Red. masses --      2.7065                 2.9055                 3.8075
 Frc consts  --      0.0033                 0.0069                 0.0350
 IR Inten    --      2.7865                 4.1097                 0.5739

                      4                      5                      6
                      A                      A                      A
 Frequencies --    150.5933               250.3939               293.7250
 Red. masses --      4.2386                 4.6731                 1.1530
 Frc consts  --      0.0566                 0.1726                 0.0586
 IR Inten    --      1.5093                 5.6716               144.2932

                      7                      8                      9
                      A                      A                      A
 Frequencies --    317.0631               405.3753               506.2841
 Red. masses --      2.4527                 2.3002                 5.5980
 Frc consts  --      0.1453                 0.2227                 0.8454
 IR Inten    --      6.9811                 0.3189                 0.9197

                     10                     11                     12
                      A                      A                      A
 Frequencies --    544.0801               562.5462               716.6101
 Red. masses --      4.7556                 2.7136                 2.4881
 Frc consts  --      0.8294                 0.5060                 0.7528
 IR Inten    --     32.9747                 1.8839                 2.4035

                     13                     14                     15
                      A                      A                      A
 Frequencies --    757.0961               793.0597               832.2528
 Red. masses --      2.3988                 1.8835                 2.2290
 Frc consts  --      0.8101                 0.6979                 0.9097
 IR Inten    --      3.2452                 3.9013                12.8453

                     16                     17                     18
                      A                      A                      A
 Frequencies --    899.9899               913.1524               935.1602
 Red. masses --      1.5769                 1.8790                 2.0352
 Frc consts  --      0.7526                 0.9231                 1.0487
 IR Inten    --      1.7055                 0.3553                14.9271

                     19                     20                     21
                      A                      A                      A
 Frequencies --    962.3320               999.0509              1002.6363
 Red. masses --      1.8654                 2.2976                 1.6141
 Frc consts  --      1.0178                 1.3511                 0.9561
 IR Inten    --      0.3602                 5.6313                 3.8542

                     22                     23                     24
                      A                      A                      A
 Frequencies --   1070.0252              1072.5006              1074.7875
 Red. masses --      1.2726                 1.8500                 1.6085
 Frc consts  --      0.8585                 1.2538                 1.0947
 IR Inten    --      0.5829                15.6696                 1.3325

                     25                     26                     27
                      A                      A                      A
 Frequencies --   1089.0812              1092.5812              1141.9699
 Red. masses --      2.2097                 2.1206                 1.6334
 Frc consts  --      1.5442                 1.4915                 1.2550
 IR Inten    --     56.4636                31.5913                19.9383

                     28                     29                     30
                      A                      A                      A
 Frequencies --   1160.1313              1196.1236              1200.9081
 Red. masses --      1.7669                 1.2702                 1.5705
 Frc consts  --      1.4011                 1.0707                 1.3345
 IR Inten    --     35.1197                19.7564                 0.8622

                     31                     32                     33
                      A                      A                      A
 Frequencies --   1218.1090              1249.0029              1291.4385
 Red. masses --      1.4954                 1.4563                 1.6816
 Frc consts  --      1.3073                 1.3385                 1.6524
 IR Inten    --      4.4757                 2.1071                 7.4796

                     34                     35                     36
                      A                      A                      A
 Frequencies --   1343.7774              1360.4115              1370.9643
 Red. masses --      2.1911                 1.3355                 2.2336
 Frc consts  --      2.3311                 1.4563                 2.4734
 IR Inten    --      8.0321                 6.5381                16.5294

                     37                     38                     39
                      A                      A                      A
 Frequencies --   1391.7460              1458.8286              1483.0080
 Red. masses --      1.2005                 1.0727                 1.1299
 Frc consts  --      1.3700                 1.3451                 1.4642
 IR Inten    --     27.1771                 6.1356                 1.8072

                     40                     41                     42
                      A                      A                      A
 Frequencies --   1499.1226              1799.0680              3015.5423
 Red. masses --      1.1882                12.2907                 1.0636
 Frc consts  --      1.5733                23.4381                 5.6984
 IR Inten    --      0.7512               138.2948                28.0410

                     43                     44                     45
                      A                      A                      A
 Frequencies --   3025.2584              3057.4831              3072.6899
 Red. masses --      1.0819                 1.0590                 1.0982
 Frc consts  --      5.8340                 5.8327                 6.1093
 IR Inten    --     31.7362                37.0916                10.9487

                     46                     47                     48
                      A                      A                      A
 Frequencies --   3100.1307              3109.3106              3184.3152
 Red. masses --      1.0586                 1.1074                 1.0946
 Frc consts  --      5.9946                 6.3080                 6.5392
 IR Inten    --     24.0123                20.4312                12.1557

                     49                     50                     51
                      A                      A                      A
 Frequencies --   3195.7839              3213.4085              3831.4968
 Red. masses --      1.1065                 1.0955                 1.0666
 Frc consts  --      6.6581                 6.6649                 9.2256
 IR Inten    --     12.3764                11.5330                27.3277

 - Thermochemistry -
 -------------------
 Temperature   298.150 Kelvin.  Pressure   1.00000 Atm.
 Atom     1 has atomic number  8 and mass  15.99491

 Molecular mass:   126.06808 amu.
 Principal axes and moments of inertia in atomic units:
                           1         2         3
     Eigenvalues --   585.109701571.288881889.03813
           X            1.00000   0.00006  -0.00137
           Y           -0.00006   0.99999   0.00391
           Z            0.00137  -0.00390   0.99999
 This molecule is an asymmetric top.
 Rotational symmetry number  1.
 Warning -- assumption of classical behavior for rotation
           may cause significant error
 Rotational temperatures (Kelvin)      0.14803     0.05512     0.04585
 Rotational constants (GHZ):           3.08445     1.14857     0.95538
 Zero-point vibrational energy     415370.9 (Joules/Mol)
                                   99.27604 (Kcal/Mol)
 Warning -- explicit consideration of  11 degrees of freedom as
           vibrations may cause significant error
 Vibrational temperatures:     65.81    91.34   179.80   216.67   360.26
          (Kelvin)            422.60   456.18   583.24   728.43   782.81
                              809.38  1031.04  1089.29  1141.03  1197.42
                             1294.88  1313.82  1345.49  1384.58  1437.41
                             1442.57  1539.53  1543.09  1546.38  1566.94
                             1571.98  1643.04  1669.17  1720.95  1727.84
                             1752.59  1797.03  1858.09  1933.39  1957.33
                             1972.51  2002.41  2098.93  2133.72  2156.90
                             2588.45  4338.69  4352.67  4399.03  4420.91
                             4460.39  4473.60  4581.51  4598.01  4623.37
                             5512.66

 Zero-point correction=                           0.158206 (Hartree/Particle)
 Thermal correction to Energy=                    0.167151
 Thermal correction to Enthalpy=                  0.168095
 Thermal correction to Gibbs Free Energy=         0.123476
 Sum of electronic and zero-point Energies=           -423.001772
 Sum of electronic and thermal Energies=              -422.992828
 Sum of electronic and thermal Enthalpies=            -422.991884
 Sum of electronic and thermal Free Energies=         -423.036503

                     E (Thermal)             CV                S
                      KCal/Mol        Cal/Mol-Kelvin    Cal/Mol-Kelvin
 Total                  104.889             32.825             93.908
 Electronic               0.000              0.000              0.000
 Translational            0.889              2.981             40.409
 Rotational               0.889              2.981             28.942
 Vibrational            103.111             26.863             24.558
 Vibration     1          0.595              1.979              4.993
 Vibration     2          0.597              1.972              4.346
 Vibration     3          0.610              1.928              3.022
 Vibration     4          0.618              1.902              2.665
 Vibration     5          0.663              1.762              1.728
 Vibration     6          0.689              1.685              1.452
 Vibration     7          0.704              1.641              1.325
 Vibration     8          0.770              1.459              0.943
 Vibration     9          0.862              1.236              0.643
 Vibration    10          0.899              1.153              0.557
 Vibration    11          0.918              1.112              0.519

 Optimization completed.
    -- Stationary point found.
 Normal termination of Gaussian 09 at Tue Jan 28 10:17:00 2020.
