 Gaussian 09, Revision D.01,
 Gaussian 09:  ES64L-G09RevD.01 24-Apr-2013

 -----------------------------
 # b3lyp 6-31G(2df,p) opt Freq
 -----------------------------

 -----
 titel
 -----
 Symbolic Z-matrix:
 Charge =  0 Multiplicity = 1

 SCF Done:  E(RB3LYP) =  -423.205941062     A.U. after   14 cycles
 Optimization completed.
    -- Stationary point found.
 Normal termination of Gaussian 09 at Tue Jan 28 03:02:35 2020.

 ----------------------------------------------------------------------
 #N Geom=AllCheck Guess=TCheck SCRF=Check GenChk RB3LYP/6-31G(2df,p) Fr
 eq
 ----------------------------------------------------------------------

 Structure from the checkpoint file:  "/scratch/puck/g09_af0c71fd-7f75-427a-bce1-d0e75b24e0a4/Gau-114307.chk"
 -----
 titel
 -----
 Charge =  0 Multiplicity = 1

                         Standard orientation:
 ---------------------------------------------------------------------
 Center     Atomic      Atomic             Coordinates (Angstroms)
 Number     Number       Type             X           Y           Z
 ---------------------------------------------------------------------
      1          8           0        2.275147   -0.856741    0.118432
      2          6           0        0.996526   -0.591464   -0.391212
      3          6           0       -0.074573   -1.558815    0.166282
      4          6           0       -1.460780   -0.893128    0.186719
      5          6           0       -1.429302    0.369299    1.088595
      6          6           0       -0.874924    1.139939   -0.164418
      7          6           0       -1.630461    0.079180   -1.019551
      8          6           0        0.606405    0.868858   -0.141660
      9          8           0        1.459053    1.692218    0.114038
     10          1           0        2.677203    0.016564    0.252813
     11          1           0        1.000047   -0.690803   -1.493328
     12          1           0       -0.090862   -2.473708   -0.434198
     13          1           0        0.223455   -1.843333    1.180974
     14          1           0       -2.250940   -1.624293    0.369309
     15          1           0       -2.431364    0.726349    1.337992
     16          1           0       -0.814655    0.348674    1.992821
     17          1           0       -1.090803    2.202797   -0.274345
     18          1           0       -2.674629    0.374062   -1.148759
     19          1           0       -1.218403   -0.203339   -1.991585
 ---------------------------------------------------------------------

 SCF Done:  E(RB3LYP) =  -423.205941062     A.U. after    1 cycles

 The electronic state is 1-A.
 Alpha  occ. eigenvalues --  -19.14049 -19.12907 -10.27049 -10.23761 -10.20666
 Alpha  occ. eigenvalues --  -10.20479 -10.20217 -10.20031 -10.19059  -1.05609
 Alpha  occ. eigenvalues --   -1.01011  -0.88477  -0.75657  -0.71575  -0.67676
 Alpha  occ. eigenvalues --   -0.61696  -0.58579  -0.52762  -0.51032  -0.49504
 Alpha  occ. eigenvalues --   -0.48411  -0.44985  -0.42412  -0.41681  -0.40598
 Alpha  occ. eigenvalues --   -0.40451  -0.36769  -0.35269  -0.34636  -0.33896
 Alpha  occ. eigenvalues --   -0.31736  -0.30932  -0.27327  -0.24595
 Alpha virt. eigenvalues --   -0.01926   0.07706   0.09015   0.10450   0.12246
 Alpha virt. eigenvalues --    0.12586   0.14053   0.15366   0.16250   0.16946
 Alpha virt. eigenvalues --    0.17495   0.18850   0.20300   0.21360   0.22330

 Mulliken charges:
               1
     1  O   -0.449182
     2  C    0.060882
     3  C   -0.237412
     4  C   -0.018292
     5  C   -0.223453
     6  C   -0.116955
     7  C   -0.245662
     8  C    0.376098
     9  O   -0.351862
    10  H    0.289345
    11  H    0.094174
    12  H    0.106149
    13  H    0.118761
    14  H    0.072455
    15  H    0.110659
    16  H    0.112711
    17  H    0.087369
    18  H    0.109398
    19  H    0.104817
 Sum of Mulliken charges =   0.00000

 Dipole moment (field-independent basis, Debye):
    X=             -3.1155    Y=             -0.5346    Z=             -0.4910  Tot=              3.1989
 Quadrupole moment (field-independent basis, Debye-Ang):
   XX=            -55.4397   YY=            -57.3252   ZZ=            -51.4690
   XY=             -0.2743   XZ=             -0.7207   YZ=             -0.0145

  Exact polarizability:  83.040   1.686  75.299   1.083   1.005  65.129
 Approx polarizability: 118.357   7.508 113.578   3.417   2.691 100.983

                      1                      2                      3
                      A                      A                      A
 Frequencies --    101.8568               180.4324               305.0827
 Red. masses --      5.4472                 3.1694                 4.5294
 Frc consts  --      0.0333                 0.0608                 0.2484
 IR Inten    --      0.8359                 0.7735                21.2910

                      4                      5                      6
                      A                      A                      A
 Frequencies --    361.2389               374.1219               410.0171
 Red. masses --      2.0816                 2.6723                 3.2929
 Frc consts  --      0.1600                 0.2204                 0.3262
 IR Inten    --      1.7649                 1.8477                20.0970

                      7                      8                      9
                      A                      A                      A
 Frequencies --    440.8996               457.4734               504.0976
 Red. masses --      4.1772                 1.5122                 2.1367
 Frc consts  --      0.4784                 0.1865                 0.3199
 IR Inten    --     12.8878                20.9231                30.1123

                     10                     11                     12
                      A                      A                      A
 Frequencies --    578.3119               663.3929               778.5923
 Red. masses --      3.0604                 4.0808                 2.8964
 Frc consts  --      0.6031                 1.0581                 1.0345
 IR Inten    --      2.8689                 4.4287                 0.7103

                     13                     14                     15
                      A                      A                      A
 Frequencies --    822.8862               840.1725               856.5251
 Red. masses --      1.7837                 3.0202                 3.2131
 Frc consts  --      0.7116                 1.2561                 1.3888
 IR Inten    --      0.0346                 3.2255                14.4959

                     16                     17                     18
                      A                      A                      A
 Frequencies --    894.2721               915.3332               943.8952
 Red. masses --      2.7608                 1.8946                 1.9728
 Frc consts  --      1.3009                 0.9353                 1.0356
 IR Inten    --      5.3705                 1.8170                 1.7553

                     19                     20                     21
                      A                      A                      A
 Frequencies --    988.2677              1018.5066              1046.9523
 Red. masses --      2.1327                 1.7158                 1.6027
 Frc consts  --      1.2273                 1.0487                 1.0350
 IR Inten    --      4.7795                48.6262                 2.8926

                     22                     23                     24
                      A                      A                      A
 Frequencies --   1056.1441              1083.8660              1118.6670
 Red. masses --      2.2502                 1.7065                 1.4220
 Frc consts  --      1.4788                 1.1812                 1.0485
 IR Inten    --     20.7016                 0.7462                 9.3168

                     25                     26                     27
                      A                      A                      A
 Frequencies --   1131.6147              1157.2666              1197.9620
 Red. masses --      1.1675                 3.1009                 1.3960
 Frc consts  --      0.8808                 2.4468                 1.1804
 IR Inten    --      2.5560                61.7642                15.4786

                     28                     29                     30
                      A                      A                      A
 Frequencies --   1226.3384              1245.5255              1255.6705
 Red. masses --      1.7065                 1.3682                 1.3802
 Frc consts  --      1.5121                 1.2506                 1.2822
 IR Inten    --      6.2040                 0.6482                18.1527

                     31                     32                     33
                      A                      A                      A
 Frequencies --   1280.1464              1287.0979              1312.5326
 Red. masses --      1.5984                 1.4529                 1.6266
 Frc consts  --      1.5433                 1.4181                 1.6511
 IR Inten    --     16.4693                 6.7609                 9.5870

                     34                     35                     36
                      A                      A                      A
 Frequencies --   1330.1646              1353.0844              1386.6154
 Red. masses --      1.6577                 1.3469                 1.5214
 Frc consts  --      1.7281                 1.4529                 1.7235
 IR Inten    --      1.2952                 1.5717                 3.4975

                     37                     38                     39
                      A                      A                      A
 Frequencies --   1433.0849              1482.5258              1496.7984
 Red. masses --      1.4540                 1.0867                 1.0891
 Frc consts  --      1.7593                 1.4073                 1.4377
 IR Inten    --     70.8914                 3.5526                 2.0317

                     40                     41                     42
                      A                      A                      A
 Frequencies --   1513.6336              1802.9807              2919.9229
 Red. masses --      1.1103                11.9149                 1.0787
 Frc consts  --      1.4988                22.8203                 5.4189
 IR Inten    --      1.3245               192.4808                31.6260

                     43                     44                     45
                      A                      A                      A
 Frequencies --   3046.3677              3055.2975              3061.1316
 Red. masses --      1.0597                 1.0572                 1.0585
 Frc consts  --      5.7942                 5.8144                 5.8438
 IR Inten    --     22.3294                34.7443                23.6912

                     46                     47                     48
                      A                      A                      A
 Frequencies --   3084.7594              3090.9671              3111.8506
 Red. masses --      1.0890                 1.1037                 1.0995
 Frc consts  --      6.1055                 6.2131                 6.2733
 IR Inten    --     40.5699                27.5908                19.8801

                     49                     50                     51
                      A                      A                      A
 Frequencies --   3113.8177              3118.0898              3686.2102
 Red. masses --      1.1095                 1.0969                 1.0646
 Frc consts  --      6.3379                 6.2832                 8.5228
 IR Inten    --     10.2691                39.4837                53.5662

 - Thermochemistry -
 -------------------
 Temperature   298.150 Kelvin.  Pressure   1.00000 Atm.
 Atom     1 has atomic number  8 and mass  15.99491

 Molecular mass:   126.06808 amu.
 Principal axes and moments of inertia in atomic units:
                           1         2         3
     Eigenvalues --   681.021801069.919001425.75333
           X            0.99979  -0.02017  -0.00199
           Y            0.02018   0.99979   0.00379
           Z            0.00191  -0.00383   0.99999
 This molecule is an asymmetric top.
 Rotational symmetry number  1.
 Warning -- assumption of classical behavior for rotation
           may cause significant error
 Rotational temperatures (Kelvin)      0.12718     0.08095     0.06075
 Rotational constants (GHZ):           2.65005     1.68680     1.26582
 Zero-point vibrational energy     424210.5 (Joules/Mol)
                                  101.38875 (Kcal/Mol)
 Warning -- explicit consideration of  10 degrees of freedom as
           vibrations may cause significant error
 Vibrational temperatures:    146.55   259.60   438.95   519.74   538.28
          (Kelvin)            589.92   634.36   658.20   725.28   832.06
                              954.47  1120.22  1183.95  1208.82  1232.35
                             1286.66  1316.96  1358.05  1421.90  1465.40
                             1506.33  1519.55  1559.44  1609.51  1628.14
                             1665.05  1723.60  1764.43  1792.03  1806.63
                             1841.84  1851.84  1888.44  1913.81  1946.78
                             1995.03  2061.89  2133.02  2153.56  2177.78
                             2594.08  4201.11  4383.04  4395.89  4404.28
                             4438.28  4447.21  4477.25  4480.08  4486.23
                             5303.63

 Zero-point correction=                           0.161573 (Hartree/Particle)
 Thermal correction to Energy=                    0.168986
 Thermal correction to Enthalpy=                  0.169930
 Thermal correction to Gibbs Free Energy=         0.129911
 Sum of electronic and zero-point Energies=           -423.044368
 Sum of electronic and thermal Energies=              -423.036955
 Sum of electronic and thermal Enthalpies=            -423.036011
 Sum of electronic and thermal Free Energies=         -423.076031

                     E (Thermal)             CV                S
                      KCal/Mol        Cal/Mol-Kelvin    Cal/Mol-Kelvin
 Total                  106.040             30.147             84.228
 Electronic               0.000              0.000              0.000
 Translational            0.889              2.981             40.409
 Rotational               0.889              2.981             28.431
 Vibrational            104.263             24.185             15.388
 Vibration     1          0.604              1.948              3.418
 Vibration     2          0.629              1.866              2.324
 Vibration     3          0.696              1.664              1.389
 Vibration     4          0.735              1.552              1.117
 Vibration     5          0.745              1.525              1.063
 Vibration     6          0.774              1.448              0.927
 Vibration     7          0.801              1.381              0.824
 Vibration     8          0.816              1.344              0.773
 Vibration     9          0.859              1.241              0.648
 Vibration    10          0.935              1.078              0.489

 Optimization completed.
    -- Stationary point found.
 Normal termination of Gaussian 09 at Tue Jan 28 03:49:41 2020.
