 Gaussian 09, Revision D.01,
 Gaussian 09:  ES64L-G09RevD.01 24-Apr-2013

 -----------------------------
 # b3lyp 6-31G(2df,p) opt Freq
 -----------------------------

 -----
 titel
 -----
 Symbolic Z-matrix:
 Charge =  0 Multiplicity = 1

 SCF Done:  E(RB3LYP) =  -423.184399778     A.U. after   12 cycles
 Optimization completed.
    -- Stationary point found.
 Normal termination of Gaussian 09 at Mon Jan 27 18:56:09 2020.

 ----------------------------------------------------------------------
 #N Geom=AllCheck Guess=TCheck SCRF=Check GenChk RB3LYP/6-31G(2df,p) Fr
 eq
 ----------------------------------------------------------------------

 Structure from the checkpoint file:  "/scratch/puck/g09_f7902b73-31e5-4ce1-ad41-c995ad0dabf1/Gau-172761.chk"
 -----
 titel
 -----
 Charge =  0 Multiplicity = 1

                         Standard orientation:
 ---------------------------------------------------------------------
 Center     Atomic      Atomic             Coordinates (Angstroms)
 Number     Number       Type             X           Y           Z
 ---------------------------------------------------------------------
      1          6           0        2.101548   -0.897286   -0.138287
      2          6           0        0.802248   -0.146426   -0.024751
      3          8           0        1.043067    1.245308   -0.052340
      4          6           0       -0.254205    1.862188    0.002324
      5          6           0       -1.212208    0.716203   -0.316267
      6          6           0       -1.252930   -0.414995    0.765832
      7          6           0       -1.257168   -1.448986   -0.380334
      8          6           0       -0.357046   -0.375549   -1.036275
      9          8           0        0.116186   -0.459171    1.211544
     10          1           0        1.915702   -1.972859   -0.181144
     11          1           0        2.638717   -0.587146   -1.037902
     12          1           0        2.725870   -0.685108    0.733296
     13          1           0       -0.428078    2.289911    0.997561
     14          1           0       -0.292356    2.668819   -0.737995
     15          1           0       -2.169390    0.975115   -0.766169
     16          1           0       -1.929419   -0.428568    1.619403
     17          1           0       -0.832961   -2.430621   -0.156650
     18          1           0       -2.222345   -1.545888   -0.883405
     19          1           0       -0.101197   -0.343640   -2.094071
 ---------------------------------------------------------------------

 SCF Done:  E(RB3LYP) =  -423.184399778     A.U. after    1 cycles

 The electronic state is 1-A.
 Alpha  occ. eigenvalues --  -19.13396 -19.13291 -10.27459 -10.23803 -10.22512
 Alpha  occ. eigenvalues --  -10.19593 -10.19472 -10.18714 -10.17523  -1.07643
 Alpha  occ. eigenvalues --   -0.99761  -0.84133  -0.76506  -0.70404  -0.66711
 Alpha  occ. eigenvalues --   -0.62988  -0.56957  -0.53691  -0.52410  -0.48484
 Alpha  occ. eigenvalues --   -0.47164  -0.45122  -0.43137  -0.40863  -0.38175
 Alpha  occ. eigenvalues --   -0.37628  -0.37086  -0.35564  -0.34114  -0.33086
 Alpha  occ. eigenvalues --   -0.31908  -0.31207  -0.25996  -0.23897
 Alpha virt. eigenvalues --    0.09459   0.10001   0.11642   0.12811   0.13513
 Alpha virt. eigenvalues --    0.14445   0.14978   0.15358   0.15539   0.16792
 Alpha virt. eigenvalues --    0.17733   0.18818   0.19414   0.20527   0.21675

 Mulliken charges:
               1
     1  C   -0.474628
     2  C    0.516515
     3  O   -0.288307
     4  C   -0.112655
     5  C   -0.075094
     6  C    0.085191
     7  C   -0.248347
     8  C   -0.128176
     9  O   -0.315896
    10  H    0.124201
    11  H    0.127385
    12  H    0.139456
    13  H    0.106887
    14  H    0.104028
    15  H    0.081700
    16  H    0.079539
    17  H    0.102098
    18  H    0.100688
    19  H    0.075415
 Sum of Mulliken charges =   0.00000

 Dipole moment (field-independent basis, Debye):
    X=             -1.7500    Y=             -0.3791    Z=             -1.3584  Tot=              2.2476
 Quadrupole moment (field-independent basis, Debye-Ang):
   XX=            -51.0002   YY=            -52.3263   ZZ=            -54.1697
   XY=             -2.8115   XZ=             -0.9843   YZ=              0.6586

  Exact polarizability:  77.893  -1.291  77.418  -0.972   0.554  65.269
 Approx polarizability: 109.984  -0.430 109.009  -1.206  -0.623 103.255

                      1                      2                      3
                      A                      A                      A
 Frequencies --    193.8642               236.5114               259.5895
 Red. masses --      1.0242                 2.6800                 2.6453
 Frc consts  --      0.0227                 0.0883                 0.1050
 IR Inten    --      0.0866                 4.0606                 2.7885

                      4                      5                      6
                      A                      A                      A
 Frequencies --    309.6714               422.5464               456.2744
 Red. masses --      2.3536                 3.3708                 2.1620
 Frc consts  --      0.1330                 0.3546                 0.2652
 IR Inten    --      0.6407                 0.8417                 1.0494

                      7                      8                      9
                      A                      A                      A
 Frequencies --    542.1552               610.3051               620.9221
 Red. masses --      5.5352                 5.7359                 3.6944
 Frc consts  --      0.9586                 1.2588                 0.8392
 IR Inten    --      4.4984                 3.7304                 1.3841

                     10                     11                     12
                      A                      A                      A
 Frequencies --    729.8128               759.2366               807.6104
 Red. masses --      3.7254                 4.3131                 2.3456
 Frc consts  --      1.1691                 1.4649                 0.9014
 IR Inten    --      3.6107                 4.6704                 1.3184

                     13                     14                     15
                      A                      A                      A
 Frequencies --    819.6227               868.8297               885.3457
 Red. masses --      3.9003                 2.0150                 2.1796
 Frc consts  --      1.5438                 0.8962                 1.0066
 IR Inten    --     43.2787                 2.9847                11.8370

                     16                     17                     18
                      A                      A                      A
 Frequencies --    901.2212               938.9014               942.5367
 Red. masses --      2.3277                 2.2588                 2.6257
 Frc consts  --      1.1139                 1.1732                 1.3743
 IR Inten    --     17.8827                 8.2228                41.2414

                     19                     20                     21
                      A                      A                      A
 Frequencies --    991.0959              1009.9324              1020.9326
 Red. masses --      2.2063                 1.5726                 2.2747
 Frc consts  --      1.2769                 0.9451                 1.3969
 IR Inten    --     30.9033                 1.4059                20.9038

                     22                     23                     24
                      A                      A                      A
 Frequencies --   1045.5170              1057.8645              1100.5941
 Red. masses --      2.3640                 1.5468                 2.2765
 Frc consts  --      1.5225                 1.0199                 1.6247
 IR Inten    --      1.5358                11.3272                27.8605

                     25                     26                     27
                      A                      A                      A
 Frequencies --   1107.0097              1145.1336              1173.2526
 Red. masses --      1.8386                 1.6159                 2.2612
 Frc consts  --      1.3275                 1.2485                 1.8339
 IR Inten    --     26.7627                11.8911                61.6781

                     28                     29                     30
                      A                      A                      A
 Frequencies --   1181.1047              1206.8531              1224.3618
 Red. masses --      1.5427                 1.5981                 1.2508
 Frc consts  --      1.2679                 1.3714                 1.1047
 IR Inten    --      1.4496                14.1187                 1.7735

                     31                     32                     33
                      A                      A                      A
 Frequencies --   1251.0197              1266.9531              1311.2010
 Red. masses --      1.6193                 1.6712                 1.8757
 Frc consts  --      1.4931                 1.5805                 1.9000
 IR Inten    --      3.3963                 4.7253                12.2450

                     34                     35                     36
                      A                      A                      A
 Frequencies --   1323.4377              1338.4437              1379.0479
 Red. masses --      1.6372                 2.3516                 1.4103
 Frc consts  --      1.6895                 2.4821                 1.5803
 IR Inten    --      7.7417                28.2078                11.4242

                     37                     38                     39
                      A                      A                      A
 Frequencies --   1421.3866              1479.1484              1487.3497
 Red. masses --      1.6487                 1.0546                 1.0767
 Frc consts  --      1.9625                 1.3594                 1.4034
 IR Inten    --     32.1887                 2.1959                 1.5189

                     40                     41                     42
                      A                      A                      A
 Frequencies --   1491.5191              1515.6275              3023.0468
 Red. masses --      1.1009                 1.0947                 1.0583
 Frc consts  --      1.4429                 1.4816                 5.6983
 IR Inten    --      2.5506                 0.2753                63.6841

                     43                     44                     45
                      A                      A                      A
 Frequencies --   3055.9467              3062.2672              3065.0231
 Red. masses --      1.0348                 1.0560                 1.1072
 Frc consts  --      5.6937                 5.8347                 6.1281
 IR Inten    --     10.6612                31.0185                32.5593

                     46                     47                     48
                      A                      A                      A
 Frequencies --   3124.0265              3127.7225              3130.4352
 Red. masses --      1.1082                 1.0911                 1.0901
 Frc consts  --      6.3722                 6.2891                 6.2938
 IR Inten    --     12.8622                14.3942                48.6794

                     49                     50                     51
                      A                      A                      A
 Frequencies --   3133.0520              3136.9880              3138.8625
 Red. masses --      1.1009                 1.1018                 1.0932
 Frc consts  --      6.3667                 6.3884                 6.3457
 IR Inten    --     21.2585                18.3804                25.3516

 - Thermochemistry -
 -------------------
 Temperature   298.150 Kelvin.  Pressure   1.00000 Atm.
 Atom     1 has atomic number  6 and mass  12.00000

 Molecular mass:   126.06808 amu.
 Principal axes and moments of inertia in atomic units:
                           1         2         3
     Eigenvalues --   710.90637 813.241831108.43734
           X            0.98615  -0.16578  -0.00490
           Y            0.16585   0.98590   0.02217
           Z            0.00115  -0.02268   0.99974
 This molecule is an asymmetric top.
 Rotational symmetry number  1.
 Warning -- assumption of classical behavior for rotation
           may cause significant error
 Rotational temperatures (Kelvin)      0.12184     0.10650     0.07814
 Rotational constants (GHZ):           2.53865     2.21919     1.62819
 Zero-point vibrational energy     423664.1 (Joules/Mol)
                                  101.25816 (Kcal/Mol)
 Warning -- explicit consideration of   8 degrees of freedom as
           vibrations may cause significant error
 Vibrational temperatures:    278.93   340.29   373.49   445.55   607.95
          (Kelvin)            656.48   780.04   878.09   893.37  1050.04
                             1092.37  1161.97  1179.25  1250.05  1273.81
                             1296.65  1350.87  1356.10  1425.96  1453.07
                             1468.89  1504.26  1522.03  1583.51  1592.74
                             1647.59  1688.05  1699.34  1736.39  1761.58
                             1799.94  1822.86  1886.52  1904.13  1925.72
                             1984.14  2045.06  2128.16  2139.96  2145.96
                             2180.65  4349.48  4396.82  4405.91  4409.88
                             4494.77  4500.09  4503.99  4507.76  4513.42
                             4516.12

 Zero-point correction=                           0.161365 (Hartree/Particle)
 Thermal correction to Energy=                    0.168203
 Thermal correction to Enthalpy=                  0.169147
 Thermal correction to Gibbs Free Energy=         0.130634
 Sum of electronic and zero-point Energies=           -423.023035
 Sum of electronic and thermal Energies=              -423.016196
 Sum of electronic and thermal Enthalpies=            -423.015252
 Sum of electronic and thermal Free Energies=         -423.053766

                     E (Thermal)             CV                S
                      KCal/Mol        Cal/Mol-Kelvin    Cal/Mol-Kelvin
 Total                  105.549             28.780             81.059
 Electronic               0.000              0.000              0.000
 Translational            0.889              2.981             40.409
 Rotational               0.889              2.981             27.951
 Vibrational            103.772             22.818             12.699
 Vibration     1          0.635              1.848              2.191
 Vibration     2          0.655              1.785              1.829
 Vibration     3          0.668              1.747              1.665
 Vibration     4          0.699              1.655              1.364
 Vibration     5          0.785              1.421              0.883
 Vibration     6          0.815              1.347              0.777
 Vibration     7          0.897              1.157              0.561
 Vibration     8          0.969              1.010              0.432

 Optimization completed.
    -- Stationary point found.
 Normal termination of Gaussian 09 at Mon Jan 27 19:41:07 2020.
