 Gaussian 09, Revision D.01,
 Gaussian 09:  ES64L-G09RevD.01 24-Apr-2013

 -----------------------------
 # b3lyp 6-31G(2df,p) opt Freq
 -----------------------------

 -----
 titel
 -----
 Symbolic Z-matrix:
 Charge =  0 Multiplicity = 1

 SCF Done:  E(RB3LYP) =  -423.152579015     A.U. after   15 cycles
 Optimization completed.
    -- Stationary point found.
 Normal termination of Gaussian 09 at Tue Jan 28 08:20:24 2020.

 ----------------------------------------------------------------------
 #N Geom=AllCheck Guess=TCheck SCRF=Check GenChk RB3LYP/6-31G(2df,p) Fr
 eq
 ----------------------------------------------------------------------

 Structure from the checkpoint file:  "/scratch/puck/g09_c4a6efe3-344c-464d-9b5b-a4409f594405/Gau-106665.chk"
 -----
 titel
 -----
 Charge =  0 Multiplicity = 1

                         Standard orientation:
 ---------------------------------------------------------------------
 Center     Atomic      Atomic             Coordinates (Angstroms)
 Number     Number       Type             X           Y           Z
 ---------------------------------------------------------------------
      1          6           0        3.221420   -0.261857   -0.538059
      2          8           0        2.132169   -0.824217    0.172659
      3          6           0        0.879284   -0.242056   -0.138217
      4          6           0       -0.193094   -1.204845    0.399468
      5          6           0       -1.549852   -0.736086    0.149523
      6          6           0       -2.657952   -0.318913   -0.067431
      7          6           0       -3.999892    0.181797   -0.326903
      8          6           0        0.785872    1.119060    0.552722
      9          8           0        0.612131    2.168394   -0.006816
     10          1           0        3.352685    0.807733   -0.323801
     11          1           0        4.116986   -0.799590   -0.219653
     12          1           0        3.094933   -0.383433   -1.623588
     13          1           0        0.758469   -0.092381   -1.220088
     14          1           0       -0.018710   -2.183005   -0.063348
     15          1           0       -0.020181   -1.339501    1.475396
     16          1           0       -4.617576    0.152630    0.577385
     17          1           0       -3.972101    1.219564   -0.676425
     18          1           0       -4.506012   -0.413864   -1.094485
     19          1           0        0.942385    1.055839    1.655232
 ---------------------------------------------------------------------

 SCF Done:  E(RB3LYP) =  -423.152579015     A.U. after    1 cycles

 The electronic state is 1-A.
 Alpha  occ. eigenvalues --  -19.15839 -19.14593 -10.27103 -10.24706 -10.23409
 Alpha  occ. eigenvalues --  -10.21415 -10.20390 -10.17722 -10.17204  -1.05766
 Alpha  occ. eigenvalues --   -1.04278  -0.81086  -0.76909  -0.71632  -0.67272
 Alpha  occ. eigenvalues --   -0.65583  -0.58273  -0.52032  -0.48351  -0.48082
 Alpha  occ. eigenvalues --   -0.46558  -0.44550  -0.44215  -0.42876  -0.42573
 Alpha  occ. eigenvalues --   -0.42474  -0.40674  -0.38896  -0.37180  -0.33572
 Alpha  occ. eigenvalues --   -0.29132  -0.25726  -0.25200  -0.24123
 Alpha virt. eigenvalues --   -0.03042   0.05344   0.05824   0.09664   0.11091
 Alpha virt. eigenvalues --    0.11794   0.12702   0.14169   0.15853   0.16050
 Alpha virt. eigenvalues --    0.16680   0.17326   0.18217   0.20426   0.20714

 Mulliken charges:
               1
     1  C   -0.245942
     2  O   -0.243810
     3  C    0.049761
     4  C   -0.382573
     5  C    0.030476
     6  C    0.093776
     7  C   -0.498148
     8  C    0.154260
     9  O   -0.237859
    10  H    0.123898
    11  H    0.134151
    12  H    0.116556
    13  H    0.093419
    14  H    0.141071
    15  H    0.137614
    16  H    0.149048
    17  H    0.154810
    18  H    0.148548
    19  H    0.080945
 Sum of Mulliken charges =   0.00000

 Dipole moment (field-independent basis, Debye):
    X=             -0.0063    Y=             -1.3332    Z=             -0.1681  Tot=              1.3437
 Quadrupole moment (field-independent basis, Debye-Ang):
   XX=            -42.2407   YY=            -59.7490   ZZ=            -51.8897
   XY=             -1.2867   XZ=             -0.5764   YZ=              1.2624

  Exact polarizability: 110.187  -8.925  70.806   3.359  -2.164  63.445
 Approx polarizability: 141.700 -20.160 109.367   9.769  -9.803  96.315

                      1                      2                      3
                      A                      A                      A
 Frequencies --     18.1375                21.9343                46.3651
 Red. masses --      5.0762                 1.0312                 3.6579
 Frc consts  --      0.0010                 0.0003                 0.0046
 IR Inten    --      7.4921                 0.0947                 0.6459

                      4                      5                      6
                      A                      A                      A
 Frequencies --     71.8967               105.0222               183.0672
 Red. masses --      3.3753                 2.2273                 1.2847
 Frc consts  --      0.0103                 0.0145                 0.0254
 IR Inten    --      1.0977                 2.4434                 0.0737

                      7                      8                      9
                      A                      A                      A
 Frequencies --    209.7962               224.4826               275.7735
 Red. masses --      2.8246                 3.7646                 2.4187
 Frc consts  --      0.0732                 0.1118                 0.1084
 IR Inten    --      8.1459                 5.4909                 2.0054

                     10                     11                     12
                      A                      A                      A
 Frequencies --    324.5573               359.6658               393.5589
 Red. masses --      3.6495                 3.2547                 4.0032
 Frc consts  --      0.2265                 0.2481                 0.3653
 IR Inten    --      2.1921                23.4837                 1.4343

                     13                     14                     15
                      A                      A                      A
 Frequencies --    412.4872               494.1977               547.8778
 Red. masses --      4.0509                 5.2320                 4.1296
 Frc consts  --      0.4061                 0.7529                 0.7303
 IR Inten    --      1.9103                 2.8649                 6.0121

                     16                     17                     18
                      A                      A                      A
 Frequencies --    776.9211               848.4672               942.4641
 Red. masses --      3.8306                 1.6745                 2.9197
 Frc consts  --      1.3623                 0.7102                 1.5280
 IR Inten    --      1.1274                 7.2181                13.1879

                     19                     20                     21
                      A                      A                      A
 Frequencies --   1027.1884              1051.3280              1053.4398
 Red. masses --      3.0265                 1.4650                 1.4173
 Frc consts  --      1.8814                 0.9540                 0.9267
 IR Inten    --      4.5184                 2.5490                 1.6765

                     22                     23                     24
                      A                      A                      A
 Frequencies --   1075.6492              1087.9051              1136.9134
 Red. masses --      2.1652                 2.7537                 4.9412
 Frc consts  --      1.4760                 1.9202                 3.7630
 IR Inten    --      3.3897                 2.6185               173.2797

                     25                     26                     27
                      A                      A                      A
 Frequencies --   1171.4525              1185.1143              1202.1603
 Red. masses --      3.1099                 1.2801                 1.3527
 Frc consts  --      2.5145                 1.0593                 1.1518
 IR Inten    --      6.4755                 2.1082                20.3724

                     28                     29                     30
                      A                      A                      A
 Frequencies --   1230.3285              1309.4022              1322.8853
 Red. masses --      1.5458                 1.4230                 1.3671
 Frc consts  --      1.3786                 1.4374                 1.4096
 IR Inten    --     14.2297                12.9782                 4.8902

                     31                     32                     33
                      A                      A                      A
 Frequencies --   1366.9241              1413.5236              1414.8387
 Red. masses --      1.3615                 1.2190                 1.2463
 Frc consts  --      1.4989                 1.4350                 1.4700
 IR Inten    --      9.5494                 1.1934                 5.7651

                     34                     35                     36
                      A                      A                      A
 Frequencies --   1474.6476              1477.9339              1478.2356
 Red. masses --      1.0876                 1.0396                 1.0395
 Frc consts  --      1.3935                 1.3379                 1.3383
 IR Inten    --      3.7342                 5.5279                 5.6646

                     37                     38                     39
                      A                      A                      A
 Frequencies --   1481.3827              1489.9899              1510.1863
 Red. masses --      1.1144                 1.0635                 1.0641
 Frc consts  --      1.4409                 1.3911                 1.4298
 IR Inten    --      2.1630                 4.0463                11.2678

                     40                     41                     42
                      A                      A                      A
 Frequencies --   1840.1989              2377.2720              2864.1648
 Red. masses --     10.4747                11.8236                 1.0829
 Frc consts  --     20.8988                39.3693                 5.2340
 IR Inten    --    117.5609                 3.1849                89.2130

                     43                     44                     45
                      A                      A                      A
 Frequencies --   2992.1051              3018.8852              3026.8107
 Red. masses --      1.0360                 1.0779                 1.0661
 Frc consts  --      5.4645                 5.7879                 5.7547
 IR Inten    --     49.0043                 8.7896                32.1781

                     46                     47                     48
                      A                      A                      A
 Frequencies --   3028.7290              3046.4745              3064.3273
 Red. masses --      1.0350                 1.1036                 1.0996
 Frc consts  --      5.5938                 6.0345                 6.0836
 IR Inten    --     32.1045                39.8007                10.4521

                     49                     50                     51
                      A                      A                      A
 Frequencies --   3089.4736              3091.6566              3124.9754
 Red. masses --      1.1003                 1.1002                 1.0984
 Frc consts  --      6.1875                 6.1957                 6.3201
 IR Inten    --      9.8975                 8.4948                24.3586

 - Thermochemistry -
 -------------------
 Temperature   298.150 Kelvin.  Pressure   1.00000 Atm.
 Atom     1 has atomic number  6 and mass  12.00000

 Molecular mass:   126.06808 amu.
 Principal axes and moments of inertia in atomic units:
                           1         2         3
     Eigenvalues --   577.096472306.966152722.50995
           X            0.99996  -0.00911  -0.00240
           Y            0.00912   0.99996   0.00263
           Z            0.00238  -0.00265   0.99999
 This molecule is an asymmetric top.
 Rotational symmetry number  1.
 Warning -- assumption of classical behavior for rotation
           may cause significant error
 Rotational temperatures (Kelvin)      0.15009     0.03754     0.03181
 Rotational constants (GHZ):           3.12728     0.78230     0.66290
 Zero-point vibrational energy     405433.4 (Joules/Mol)
                                   96.90091 (Kcal/Mol)
 Warning -- explicit consideration of  15 degrees of freedom as
           vibrations may cause significant error
 Vibrational temperatures:     26.10    31.56    66.71   103.44   151.10
          (Kelvin)            263.39   301.85   322.98   396.78   466.97
                              517.48   566.24   593.48   711.04   788.27
                             1117.81  1220.75  1355.99  1477.89  1512.62
                             1515.66  1547.62  1565.25  1635.76  1685.46
                             1705.11  1729.64  1770.17  1883.94  1903.33
                             1966.70  2033.74  2035.63  2121.69  2126.41
                             2126.85  2131.38  2143.76  2172.82  2647.63
                             3420.36  4120.89  4304.97  4343.50  4354.90
                             4357.66  4383.19  4408.88  4445.06  4448.20
                             4496.14

 Zero-point correction=                           0.154421 (Hartree/Particle)
 Thermal correction to Energy=                    0.165801
 Thermal correction to Enthalpy=                  0.166745
 Thermal correction to Gibbs Free Energy=         0.114272
 Sum of electronic and zero-point Energies=           -422.998158
 Sum of electronic and thermal Energies=              -422.986778
 Sum of electronic and thermal Enthalpies=            -422.985834
 Sum of electronic and thermal Free Energies=         -423.038307

                     E (Thermal)             CV                S
                      KCal/Mol        Cal/Mol-Kelvin    Cal/Mol-Kelvin
 Total                  104.042             37.025            110.440
 Electronic               0.000              0.000              0.000
 Translational            0.889              2.981             40.409
 Rotational               0.889              2.981             29.673
 Vibrational            102.264             31.063             40.358
 Vibration     1          0.593              1.986              6.828
 Vibration     2          0.593              1.985              6.451
 Vibration     3          0.595              1.979              4.967
 Vibration     4          0.598              1.967              4.101
 Vibration     5          0.605              1.945              3.359
 Vibration     6          0.631              1.863              2.297
 Vibration     7          0.642              1.826              2.045
 Vibration     8          0.649              1.804              1.923
 Vibration     9          0.677              1.718              1.560
 Vibration    10          0.709              1.626              1.287
 Vibration    11          0.734              1.555              1.124
 Vibration    12          0.761              1.484              0.987
 Vibration    13          0.776              1.443              0.918
 Vibration    14          0.850              1.263              0.673
 Vibration    15          0.903              1.144              0.549

 Optimization completed on the basis of negligible forces.
    -- Stationary point found.
 Normal termination of Gaussian 09 at Tue Jan 28 08:57:35 2020.
