 Gaussian 09, Revision D.01,
 Gaussian 09:  ES64L-G09RevD.01 24-Apr-2013

 -----------------------------
 # b3lyp 6-31G(2df,p) opt Freq
 -----------------------------

 -----
 titel
 -----
 Symbolic Z-matrix:
 Charge =  0 Multiplicity = 1

 SCF Done:  E(RB3LYP) =  -423.123426212     A.U. after   13 cycles
 Optimization completed.
    -- Stationary point found.
 Normal termination of Gaussian 09 at Tue Jan 28 09:28:30 2020.

 ----------------------------------------------------------------------
 #N Geom=AllCheck Guess=TCheck SCRF=Check GenChk RB3LYP/6-31G(2df,p) Fr
 eq
 ----------------------------------------------------------------------

 Structure from the checkpoint file:  "/scratch/puck/g09_aaa63aa8-f948-4a83-8324-72feadb371fc/Gau-189096.chk"
 -----
 titel
 -----
 Charge =  0 Multiplicity = 1

                         Standard orientation:
 ---------------------------------------------------------------------
 Center     Atomic      Atomic             Coordinates (Angstroms)
 Number     Number       Type             X           Y           Z
 ---------------------------------------------------------------------
      1          8           0        3.003072    0.088624   -0.631850
      2          6           0        2.090453   -0.789612    0.007962
      3          6           0        0.770415   -0.143789    0.341689
      4          6           0        0.601693    1.315988    0.648542
      5          6           0       -0.139980    0.728528   -0.532355
      6          6           0       -1.342515   -0.031067   -0.019538
      7          6           0       -2.746996    0.363914    0.098467
      8          8           0       -2.309839   -0.592790   -0.884819
      9          6           0       -0.452393   -0.925626    0.865891
     10          1           0        3.354255    0.684979    0.036218
     11          1           0        1.927708   -1.616378   -0.693693
     12          1           0        2.529714   -1.227870    0.919449
     13          1           0        0.061849    1.644518    1.534128
     14          1           0        1.435293    1.952242    0.369079
     15          1           0        0.005546    1.081614   -1.545495
     16          1           0       -3.363995   -0.045217    0.897678
     17          1           0       -3.076862    1.322496   -0.300154
     18          1           0       -0.620565   -0.915373    1.947705
     19          1           0       -0.482870   -1.957697    0.504489
 ---------------------------------------------------------------------

 SCF Done:  E(RB3LYP) =  -423.123426212     A.U. after    1 cycles

 The electronic state is 1-A.
 Alpha  occ. eigenvalues --  -19.14642 -19.14154 -10.24276 -10.23344 -10.22732
 Alpha  occ. eigenvalues --  -10.20167 -10.19309 -10.19205 -10.18950  -1.06764
 Alpha  occ. eigenvalues --   -1.02232  -0.89884  -0.72368  -0.71023  -0.65954
 Alpha  occ. eigenvalues --   -0.62975  -0.56893  -0.53091  -0.51863  -0.50182
 Alpha  occ. eigenvalues --   -0.47738  -0.46458  -0.44006  -0.42652  -0.39915
 Alpha  occ. eigenvalues --   -0.38933  -0.37611  -0.34421  -0.33972  -0.31427
 Alpha  occ. eigenvalues --   -0.29194  -0.27672  -0.26215  -0.24811
 Alpha virt. eigenvalues --    0.06478   0.09709   0.10030   0.11354   0.11712
 Alpha virt. eigenvalues --    0.12166   0.13692   0.14220   0.14682   0.16067
 Alpha virt. eigenvalues --    0.16780   0.17928   0.18857   0.21566   0.22471

 Mulliken charges:
               1
     1  O   -0.408457
     2  C   -0.194087
     3  C    0.340977
     4  C   -0.343023
     5  C   -0.182455
     6  C    0.477200
     7  C   -0.272722
     8  O   -0.280731
     9  C   -0.396923
    10  H    0.287025
    11  H    0.116991
    12  H    0.091754
    13  H    0.105082
    14  H    0.107908
    15  H    0.105099
    16  H    0.112412
    17  H    0.114450
    18  H    0.098021
    19  H    0.121476
 Sum of Mulliken charges =   0.00000

 Dipole moment (field-independent basis, Debye):
    X=              0.6253    Y=              1.0401    Z=              2.4989  Tot=              2.7780
 Quadrupole moment (field-independent basis, Debye-Ang):
   XX=            -54.1061   YY=            -51.4560   ZZ=            -54.6649
   XY=             -0.9864   XZ=              0.9077   YZ=             -1.0050

  Exact polarizability:  91.432  -1.330  72.246  -0.041  -1.349  65.097
 Approx polarizability: 116.510  -0.532 109.004   1.954   1.106 104.090

                      1                      2                      3
                      A                      A                      A
 Frequencies --     67.8321               112.2498               179.4585
 Red. masses --      4.7816                 2.9126                 3.5466
 Frc consts  --      0.0130                 0.0216                 0.0673
 IR Inten    --      1.0834                 2.0994                 3.5220

                      4                      5                      6
                      A                      A                      A
 Frequencies --    278.7958               295.7185               320.6090
 Red. masses --      2.6339                 1.4029                 1.8112
 Frc consts  --      0.1206                 0.0723                 0.1097
 IR Inten    --     29.0484                72.0783                38.9183

                      7                      8                      9
                      A                      A                      A
 Frequencies --    347.1733               382.2883               436.5830
 Red. masses --      3.7319                 2.0480                 3.2873
 Frc consts  --      0.2650                 0.1763                 0.3692
 IR Inten    --      2.0864                 3.8144                 4.4008

                     10                     11                     12
                      A                      A                      A
 Frequencies --    493.7947               581.2659               671.1819
 Red. masses --      3.0379                 3.3866                 2.8607
 Frc consts  --      0.4364                 0.6742                 0.7593
 IR Inten    --      8.4877                 4.3717                 4.5723

                     13                     14                     15
                      A                      A                      A
 Frequencies --    788.2371               815.5836               841.8251
 Red. masses --      2.8581                 2.4111                 2.9514
 Frc consts  --      1.0463                 0.9449                 1.2323
 IR Inten    --      5.7654                 3.7528                22.7876

                     16                     17                     18
                      A                      A                      A
 Frequencies --    864.2160               919.8668               945.7212
 Red. masses --      1.5555                 2.3829                 1.9265
 Frc consts  --      0.6845                 1.1880                 1.0152
 IR Inten    --     10.6214                 7.5222                 4.7148

                     19                     20                     21
                      A                      A                      A
 Frequencies --    971.7697               981.3079              1010.0405
 Red. masses --      1.7387                 1.5248                 1.8214
 Frc consts  --      0.9674                 0.8651                 1.0948
 IR Inten    --      6.3924                14.7920                21.2040

                     22                     23                     24
                      A                      A                      A
 Frequencies --   1038.1949              1074.6618              1085.7796
 Red. masses --      1.6896                 3.9557                 1.3816
 Frc consts  --      1.0730                 2.6916                 0.9596
 IR Inten    --     23.2399                66.7799                 3.5246

                     25                     26                     27
                      A                      A                      A
 Frequencies --   1095.3672              1120.8555              1130.4775
 Red. masses --      2.0981                 1.3164                 1.3187
 Frc consts  --      1.4832                 0.9744                 0.9929
 IR Inten    --      1.7093                 2.3599                 6.2271

                     28                     29                     30
                      A                      A                      A
 Frequencies --   1163.8177              1166.8327              1208.1830
 Red. masses --      1.6393                 1.8397                 1.5640
 Frc consts  --      1.3082                 1.4757                 1.3451
 IR Inten    --     12.9606                 3.6046                 6.2979

                     31                     32                     33
                      A                      A                      A
 Frequencies --   1224.5786              1249.7649              1256.8538
 Red. masses --      1.4502                 2.1546                 2.0622
 Frc consts  --      1.2813                 1.9827                 1.9193
 IR Inten    --     12.9181                 8.3181                 2.8590

                     34                     35                     36
                      A                      A                      A
 Frequencies --   1388.1240              1394.7922              1416.8259
 Red. masses --      1.5474                 1.6217                 1.4581
 Frc consts  --      1.7568                 1.8588                 1.7245
 IR Inten    --      5.6305                 4.4098                31.1706

                     37                     38                     39
                      A                      A                      A
 Frequencies --   1439.5764              1472.8482              1495.4887
 Red. masses --      2.0212                 1.1756                 1.2330
 Frc consts  --      2.4679                 1.5026                 1.6247
 IR Inten    --     46.5515                 3.7510                 1.0705

                     40                     41                     42
                      A                      A                      A
 Frequencies --   1502.7597              1537.3112              2966.8090
 Red. masses --      1.1453                 1.7331                 1.0700
 Frc consts  --      1.5239                 2.4132                 5.5488
 IR Inten    --      0.1400                17.3821                67.0062

                     43                     44                     45
                      A                      A                      A
 Frequencies --   3043.6883              3053.6188              3079.0675
 Red. masses --      1.0596                 1.0914                 1.0502
 Frc consts  --      5.7838                 5.9961                 5.8664
 IR Inten    --     33.7191                26.7870                24.8129

                     46                     47                     48
                      A                      A                      A
 Frequencies --   3102.1166              3104.5198              3165.9138
 Red. masses --      1.1019                 1.0604                 1.1194
 Frc consts  --      6.2477                 6.0217                 6.6102
 IR Inten    --      7.0075                30.6327                21.4034

                     49                     50                     51
                      A                      A                      A
 Frequencies --   3194.8630              3202.5102              3826.1543
 Red. masses --      1.1044                 1.1011                 1.0663
 Frc consts  --      6.6414                 6.6535                 9.1969
 IR Inten    --      3.0406                12.4305                21.6458

 - Thermochemistry -
 -------------------
 Temperature   298.150 Kelvin.  Pressure   1.00000 Atm.
 Atom     1 has atomic number  8 and mass  15.99491

 Molecular mass:   126.06808 amu.
 Principal axes and moments of inertia in atomic units:
                           1         2         3
     Eigenvalues --   429.660431794.296241874.76060
           X            0.99995  -0.00912  -0.00375
           Y            0.00884   0.99754  -0.06954
           Z            0.00438   0.06950   0.99757
 This molecule is an asymmetric top.
 Rotational symmetry number  1.
 Rotational temperatures (Kelvin)      0.20159     0.04827     0.04620
 Rotational constants (GHZ):           4.20039     1.00582     0.96265
 Zero-point vibrational energy     415749.4 (Joules/Mol)
                                   99.36649 (Kcal/Mol)
 Warning -- explicit consideration of  11 degrees of freedom as
           vibrations may cause significant error
 Vibrational temperatures:     97.60   161.50   258.20   401.12   425.47
          (Kelvin)            461.28   499.50   550.03   628.14   710.46
                              836.31   965.68  1134.10  1173.44  1211.20
                             1243.41  1323.48  1360.68  1398.16  1411.88
                             1453.22  1493.73  1546.20  1562.19  1575.99
                             1612.66  1626.50  1674.47  1678.81  1738.30
                             1761.89  1798.13  1808.33  1997.20  2006.79
                             2038.49  2071.23  2119.10  2151.67  2162.13
                             2211.85  4268.57  4379.18  4393.47  4430.09
                             4463.25  4466.71  4555.04  4596.69  4607.69
                             5504.98

 Zero-point correction=                           0.158351 (Hartree/Particle)
 Thermal correction to Energy=                    0.166843
 Thermal correction to Enthalpy=                  0.167787
 Thermal correction to Gibbs Free Energy=         0.125112
 Sum of electronic and zero-point Energies=           -422.965076
 Sum of electronic and thermal Energies=              -422.956583
 Sum of electronic and thermal Enthalpies=            -422.955639
 Sum of electronic and thermal Free Energies=         -422.998314

                     E (Thermal)             CV                S
                      KCal/Mol        Cal/Mol-Kelvin    Cal/Mol-Kelvin
 Total                  104.695             32.620             89.818
 Electronic               0.000              0.000              0.000
 Translational            0.889              2.981             40.409
 Rotational               0.889              2.981             28.760
 Vibrational            102.918             26.658             20.650
 Vibration     1          0.598              1.970              4.215
 Vibration     2          0.607              1.939              3.230
 Vibration     3          0.629              1.868              2.334
 Vibration     4          0.679              1.713              1.541
 Vibration     5          0.690              1.682              1.441
 Vibration     6          0.706              1.634              1.307
 Vibration     7          0.725              1.581              1.179
 Vibration     8          0.752              1.508              1.030
 Vibration     9          0.797              1.390              0.837
 Vibration    10          0.849              1.264              0.674
 Vibration    11          0.938              1.072              0.483

 Optimization completed.
    -- Stationary point found.
 Normal termination of Gaussian 09 at Tue Jan 28 10:02:48 2020.
