 Gaussian 09, Revision D.01,
 Gaussian 09:  ES64L-G09RevD.01 24-Apr-2013

 -----------------------------
 # b3lyp 6-31G(2df,p) opt Freq
 -----------------------------

 -----
 titel
 -----
 Symbolic Z-matrix:
 Charge =  0 Multiplicity = 1

 SCF Done:  E(RB3LYP) =  -423.159221040     A.U. after   15 cycles
 SCF Done:  E(RB3LYP) =  -423.159220925     A.U. after    9 cycles
 SCF Done:  E(RB3LYP) =  -423.159221209     A.U. after    8 cycles
 SCF Done:  E(RB3LYP) =  -423.159219840     A.U. after    8 cycles
 SCF Done:  E(RB3LYP) =  -423.159221269     A.U. after    8 cycles
 SCF Done:  E(RB3LYP) =  -423.159221321     A.U. after    7 cycles
 SCF Done:  E(RB3LYP) =  -423.159221379     A.U. after    7 cycles
 SCF Done:  E(RB3LYP) =  -423.159221635     A.U. after    8 cycles
 SCF Done:  E(RB3LYP) =  -423.159221864     A.U. after    8 cycles
 SCF Done:  E(RB3LYP) =  -423.159222086     A.U. after    8 cycles
 SCF Done:  E(RB3LYP) =  -423.159222278     A.U. after    8 cycles
 SCF Done:  E(RB3LYP) =  -423.159222535     A.U. after    8 cycles
 SCF Done:  E(RB3LYP) =  -423.159222808     A.U. after    8 cycles
 SCF Done:  E(RB3LYP) =  -423.159223281     A.U. after    9 cycles
 Optimization completed.
    -- Stationary point found.
 Normal termination of Gaussian 09 at Tue Jan 28 12:48:45 2020.

 ----------------------------------------------------------------------
 #N Geom=AllCheck Guess=TCheck SCRF=Check GenChk RB3LYP/6-31G(2df,p) Fr
 eq
 ----------------------------------------------------------------------

 Structure from the checkpoint file:  "/scratch/puck/g09_fe45270c-b346-43cc-bd1e-b372510fd63b/Gau-113817.chk"
 -----
 titel
 -----
 Charge =  0 Multiplicity = 1

                         Standard orientation:
 ---------------------------------------------------------------------
 Center     Atomic      Atomic             Coordinates (Angstroms)
 Number     Number       Type             X           Y           Z
 ---------------------------------------------------------------------
      1          6           0       -4.428030   -0.186594   -0.097705
      2          6           0       -2.976787    0.077369   -0.502418
      3          6           0       -1.986720   -0.237557    0.638380
      4          6           0       -0.594672    0.001569    0.277910
      5          6           0        0.541407    0.207283   -0.071725
      6          6           0        1.944333    0.443616   -0.390949
      7          8           0        2.407727    1.724941    0.023067
      8          6           0        2.797112   -0.639208    0.297432
      9          8           0        3.291228   -1.576147   -0.264686
     10          1           0       -4.719423    0.426284    0.762565
     11          1           0       -5.112881    0.045213   -0.918491
     12          1           0       -4.580177   -1.236388    0.176480
     13          1           0       -2.711524   -0.527000   -1.376684
     14          1           0       -2.851034    1.124017   -0.800577
     15          1           0       -2.241655    0.364841    1.520698
     16          1           0       -2.104421   -1.285113    0.946757
     17          1           0        2.124558    0.366372   -1.468508
     18          1           0        1.897753    1.985316    0.797400
     19          1           0        2.927308   -0.452763    1.387754
 ---------------------------------------------------------------------

 SCF Done:  E(RB3LYP) =  -423.159223281     A.U. after    1 cycles

 The electronic state is 1-A.
 Alpha  occ. eigenvalues --  -19.15669 -19.14707 -10.27546 -10.26575 -10.21759
 Alpha  occ. eigenvalues --  -10.19727 -10.19653 -10.18695 -10.18525  -1.05711
 Alpha  occ. eigenvalues --   -1.03665  -0.81905  -0.77942  -0.73507  -0.68732
 Alpha  occ. eigenvalues --   -0.60954  -0.59809  -0.55294  -0.49782  -0.48093
 Alpha  occ. eigenvalues --   -0.47946  -0.46046  -0.43053  -0.42630  -0.41012
 Alpha  occ. eigenvalues --   -0.39811  -0.37557  -0.36407  -0.35879  -0.34702
 Alpha  occ. eigenvalues --   -0.31660  -0.28087  -0.27285  -0.24297
 Alpha virt. eigenvalues --   -0.03284   0.02504   0.05346   0.08598   0.09390
 Alpha virt. eigenvalues --    0.12610   0.12901   0.13399   0.14084   0.15543
 Alpha virt. eigenvalues --    0.16373   0.17904   0.18557   0.20224   0.22845

 Mulliken charges:
               1
     1  C   -0.382693
     2  C   -0.156996
     3  C   -0.338821
     4  C    0.019072
     5  C    0.075074
     6  C   -0.085239
     7  O   -0.416283
     8  C    0.160981
     9  O   -0.231117
    10  H    0.117396
    11  H    0.119518
    12  H    0.119026
    13  H    0.115191
    14  H    0.112633
    15  H    0.130855
    16  H    0.135969
    17  H    0.134516
    18  H    0.292899
    19  H    0.078018
 Sum of Mulliken charges =   0.00000

 Dipole moment (field-independent basis, Debye):
    X=             -3.4499    Y=              1.1500    Z=              1.5787  Tot=              3.9644
 Quadrupole moment (field-independent basis, Debye-Ang):
   XX=            -58.2752   YY=            -57.4488   ZZ=            -50.7331
   XY=              4.1506   XZ=              2.6648   YZ=              1.0922

  Exact polarizability: 117.532   0.292  68.056  -4.894   1.614  66.290
 Approx polarizability: 151.574   2.307 105.000 -16.475   4.988 100.570

                      1                      2                      3
                      A                      A                      A
 Frequencies --      8.7245                52.5152                74.2600
 Red. masses --      2.5308                 3.9631                 4.0620
 Frc consts  --      0.0001                 0.0064                 0.0132
 IR Inten    --      0.3015                 2.7450                 1.9192

                      4                      5                      6
                      A                      A                      A
 Frequencies --     80.6606               136.1044               164.7118
 Red. masses --      2.8690                 2.9941                 3.3468
 Frc consts  --      0.0110                 0.0327                 0.0535
 IR Inten    --      1.4381                 3.0146                 4.9726

                      7                      8                      9
                      A                      A                      A
 Frequencies --    201.1971               241.9293               286.9389
 Red. masses --      1.1456                 1.0801                 3.1625
 Frc consts  --      0.0273                 0.0372                 0.1534
 IR Inten    --     85.2262                 0.1111                 2.4572

                     10                     11                     12
                      A                      A                      A
 Frequencies --    322.2333               344.7166               436.0200
 Red. masses --      3.4725                 3.5649                 4.4904
 Frc consts  --      0.2124                 0.2496                 0.5030
 IR Inten    --      5.8336                18.0889                25.4277

                     13                     14                     15
                      A                      A                      A
 Frequencies --    478.4504               496.6927               588.4315
 Red. masses --      7.2022                 5.9127                 5.5016
 Frc consts  --      0.9714                 0.8594                 1.1224
 IR Inten    --      1.3092                 5.1872                 5.2090

                     16                     17                     18
                      A                      A                      A
 Frequencies --    741.7051               791.1676               871.0855
 Red. masses --      1.1088                 3.2796                 1.2345
 Frc consts  --      0.3594                 1.2095                 0.5519
 IR Inten    --      2.6243                 9.5343                 0.3433

                     19                     20                     21
                      A                      A                      A
 Frequencies --    893.3318               992.8406              1022.9548
 Red. masses --      1.9962                 2.1406                 4.2871
 Frc consts  --      0.9386                 1.2432                 2.6432
 IR Inten    --      2.4570                19.7891                46.2261

                     22                     23                     24
                      A                      A                      A
 Frequencies --   1043.9470              1054.4927              1107.9557
 Red. masses --      2.9303                 5.0103                 2.0516
 Frc consts  --      1.8816                 3.2825                 1.4838
 IR Inten    --      2.6475                68.8641                 3.3377

                     25                     26                     27
                      A                      A                      A
 Frequencies --   1121.3166              1163.2535              1252.0688
 Red. masses --      1.4573                 2.7836                 1.2368
 Frc consts  --      1.0796                 2.2192                 1.1424
 IR Inten    --      0.0193                 6.0994                12.5254

                     28                     29                     30
                      A                      A                      A
 Frequencies --   1258.2472              1267.9117              1305.2059
 Red. masses --      1.3027                 1.3660                 1.4122
 Frc consts  --      1.2152                 1.2939                 1.4174
 IR Inten    --      0.0594                 8.7324                20.1947

                     31                     32                     33
                      A                      A                      A
 Frequencies --   1322.3164              1380.3067              1389.4832
 Red. masses --      1.0797                 1.4865                 1.1956
 Frc consts  --      1.1124                 1.6687                 1.3600
 IR Inten    --      0.0886                 1.1076                69.6618

                     34                     35                     36
                      A                      A                      A
 Frequencies --   1408.8205              1414.7943              1468.2419
 Red. masses --      1.2517                 1.2352                 1.0835
 Frc consts  --      1.4637                 1.4567                 1.3761
 IR Inten    --     29.6876                 1.0882                 2.2803

                     37                     38                     39
                      A                      A                      A
 Frequencies --   1491.6285              1499.6617              1508.4565
 Red. masses --      1.0532                 1.0398                 1.0793
 Frc consts  --      1.3807                 1.3777                 1.4470
 IR Inten    --      0.6965                 5.7955                 3.6996

                     40                     41                     42
                      A                      A                      A
 Frequencies --   1844.4444              2350.3562              2877.5237
 Red. masses --     10.6433                11.8976                 1.0844
 Frc consts  --     21.3333                38.7236                 5.2904
 IR Inten    --    192.0179                28.5138               102.2301

                     43                     44                     45
                      A                      A                      A
 Frequencies --   3013.5798              3031.5562              3041.2535
 Red. masses --      1.0580                 1.0368                 1.0998
 Frc consts  --      5.6612                 5.6138                 5.9934
 IR Inten    --     12.5737                24.1963                 4.4159

                     46                     47                     48
                      A                      A                      A
 Frequencies --   3044.6684              3062.7729              3076.7482
 Red. masses --      1.0594                 1.0843                 1.1027
 Frc consts  --      5.7862                 5.9927                 6.1500
 IR Inten    --     25.4613                12.8583                 1.9021

                     49                     50                     51
                      A                      A                      A
 Frequencies --   3102.7011              3109.3733              3818.5852
 Red. masses --      1.1035                 1.1004                 1.0665
 Frc consts  --      6.2590                 6.2684                 9.1621
 IR Inten    --     52.4577                29.1395                29.1620

 - Thermochemistry -
 -------------------
 Temperature   298.150 Kelvin.  Pressure   1.00000 Atm.
 Atom     1 has atomic number  6 and mass  12.00000

 Molecular mass:   126.06808 amu.
 Principal axes and moments of inertia in atomic units:
                           1         2         3
     Eigenvalues --   466.549353344.738473632.45484
           X            0.99996   0.00818   0.00357
           Y           -0.00817   0.99996  -0.00396
           Z           -0.00360   0.00393   0.99999
 This molecule is an asymmetric top.
 Rotational symmetry number  1.
 Warning -- assumption of classical behavior for rotation
           may cause significant error
 Rotational temperatures (Kelvin)      0.18565     0.02590     0.02384
 Rotational constants (GHZ):           3.86828     0.53958     0.49684
 Zero-point vibrational energy     407079.3 (Joules/Mol)
                                   97.29429 (Kcal/Mol)
 Warning -- explicit consideration of  15 degrees of freedom as
           vibrations may cause significant error
 Vibrational temperatures:     12.55    75.56   106.84   116.05   195.82
          (Kelvin)            236.98   289.48   348.08   412.84   463.62
                              495.97   627.33   688.38   714.63   846.62
                             1067.15  1138.31  1253.30  1285.30  1428.47
                             1471.80  1502.01  1517.18  1594.10  1613.32
                             1673.66  1801.45  1810.33  1824.24  1877.90
                             1902.52  1985.95  1999.15  2026.98  2035.57
                             2112.47  2146.12  2157.68  2170.33  2653.74
                             3381.63  4140.11  4335.86  4361.73  4375.68
                             4380.59  4406.64  4426.75  4464.09  4473.69
                             5494.09

 Zero-point correction=                           0.155048 (Hartree/Particle)
 Thermal correction to Energy=                    0.166246
 Thermal correction to Enthalpy=                  0.167191
 Thermal correction to Gibbs Free Energy=         0.115438
 Sum of electronic and zero-point Energies=           -423.004175
 Sum of electronic and thermal Energies=              -422.992977
 Sum of electronic and thermal Enthalpies=            -422.992033
 Sum of electronic and thermal Free Energies=         -423.043786

                     E (Thermal)             CV                S
                      KCal/Mol        Cal/Mol-Kelvin    Cal/Mol-Kelvin
 Total                  104.321             37.364            108.923
 Electronic               0.000              0.000              0.000
 Translational            0.889              2.981             40.409
 Rotational               0.889              2.981             30.117
 Vibrational            102.544             31.402             38.397
 Vibration     1          0.593              1.987              8.282
 Vibration     2          0.596              1.977              4.720
 Vibration     3          0.599              1.966              4.037
 Vibration     4          0.600              1.962              3.875
 Vibration     5          0.614              1.917              2.858
 Vibration     6          0.623              1.886              2.495
 Vibration     7          0.638              1.838              2.122
 Vibration     8          0.658              1.776              1.789
 Vibration     9          0.684              1.698              1.492
 Vibration    10          0.707              1.631              1.299
 Vibration    11          0.723              1.586              1.190
 Vibration    12          0.796              1.392              0.839
 Vibration    13          0.835              1.298              0.714
 Vibration    14          0.852              1.257              0.666
 Vibration    15          0.946              1.056              0.470

 Normal termination of Gaussian 09 at Tue Jan 28 13:19:10 2020.
