 Gaussian 09, Revision D.01,
 Gaussian 09:  ES64L-G09RevD.01 24-Apr-2013

 -----------------------------
 # b3lyp 6-31G(2df,p) opt Freq
 -----------------------------

 -----
 titel
 -----
 Symbolic Z-matrix:
 Charge =  0 Multiplicity = 1

 SCF Done:  E(RB3LYP) =  -423.178156505     A.U. after   13 cycles
 Optimization completed.
    -- Stationary point found.
 Normal termination of Gaussian 09 at Mon Jan 27 23:51:13 2020.

 ----------------------------------------------------------------------
 #N Geom=AllCheck Guess=TCheck SCRF=Check GenChk RB3LYP/6-31G(2df,p) Fr
 eq
 ----------------------------------------------------------------------

 Structure from the checkpoint file:  "/scratch/puck/g09_c93c9cbb-b58e-43d5-8a9d-2593c52595b5/Gau-78194.chk"
 -----
 titel
 -----
 Charge =  0 Multiplicity = 1

                         Standard orientation:
 ---------------------------------------------------------------------
 Center     Atomic      Atomic             Coordinates (Angstroms)
 Number     Number       Type             X           Y           Z
 ---------------------------------------------------------------------
      1          6           0       -2.544652   -0.002007   -0.128052
      2          6           0       -1.165498   -0.534296    0.263876
      3          6           0       -0.192840    0.378734    1.064187
      4          6           0       -0.062166    1.561466    0.080869
      5          6           0        0.657250    0.681083   -0.955385
      6          8           0        1.853933    0.434049   -0.197911
      7          6           0        1.213204   -0.384903    0.763386
      8          8           0        0.846865   -1.498183   -0.033202
      9          6           0       -0.096962   -0.764723   -0.828905
     10          1           0       -3.137533   -0.809898   -0.569515
     11          1           0       -3.089423    0.361182    0.750242
     12          1           0       -2.516600    0.808240   -0.860178
     13          1           0       -1.302510   -1.490752    0.773628
     14          1           0       -0.416022    0.583479    2.109904
     15          1           0       -1.019581    1.991004   -0.210015
     16          1           0        0.605401    2.359131    0.407980
     17          1           0        0.889023    1.056440   -1.949374
     18          1           0        1.874657   -0.659711    1.581141
     19          1           0       -0.343803   -1.298164   -1.744757
 ---------------------------------------------------------------------

 SCF Done:  E(RB3LYP) =  -423.178156505     A.U. after    1 cycles

 The electronic state is 1-A.
 Alpha  occ. eigenvalues --  -19.13971 -19.13952 -10.27495 -10.23723 -10.23545
 Alpha  occ. eigenvalues --  -10.19517 -10.19020 -10.18202 -10.18192  -1.09915
 Alpha  occ. eigenvalues --   -0.99294  -0.83399  -0.73694  -0.72732  -0.66970
 Alpha  occ. eigenvalues --   -0.59481  -0.57872  -0.55600  -0.53743  -0.50207
 Alpha  occ. eigenvalues --   -0.45565  -0.44164  -0.43140  -0.40803  -0.39011
 Alpha  occ. eigenvalues --   -0.38145  -0.37481  -0.35411  -0.34279  -0.32784
 Alpha  occ. eigenvalues --   -0.31694  -0.30851  -0.26747  -0.25205
 Alpha virt. eigenvalues --    0.08653   0.09723   0.11091   0.13016   0.13148
 Alpha virt. eigenvalues --    0.14850   0.15184   0.15677   0.15837   0.16685
 Alpha virt. eigenvalues --    0.17230   0.18283   0.19480   0.20014   0.22055

 Mulliken charges:
               1
     1  C   -0.444377
     2  C    0.075666
     3  C   -0.136617
     4  C   -0.209210
     5  C    0.036333
     6  O   -0.242550
     7  C    0.166152
     8  O   -0.239776
     9  C    0.012962
    10  H    0.119211
    11  H    0.121206
    12  H    0.120874
    13  H    0.085697
    14  H    0.067830
    15  H    0.098203
    16  H    0.108599
    17  H    0.083989
    18  H    0.095035
    19  H    0.080775
 Sum of Mulliken charges =   0.00000

 Dipole moment (field-independent basis, Debye):
    X=             -2.0912    Y=              0.9560    Z=              0.1914  Tot=              2.3073
 Quadrupole moment (field-independent basis, Debye-Ang):
   XX=            -56.4102   YY=            -55.3614   ZZ=            -49.0510
   XY=              0.8237   XZ=              1.9349   YZ=             -0.4974

  Exact polarizability:  77.619   1.099  69.865   2.121  -0.352  69.977
 Approx polarizability: 109.691   0.709 107.528   3.589  -1.505 108.089

                      1                      2                      3
                      A                      A                      A
 Frequencies --    151.4605               214.7361               306.1379
 Red. masses --      1.2543                 2.1927                 2.4485
 Frc consts  --      0.0170                 0.0596                 0.1352
 IR Inten    --      0.0651                 0.1537                 0.1883

                      4                      5                      6
                      A                      A                      A
 Frequencies --    439.4425               515.6587               554.1670
 Red. masses --      3.3582                 3.3275                 2.9855
 Frc consts  --      0.3821                 0.5213                 0.5402
 IR Inten    --      0.2351                 2.0453                 1.5192

                      7                      8                      9
                      A                      A                      A
 Frequencies --    623.1505               648.1753               679.6850
 Red. masses --      3.7939                 5.6104                 5.7470
 Frc consts  --      0.8680                 1.3888                 1.5643
 IR Inten    --      1.1780                 4.9688                 2.7940

                     10                     11                     12
                      A                      A                      A
 Frequencies --    742.3077               787.8978               823.2119
 Red. masses --      3.4211                 2.8159                 4.3509
 Frc consts  --      1.1107                 1.0299                 1.7372
 IR Inten    --     12.0804                 3.5739                 1.7360

                     13                     14                     15
                      A                      A                      A
 Frequencies --    865.5294               886.4025               914.6305
 Red. masses --      2.6678                 2.9244                 2.9302
 Frc consts  --      1.1775                 1.3538                 1.4443
 IR Inten    --     11.4341                26.5425                10.1060

                     16                     17                     18
                      A                      A                      A
 Frequencies --    924.4624               933.9072               954.4050
 Red. masses --      3.1245                 2.8123                 1.7688
 Frc consts  --      1.5733                 1.4452                 0.9493
 IR Inten    --     78.1798                16.1316                 8.5401

                     19                     20                     21
                      A                      A                      A
 Frequencies --    977.0815               991.3632              1026.7075
 Red. masses --      2.9184                 1.9098                 2.2436
 Frc consts  --      1.6416                 1.1059                 1.3934
 IR Inten    --     22.9158                11.6240                17.1096

                     22                     23                     24
                      A                      A                      A
 Frequencies --   1047.3438              1067.8074              1098.0350
 Red. masses --      2.3140                 1.7887                 1.2403
 Frc consts  --      1.4955                 1.2016                 0.8810
 IR Inten    --     10.9420                16.5650                 2.1708

                     25                     26                     27
                      A                      A                      A
 Frequencies --   1124.0129              1150.3289              1169.3520
 Red. masses --      2.2536                 1.7548                 1.8853
 Frc consts  --      1.6775                 1.3681                 1.5189
 IR Inten    --      1.2449                 4.7111                 5.7372

                     28                     29                     30
                      A                      A                      A
 Frequencies --   1200.4441              1231.6457              1240.2248
 Red. masses --      2.0788                 1.2309                 1.2156
 Frc consts  --      1.7650                 1.1001                 1.1016
 IR Inten    --      0.4830                 2.5909                 1.4744

                     31                     32                     33
                      A                      A                      A
 Frequencies --   1248.9766              1264.0858              1300.0418
 Red. masses --      1.5866                 1.4127                 1.4745
 Frc consts  --      1.4583                 1.3300                 1.4683
 IR Inten    --      4.9260                 2.0582                18.2589

                     34                     35                     36
                      A                      A                      A
 Frequencies --   1307.8461              1316.1205              1345.4326
 Red. masses --      1.5476                 1.5062                 1.4820
 Frc consts  --      1.5596                 1.5372                 1.5806
 IR Inten    --      3.9533                 4.1037                 8.9508

                     37                     38                     39
                      A                      A                      A
 Frequencies --   1385.9487              1414.9541              1491.3635
 Red. masses --      1.4334                 1.2280                 1.0772
 Frc consts  --      1.6222                 1.4485                 1.4116
 IR Inten    --      2.2582                 1.9628                 4.6806

                     40                     41                     42
                      A                      A                      A
 Frequencies --   1496.7256              1521.9460              3037.1005
 Red. masses --      1.0470                 1.0717                 1.0377
 Frc consts  --      1.3820                 1.4626                 5.6394
 IR Inten    --      4.7048                 4.3414                23.8687

                     43                     44                     45
                      A                      A                      A
 Frequencies --   3075.1098              3095.9438              3096.4752
 Red. masses --      1.0855                 1.0630                 1.0998
 Frc consts  --      6.0479                 6.0030                 6.2129
 IR Inten    --      8.8587                10.2184                24.6171

                     46                     47                     48
                      A                      A                      A
 Frequencies --   3117.2086              3133.1445              3143.7070
 Red. masses --      1.0976                 1.0896                 1.0916
 Frc consts  --      6.2836                 6.3018                 6.3564
 IR Inten    --     39.2308                28.1714                17.5552

                     49                     50                     51
                      A                      A                      A
 Frequencies --   3150.3970              3155.7713              3166.8639
 Red. masses --      1.1035                 1.0913                 1.0941
 Frc consts  --      6.4530                 6.4031                 6.4649
 IR Inten    --     13.8119                49.0713                18.2347

 - Thermochemistry -
 -------------------
 Temperature   298.150 Kelvin.  Pressure   1.00000 Atm.
 Atom     1 has atomic number  6 and mass  12.00000

 Molecular mass:   126.06808 amu.
 Principal axes and moments of inertia in atomic units:
                           1         2         3
     Eigenvalues --   579.88309 981.768661148.34534
           X            0.99991   0.00396   0.01258
           Y           -0.00392   0.99999  -0.00354
           Z           -0.01259   0.00349   0.99991
 This molecule is an asymmetric top.
 Rotational symmetry number  1.
 Warning -- assumption of classical behavior for rotation
           may cause significant error
 Rotational temperatures (Kelvin)      0.14936     0.08822     0.07542
 Rotational constants (GHZ):           3.11225     1.83826     1.57160
 Zero-point vibrational energy     427993.2 (Joules/Mol)
                                  102.29283 (Kcal/Mol)
 Warning -- explicit consideration of   6 degrees of freedom as
           vibrations may cause significant error
 Vibrational temperatures:    217.92   308.96   440.46   632.26   741.92
          (Kelvin)            797.32   896.57   932.58   977.91  1068.01
                             1133.61  1184.42  1245.30  1275.33  1315.95
                             1330.09  1343.68  1373.17  1405.80  1426.35
                             1477.20  1506.89  1536.33  1579.83  1617.20
                             1655.06  1682.43  1727.17  1772.06  1784.40
                             1797.00  1818.74  1870.47  1881.70  1893.60
                             1935.78  1994.07  2035.80  2145.74  2153.45
                             2189.74  4369.70  4424.39  4454.37  4455.13
                             4484.96  4507.89  4523.09  4532.71  4540.45
                             4556.41

 Zero-point correction=                           0.163014 (Hartree/Particle)
 Thermal correction to Energy=                    0.169477
 Thermal correction to Enthalpy=                  0.170421
 Thermal correction to Gibbs Free Energy=         0.132417
 Sum of electronic and zero-point Energies=           -423.015142
 Sum of electronic and thermal Energies=              -423.008680
 Sum of electronic and thermal Enthalpies=            -423.007736
 Sum of electronic and thermal Free Energies=         -423.045740

                     E (Thermal)             CV                S
                      KCal/Mol        Cal/Mol-Kelvin    Cal/Mol-Kelvin
 Total                  106.348             27.481             79.986
 Electronic               0.000              0.000              0.000
 Translational            0.889              2.981             40.409
 Rotational               0.889              2.981             27.971
 Vibrational            104.571             21.519             11.607
 Vibration     1          0.619              1.901              2.654
 Vibration     2          0.645              1.819              2.003
 Vibration     3          0.697              1.662              1.383
 Vibration     4          0.799              1.384              0.828
 Vibration     5          0.871              1.215              0.620
 Vibration     6          0.910              1.131              0.536

 Optimization completed.
    -- Stationary point found.
 Normal termination of Gaussian 09 at Tue Jan 28 00:40:14 2020.
