 Gaussian 09, Revision D.01,
 Gaussian 09:  ES64L-G09RevD.01 24-Apr-2013

 -----------------------------
 # b3lyp 6-31G(2df,p) opt Freq
 -----------------------------

 -----
 titel
 -----
 Symbolic Z-matrix:
 Charge =  0 Multiplicity = 1

 SCF Done:  E(RB3LYP) =  -423.158814431     A.U. after   14 cycles
 Optimization completed.
    -- Stationary point found.
 Normal termination of Gaussian 09 at Mon Jan 27 22:04:42 2020.

 ----------------------------------------------------------------------
 #N Geom=AllCheck Guess=TCheck SCRF=Check GenChk RB3LYP/6-31G(2df,p) Fr
 eq
 ----------------------------------------------------------------------

 Structure from the checkpoint file:  "/scratch/puck/g09_1806c383-af7e-401f-86d6-b79b99b2820d/Gau-62989.chk"
 -----
 titel
 -----
 Charge =  0 Multiplicity = 1

                         Standard orientation:
 ---------------------------------------------------------------------
 Center     Atomic      Atomic             Coordinates (Angstroms)
 Number     Number       Type             X           Y           Z
 ---------------------------------------------------------------------
      1          6           0       -1.278809    1.537188   -1.012022
      2          6           0       -0.025305    0.689825   -0.999846
      3          6           0        0.795462    0.551040    0.255348
      4          6           0        0.624750    1.360355    1.506456
      5          6           0        2.006890   -0.328377   -0.061998
      6          8           0        1.176456   -1.372637   -0.637926
      7          6           0       -0.004961   -0.653520   -0.280086
      8          6           0       -1.134299   -1.392698    0.292279
      9          8           0       -2.132088   -0.889297    0.761764
     10          1           0       -1.024886    2.601343   -1.068057
     11          1           0       -1.888246    1.291741   -1.886937
     12          1           0       -1.894058    1.362358   -0.129051
     13          1           0        0.520389    0.662564   -1.942699
     14          1           0        0.996652    0.816429    2.380785
     15          1           0        1.180252    2.303527    1.436980
     16          1           0       -0.424300    1.604792    1.687342
     17          1           0        2.739649    0.060902   -0.778565
     18          1           0        2.521545   -0.696533    0.833536
     19          1           0       -0.984305   -2.494522    0.275174
 ---------------------------------------------------------------------

 SCF Done:  E(RB3LYP) =  -423.158814431     A.U. after    1 cycles

 The electronic state is 1-A.
 Alpha  occ. eigenvalues --  -19.14949 -19.13531 -10.27058 -10.24893 -10.24507
 Alpha  occ. eigenvalues --  -10.22036 -10.21110 -10.19352 -10.18276  -1.06573
 Alpha  occ. eigenvalues --   -1.03949  -0.85771  -0.75162  -0.71660  -0.70338
 Alpha  occ. eigenvalues --   -0.64668  -0.56665  -0.52600  -0.50489  -0.47940
 Alpha  occ. eigenvalues --   -0.46854  -0.44888  -0.42991  -0.41993  -0.41612
 Alpha  occ. eigenvalues --   -0.39919  -0.39117  -0.38698  -0.37594  -0.34431
 Alpha  occ. eigenvalues --   -0.32148  -0.28460  -0.25169  -0.23772
 Alpha virt. eigenvalues --   -0.03240   0.06837   0.10144   0.11101   0.11671
 Alpha virt. eigenvalues --    0.13223   0.13542   0.14016   0.15197   0.16494
 Alpha virt. eigenvalues --    0.17074   0.18109   0.19679   0.20749   0.21653

 Mulliken charges:
               1
     1  C   -0.439188
     2  C   -0.111782
     3  C    0.196097
     4  C   -0.494506
     5  C   -0.132610
     6  O   -0.322584
     7  C    0.302589
     8  C    0.064407
     9  O   -0.279144
    10  H    0.118726
    11  H    0.127669
    12  H    0.158650
    13  H    0.096571
    14  H    0.126423
    15  H    0.127953
    16  H    0.148400
    17  H    0.109554
    18  H    0.111486
    19  H    0.091288
 Sum of Mulliken charges =   0.00000

 Dipole moment (field-independent basis, Debye):
    X=              2.0988    Y=              1.7011    Z=             -0.1024  Tot=              2.7035
 Quadrupole moment (field-independent basis, Debye-Ang):
   XX=            -56.8738   YY=            -53.2584   ZZ=            -52.7929
   XY=              0.5755   XZ=              4.1091   YZ=             -0.8944

  Exact polarizability:  85.004   1.685  79.948   0.623  -2.095  68.381
 Approx polarizability: 127.881   4.418 117.731  -5.043  -1.163 101.793

                      1                      2                      3
                      A                      A                      A
 Frequencies --     95.4900               138.5339               159.4100
 Red. masses --      3.5092                 1.1675                 1.9455
 Frc consts  --      0.0189                 0.0132                 0.0291
 IR Inten    --      3.0532                 1.3308                 2.5966

                      4                      5                      6
                      A                      A                      A
 Frequencies --    177.2833               205.3327               238.8733
 Red. masses --      1.9634                 1.5861                 2.4614
 Frc consts  --      0.0364                 0.0394                 0.0828
 IR Inten    --      6.3138                 2.5525                 2.3658

                      7                      8                      9
                      A                      A                      A
 Frequencies --    266.8651               319.6464               359.1029
 Red. masses --      2.2906                 3.9204                 2.8137
 Frc consts  --      0.0961                 0.2360                 0.2138
 IR Inten    --      1.9463                 5.6876                 1.1887

                     10                     11                     12
                      A                      A                      A
 Frequencies --    426.3447               465.5416               547.8832
 Red. masses --      3.5522                 3.4213                 4.3670
 Frc consts  --      0.3804                 0.4369                 0.7723
 IR Inten    --      1.4985                 0.7615                 3.8644

                     13                     14                     15
                      A                      A                      A
 Frequencies --    670.7676               714.0186               744.6503
 Red. masses --      4.4055                 3.4861                 4.4228
 Frc consts  --      1.1678                 1.0472                 1.4450
 IR Inten    --      1.7518                 0.0038                 6.8361

                     16                     17                     18
                      A                      A                      A
 Frequencies --    773.8787               930.2698               975.4896
 Red. masses --      3.3142                 1.9729                 1.3103
 Frc consts  --      1.1694                 1.0059                 0.7346
 IR Inten    --     57.9959                 6.4564                 3.5386

                     19                     20                     21
                      A                      A                      A
 Frequencies --    991.7045              1015.7302              1036.5043
 Red. masses --      4.5951                 1.3869                 1.7191
 Frc consts  --      2.6626                 0.8431                 1.0882
 IR Inten    --     29.9215                 6.3535                21.6472

                     22                     23                     24
                      A                      A                      A
 Frequencies --   1052.0441              1096.2284              1106.8891
 Red. masses --      2.1653                 2.5105                 1.9517
 Frc consts  --      1.4120                 1.7775                 1.4089
 IR Inten    --     43.3661                21.6120                11.5026

                     25                     26                     27
                      A                      A                      A
 Frequencies --   1129.0842              1148.5079              1160.1337
 Red. masses --      1.9033                 2.0391                 1.2730
 Frc consts  --      1.4296                 1.5847                 1.0095
 IR Inten    --      4.5898                43.3804                 8.7495

                     28                     29                     30
                      A                      A                      A
 Frequencies --   1227.5990              1262.0708              1330.1193
 Red. masses --      2.3963                 2.2134                 1.5294
 Frc consts  --      2.1276                 2.0772                 1.5942
 IR Inten    --     23.3820                16.5761                 4.8530

                     31                     32                     33
                      A                      A                      A
 Frequencies --   1366.1386              1413.4187              1418.6405
 Red. masses --      1.5867                 1.3595                 1.3986
 Frc consts  --      1.7448                 1.6001                 1.6584
 IR Inten    --      1.0772                17.3372                 5.9768

                     34                     35                     36
                      A                      A                      A
 Frequencies --   1421.9628              1437.6013              1483.0285
 Red. masses --      1.2723                 2.9219                 1.0603
 Frc consts  --      1.5157                 3.5579                 1.3740
 IR Inten    --     16.2770                27.4301                 3.6348

                     37                     38                     39
                      A                      A                      A
 Frequencies --   1490.9340              1498.0781              1511.3908
 Red. masses --      1.0462                 1.0952                 1.0758
 Frc consts  --      1.3701                 1.4482                 1.4479
 IR Inten    --      0.8520                 8.7035                 4.0848

                     40                     41                     42
                      A                      A                      A
 Frequencies --   1519.7246              1785.7602              2896.3703
 Red. masses --      1.1397                 9.8041                 1.0827
 Frc consts  --      1.5508                18.4206                 5.3512
 IR Inten    --      3.9279               152.7362               111.5863

                     43                     44                     45
                      A                      A                      A
 Frequencies --   3019.9145              3030.0684              3041.1640
 Red. masses --      1.0540                 1.0406                 1.0401
 Frc consts  --      5.6635                 5.6289                 5.6679
 IR Inten    --     61.1187                35.0942                27.9951

                     46                     47                     48
                      A                      A                      A
 Frequencies --   3071.2368              3089.0962              3100.4353
 Red. masses --      1.1114                 1.0985                 1.0995
 Frc consts  --      6.1763                 6.1759                 6.2274
 IR Inten    --     29.3782                18.7360                17.0808

                     49                     50                     51
                      A                      A                      A
 Frequencies --   3107.4459              3126.0340              3152.2119
 Red. masses --      1.0880                 1.0981                 1.0971
 Frc consts  --      6.1899                 6.3222                 6.4227
 IR Inten    --     13.7613                 9.7963                 5.8605

 - Thermochemistry -
 -------------------
 Temperature   298.150 Kelvin.  Pressure   1.00000 Atm.
 Atom     1 has atomic number  6 and mass  12.00000

 Molecular mass:   126.06808 amu.
 Principal axes and moments of inertia in atomic units:
                           1         2         3
     Eigenvalues --   886.617361098.081541339.52947
           X            0.99678  -0.05877   0.05454
           Y            0.05900   0.99825  -0.00256
           Z           -0.05429   0.00577   0.99851
 This molecule is an asymmetric top.
 Rotational symmetry number  1.
 Warning -- assumption of classical behavior for rotation
           may cause significant error
 Rotational temperatures (Kelvin)      0.09769     0.07888     0.06466
 Rotational constants (GHZ):           2.03554     1.64354     1.34729
 Zero-point vibrational energy     411196.3 (Joules/Mol)
                                   98.27827 (Kcal/Mol)
 Warning -- explicit consideration of  12 degrees of freedom as
           vibrations may cause significant error
 Vibrational temperatures:    137.39   199.32   229.36   255.07   295.43
          (Kelvin)            343.69   383.96   459.90   516.67   613.41
                              669.81   788.28   965.08  1027.31  1071.38
                             1113.44  1338.45  1403.51  1426.84  1461.41
                             1491.30  1513.65  1577.23  1592.56  1624.50
                             1652.44  1669.17  1766.24  1815.84  1913.74
                             1965.57  2033.59  2041.10  2045.88  2068.39
                             2133.74  2145.12  2155.40  2174.55  2186.54
                             2569.31  4167.23  4344.98  4359.59  4375.55
                             4418.82  4444.51  4460.83  4470.92  4497.66
                             4535.32

 Zero-point correction=                           0.156616 (Hartree/Particle)
 Thermal correction to Energy=                    0.165921
 Thermal correction to Enthalpy=                  0.166866
 Thermal correction to Gibbs Free Energy=         0.122832
 Sum of electronic and zero-point Energies=           -423.002198
 Sum of electronic and thermal Energies=              -422.992893
 Sum of electronic and thermal Enthalpies=            -422.991949
 Sum of electronic and thermal Free Energies=         -423.035982

                     E (Thermal)             CV                S
                      KCal/Mol        Cal/Mol-Kelvin    Cal/Mol-Kelvin
 Total                  104.117             34.107             92.676
 Electronic               0.000              0.000              0.000
 Translational            0.889              2.981             40.409
 Rotational               0.889              2.981             28.657
 Vibrational            102.340             28.146             23.610
 Vibration     1          0.603              1.952              3.544
 Vibration     2          0.614              1.915              2.824
 Vibration     3          0.621              1.892              2.557
 Vibration     4          0.628              1.870              2.357
 Vibration     5          0.640              1.832              2.085
 Vibration     6          0.657              1.781              1.811
 Vibration     7          0.672              1.734              1.616
 Vibration     8          0.706              1.636              1.312
 Vibration     9          0.734              1.557              1.126
 Vibration    10          0.788              1.413              0.871
 Vibration    11          0.823              1.326              0.750
 Vibration    12          0.903              1.144              0.549

 Normal termination of Gaussian 09 at Mon Jan 27 22:49:35 2020.
