 Gaussian 09, Revision D.01,
 Gaussian 09:  ES64L-G09RevD.01 24-Apr-2013

 -----------------------------
 # b3lyp 6-31G(2df,p) opt Freq
 -----------------------------

 -----
 titel
 -----
 Symbolic Z-matrix:
 Charge =  0 Multiplicity = 1

 SCF Done:  E(RB3LYP) =  -423.191242742     A.U. after   14 cycles
 Optimization completed.
    -- Stationary point found.
 Normal termination of Gaussian 09 at Tue Jan 28 14:12:01 2020.

 ----------------------------------------------------------------------
 #N Geom=AllCheck Guess=TCheck SCRF=Check GenChk RB3LYP/6-31G(2df,p) Fr
 eq
 ----------------------------------------------------------------------

 Structure from the checkpoint file:  "/scratch/puck/g09_2b9d6f52-e9b3-43a9-acdf-74b9652de3a8/Gau-61186.chk"
 -----
 titel
 -----
 Charge =  0 Multiplicity = 1

                         Standard orientation:
 ---------------------------------------------------------------------
 Center     Atomic      Atomic             Coordinates (Angstroms)
 Number     Number       Type             X           Y           Z
 ---------------------------------------------------------------------
      1          6           0       -2.455430   -0.850423    0.267101
      2          8           0       -1.155253   -1.399190    0.316638
      3          6           0       -0.174530   -0.616916   -0.345485
      4          6           0        1.052476   -1.449755   -0.603261
      5          6           0        2.167433   -0.874591   -0.163086
      6          6           0        1.921841    0.461389    0.490716
      7          6           0        0.362757    0.560405    0.518256
      8          6           0       -0.124392    1.933159    0.117640
      9          8           0       -0.932932    2.162915   -0.746362
     10          1           0       -2.795291   -0.702902   -0.768606
     11          1           0       -3.120660   -1.560866    0.764080
     12          1           0       -2.522833    0.117854    0.784380
     13          1           0       -0.601265   -0.229222   -1.283643
     14          1           0        0.984098   -2.401055   -1.117275
     15          1           0        3.167038   -1.281235   -0.271793
     16          1           0        2.366690    0.530084    1.489809
     17          1           0        2.368728    1.275195   -0.097397
     18          1           0        0.022588    0.395488    1.549277
     19          1           0        0.335455    2.767250    0.697674
 ---------------------------------------------------------------------

 SCF Done:  E(RB3LYP) =  -423.191242742     A.U. after    1 cycles

 The electronic state is 1-A.
 Alpha  occ. eigenvalues --  -19.14489 -19.13663 -10.27483 -10.23350 -10.21925
 Alpha  occ. eigenvalues --  -10.20255 -10.19982 -10.19129 -10.18296  -1.05144
 Alpha  occ. eigenvalues --   -1.02860  -0.84965  -0.74328  -0.72314  -0.66425
 Alpha  occ. eigenvalues --   -0.61797  -0.56328  -0.54139  -0.50609  -0.50302
 Alpha  occ. eigenvalues --   -0.45696  -0.44569  -0.44125  -0.43629  -0.40672
 Alpha  occ. eigenvalues --   -0.39854  -0.38257  -0.36118  -0.35199  -0.35048
 Alpha  occ. eigenvalues --   -0.31167  -0.26506  -0.26044  -0.24167
 Alpha virt. eigenvalues --   -0.02481   0.01320   0.09087   0.10534   0.11672
 Alpha virt. eigenvalues --    0.12811   0.14328   0.15406   0.15543   0.16287
 Alpha virt. eigenvalues --    0.16593   0.18072   0.19291   0.19671   0.20577

 Mulliken charges:
               1
     1  C   -0.236676
     2  O   -0.255474
     3  C    0.089582
     4  C   -0.094128
     5  C   -0.065999
     6  C   -0.296704
     7  C   -0.105524
     8  C    0.142192
     9  O   -0.247364
    10  H    0.113561
    11  H    0.123036
    12  H    0.106380
    13  H    0.093145
    14  H    0.105495
    15  H    0.101990
    16  H    0.116764
    17  H    0.116300
    18  H    0.114093
    19  H    0.079329
 Sum of Mulliken charges =   0.00000

 Dipole moment (field-independent basis, Debye):
    X=              1.5342    Y=              0.0013    Z=              1.1059  Tot=              1.8912
 Quadrupole moment (field-independent basis, Debye-Ang):
   XX=            -49.2094   YY=            -57.3806   ZZ=            -53.4276
   XY=              2.7875   XZ=             -1.0418   YZ=              5.1225

  Exact polarizability:  92.535   2.217  78.256   5.732   5.874  61.748
 Approx polarizability: 131.030   5.626 110.120  16.370   5.315 101.292

                      1                      2                      3
                      A                      A                      A
 Frequencies --     41.0704                65.0216                82.3672
 Red. masses --      4.2375                 2.4750                 2.5188
 Frc consts  --      0.0042                 0.0062                 0.0101
 IR Inten    --      4.2680                 2.5333                 2.2563

                      4                      5                      6
                      A                      A                      A
 Frequencies --    170.3518               190.2775               262.1582
 Red. masses --      4.3593                 1.1712                 3.3098
 Frc consts  --      0.0745                 0.0250                 0.1340
 IR Inten    --      4.3950                 0.4768                 1.3091

                      7                      8                      9
                      A                      A                      A
 Frequencies --    294.2907               378.8473               415.7370
 Red. masses --      3.0625                 2.4658                 3.5633
 Frc consts  --      0.1563                 0.2085                 0.3629
 IR Inten    --      5.4990                 2.7526                 5.1189

                     10                     11                     12
                      A                      A                      A
 Frequencies --    500.3162               585.1619               680.1723
 Red. masses --      3.5302                 3.4440                 4.3148
 Frc consts  --      0.5206                 0.6948                 1.1761
 IR Inten    --      3.4749                 1.7494                25.1531

                     13                     14                     15
                      A                      A                      A
 Frequencies --    739.1259               787.9644               835.0160
 Red. masses --      1.5501                 4.1678                 2.2831
 Frc consts  --      0.4989                 1.5247                 0.9379
 IR Inten    --     12.6720                 4.0958                 7.4447

                     16                     17                     18
                      A                      A                      A
 Frequencies --    921.7361               954.3264               976.7822
 Red. masses --      1.3327                 2.3428                 1.5144
 Frc consts  --      0.6671                 1.2572                 0.8513
 IR Inten    --      0.7647                 3.9267                 9.5530

                     19                     20                     21
                      A                      A                      A
 Frequencies --    985.6264              1020.3419              1030.1500
 Red. masses --      2.3056                 2.7014                 2.5678
 Frc consts  --      1.3196                 1.6571                 1.6055
 IR Inten    --     20.0308                 9.4288                 0.4290

                     22                     23                     24
                      A                      A                      A
 Frequencies --   1070.2181              1110.6192              1125.1684
 Red. masses --      2.2388                 2.6813                 1.4483
 Frc consts  --      1.5108                 1.9486                 1.0803
 IR Inten    --     11.6155                32.8287                36.5656

                     25                     26                     27
                      A                      A                      A
 Frequencies --   1150.1828              1176.2992              1181.9649
 Red. masses --      2.3560                 1.3214                 1.2957
 Frc consts  --      1.8363                 1.0773                 1.0665
 IR Inten    --     91.1701                16.6119                 3.9165

                     28                     29                     30
                      A                      A                      A
 Frequencies --   1218.6983              1249.0155              1276.0997
 Red. masses --      1.4990                 1.4019                 1.3649
 Frc consts  --      1.3117                 1.2885                 1.3095
 IR Inten    --     31.5788                20.7412                 2.3124

                     31                     32                     33
                      A                      A                      A
 Frequencies --   1297.7621              1352.1537              1359.6199
 Red. masses --      1.4172                 1.8045                 1.5410
 Frc consts  --      1.4062                 1.9439                 1.6784
 IR Inten    --      1.7561                 8.5789                 0.4362

                     34                     35                     36
                      A                      A                      A
 Frequencies --   1396.7546              1428.2774              1480.9830
 Red. masses --      1.3479                 1.2236                 1.1110
 Frc consts  --      1.5493                 1.4706                 1.4357
 IR Inten    --     43.9624                 7.2686                 2.8144

                     37                     38                     39
                      A                      A                      A
 Frequencies --   1490.1134              1492.2503              1506.3843
 Red. masses --      1.0685                 1.0888                 1.0741
 Frc consts  --      1.3979                 1.4285                 1.4360
 IR Inten    --      2.9553                 1.9376                 8.0066

                     40                     41                     42
                      A                      A                      A
 Frequencies --   1698.0474              1823.4123              2858.4204
 Red. masses --      6.4875                10.5139                 1.0823
 Frc consts  --     11.0212                20.5961                 5.2101
 IR Inten    --      2.7247               145.8123               123.8940

                     43                     44                     45
                      A                      A                      A
 Frequencies --   2983.3665              2988.0680              3011.4988
 Red. masses --      1.0516                 1.0642                 1.0667
 Frc consts  --      5.5144                 5.5982                 5.6997
 IR Inten    --     29.5785                41.6996                33.0993

                     46                     47                     48
                      A                      A                      A
 Frequencies --   3027.8925              3033.4884              3056.3085
 Red. masses --      1.0832                 1.1029                 1.0942
 Frc consts  --      5.8509                 5.9793                 6.0221
 IR Inten    --      5.4638                47.3013                26.1279

                     49                     50                     51
                      A                      A                      A
 Frequencies --   3113.5886              3187.4368              3216.3510
 Red. masses --      1.0978                 1.0859                 1.1033
 Frc consts  --      6.2706                 6.5002                 6.7247
 IR Inten    --     33.4535                 7.0264                15.2817

 - Thermochemistry -
 -------------------
 Temperature   298.150 Kelvin.  Pressure   1.00000 Atm.
 Atom     1 has atomic number  6 and mass  12.00000

 Molecular mass:   126.06808 amu.
 Principal axes and moments of inertia in atomic units:
                           1         2         3
     Eigenvalues --   922.357691088.656811771.65120
           X            0.99312   0.11706   0.00140
           Y           -0.11705   0.99265   0.03081
           Z            0.00222  -0.03076   0.99952
 This molecule is an asymmetric top.
 Rotational symmetry number  1.
 Warning -- assumption of classical behavior for rotation
           may cause significant error
 Rotational temperatures (Kelvin)      0.09390     0.07956     0.04889
 Rotational constants (GHZ):           1.95666     1.65777     1.01868
 Zero-point vibrational energy     414370.2 (Joules/Mol)
                                   99.03685 (Kcal/Mol)
 Warning -- explicit consideration of  11 degrees of freedom as
           vibrations may cause significant error
 Vibrational temperatures:     59.09    93.55   118.51   245.10   273.77
          (Kelvin)            377.19   423.42   545.08   598.15   719.84
                              841.92   978.62  1063.44  1133.70  1201.40
                             1326.17  1373.06  1405.37  1418.09  1468.04
                             1482.15  1539.80  1597.93  1618.86  1654.85
                             1692.43  1700.58  1753.43  1797.05  1836.02
                             1867.19  1945.45  1956.19  2009.62  2054.97
                             2130.80  2143.94  2147.01  2167.35  2443.11
                             2623.48  4112.62  4292.39  4299.16  4332.87
                             4356.46  4364.51  4397.34  4479.75  4586.00
                             4627.61

 Zero-point correction=                           0.157825 (Hartree/Particle)
 Thermal correction to Energy=                    0.167032
 Thermal correction to Enthalpy=                  0.167977
 Thermal correction to Gibbs Free Energy=         0.122485
 Sum of electronic and zero-point Energies=           -423.033417
 Sum of electronic and thermal Energies=              -423.024210
 Sum of electronic and thermal Enthalpies=            -423.023266
 Sum of electronic and thermal Free Energies=         -423.068757

                     E (Thermal)             CV                S
                      KCal/Mol        Cal/Mol-Kelvin    Cal/Mol-Kelvin
 Total                  104.814             32.595             95.744
 Electronic               0.000              0.000              0.000
 Translational            0.889              2.981             40.409
 Rotational               0.889              2.981             28.966
 Vibrational            103.037             26.634             26.370
 Vibration     1          0.594              1.981              5.207
 Vibration     2          0.597              1.971              4.299
 Vibration     3          0.600              1.961              3.834
 Vibration     4          0.625              1.879              2.432
 Vibration     5          0.634              1.853              2.225
 Vibration     6          0.669              1.742              1.647
 Vibration     7          0.689              1.684              1.449
 Vibration     8          0.749              1.515              1.044
 Vibration     9          0.779              1.436              0.907
 Vibration    10          0.856              1.249              0.657
 Vibration    11          0.942              1.063              0.476

 Normal termination of Gaussian 09 at Tue Jan 28 14:56:24 2020.
