 Gaussian 09, Revision D.01,
 Gaussian 09:  ES64L-G09RevD.01 24-Apr-2013

 -----------------------------
 # b3lyp 6-31G(2df,p) opt Freq
 -----------------------------

 -----
 titel
 -----
 Symbolic Z-matrix:
 Charge =  0 Multiplicity = 1

 SCF Done:  E(RB3LYP) =  -423.124621899     A.U. after   12 cycles
 Optimization completed.
    -- Stationary point found.
 Normal termination of Gaussian 09 at Tue Jan 28 01:52:31 2020.

 ----------------------------------------------------------------------
 #N Geom=AllCheck Guess=TCheck SCRF=Check GenChk RB3LYP/6-31G(2df,p) Fr
 eq
 ----------------------------------------------------------------------

 Structure from the checkpoint file:  "/scratch/puck/g09_acefca3e-6f37-4f5e-8604-07294438fabf/Gau-57321.chk"
 -----
 titel
 -----
 Charge =  0 Multiplicity = 1

                         Standard orientation:
 ---------------------------------------------------------------------
 Center     Atomic      Atomic             Coordinates (Angstroms)
 Number     Number       Type             X           Y           Z
 ---------------------------------------------------------------------
      1          8           0       -2.277444    1.381779    0.091266
      2          6           0       -1.995245    0.072813    0.471130
      3          6           0       -1.946185   -1.025472   -0.588869
      4          6           0       -0.688934   -0.493792    0.021621
      5          6           0        0.477370   -1.119419    0.775606
      6          6           0        1.301043   -0.077463    0.022757
      7          6           0        2.652809   -0.154614   -0.593890
      8          6           0        2.355333    0.857937    0.508479
      9          8           0        0.163969    0.392592   -0.725266
     10          1           0       -1.451480    1.740968   -0.264395
     11          1           0       -2.380276   -0.182811    1.455854
     12          1           0       -2.271378   -2.025573   -0.318545
     13          1           0       -2.156469   -0.724869   -1.610296
     14          1           0        0.451828   -1.019787    1.862919
     15          1           0        0.696154   -2.154794    0.502808
     16          1           0        3.280474   -1.009515   -0.363741
     17          1           0        2.755570    0.226979   -1.604001
     18          1           0        2.778598    0.695751    1.494571
     19          1           0        2.267632    1.898747    0.215809
 ---------------------------------------------------------------------

 SCF Done:  E(RB3LYP) =  -423.124621899     A.U. after    1 cycles

 The electronic state is 1-A.
 Alpha  occ. eigenvalues --  -19.15133 -19.13176 -10.25051 -10.24359 -10.22996
 Alpha  occ. eigenvalues --  -10.19888 -10.19090 -10.19057 -10.18039  -1.06080
 Alpha  occ. eigenvalues --   -1.01600  -0.85887  -0.82970  -0.73961  -0.61321
 Alpha  occ. eigenvalues --   -0.60350  -0.58997  -0.53695  -0.51613  -0.50864
 Alpha  occ. eigenvalues --   -0.47703  -0.46222  -0.45406  -0.41390  -0.39348
 Alpha  occ. eigenvalues --   -0.38020  -0.37696  -0.35745  -0.34532  -0.32913
 Alpha  occ. eigenvalues --   -0.29828  -0.29770  -0.24244  -0.22585
 Alpha virt. eigenvalues --    0.06173   0.09532   0.10229   0.10780   0.11881
 Alpha virt. eigenvalues --    0.12198   0.13159   0.14730   0.16333   0.16572
 Alpha virt. eigenvalues --    0.17645   0.20315   0.21012   0.22166   0.22318

 Mulliken charges:
               1
     1  O   -0.434372
     2  C    0.067456
     3  C   -0.394562
     4  C    0.394909
     5  C   -0.453899
     6  C    0.458859
     7  C   -0.333086
     8  C   -0.328773
     9  O   -0.338039
    10  H    0.293013
    11  H    0.096630
    12  H    0.114415
    13  H    0.128973
    14  H    0.117948
    15  H    0.118036
    16  H    0.118489
    17  H    0.129234
    18  H    0.118374
    19  H    0.126395
 Sum of Mulliken charges =   0.00000

 Dipole moment (field-independent basis, Debye):
    X=              2.0107    Y=             -1.5736    Z=              0.8962  Tot=              2.7060
 Quadrupole moment (field-independent basis, Debye-Ang):
   XX=            -56.5360   YY=            -51.8549   ZZ=            -51.9456
   XY=              3.6740   XZ=              0.4200   YZ=             -1.3260

  Exact polarizability:  90.570   3.146  72.884  -0.001   0.875  66.847
 Approx polarizability: 113.344   1.384 107.390  -0.720   1.038 100.599

                      1                      2                      3
                      A                      A                      A
 Frequencies --     56.9313               166.9790               173.1051
 Red. masses --      4.4087                 3.0317                 3.8462
 Frc consts  --      0.0084                 0.0498                 0.0679
 IR Inten    --      0.0874                 1.4577                 3.0082

                      4                      5                      6
                      A                      A                      A
 Frequencies --    273.9441               296.7008               343.2306
 Red. masses --      3.4411                 2.1616                 2.0749
 Frc consts  --      0.1522                 0.1121                 0.1440
 IR Inten    --      3.3294                 1.4791                10.8653

                      7                      8                      9
                      A                      A                      A
 Frequencies --    397.3596               425.5537               451.6011
 Red. masses --      1.4227                 2.9282                 1.7754
 Frc consts  --      0.1324                 0.3124                 0.2133
 IR Inten    --     34.3447                 0.7802                 5.7514

                     10                     11                     12
                      A                      A                      A
 Frequencies --    469.6591               580.8484               689.3397
 Red. masses --      3.0922                 3.2540                 3.8843
 Frc consts  --      0.4019                 0.6468                 1.0875
 IR Inten    --      4.9117                 3.5679                25.3911

                     13                     14                     15
                      A                      A                      A
 Frequencies --    754.0708               804.9719               826.2763
 Red. masses --      1.0466                 1.9474                 1.8583
 Frc consts  --      0.3506                 0.7435                 0.7475
 IR Inten    --      1.5695                14.5304                 1.4458

                     16                     17                     18
                      A                      A                      A
 Frequencies --    853.6237               873.0078               910.3599
 Red. masses --      1.6060                 2.2826                 2.3395
 Frc consts  --      0.6895                 1.0250                 1.1424
 IR Inten    --      0.8484                25.2764                49.4489

                     19                     20                     21
                      A                      A                      A
 Frequencies --    913.8678               922.7878               984.1396
 Red. masses --      2.7068                 1.8220                 2.5702
 Frc consts  --      1.3319                 0.9141                 1.4667
 IR Inten    --      1.1259                 7.0002                21.9342

                     22                     23                     24
                      A                      A                      A
 Frequencies --   1007.3506              1025.9075              1048.5624
 Red. masses --      2.5060                 1.4750                 1.5189
 Frc consts  --      1.4983                 0.9147                 0.9839
 IR Inten    --      8.6645                28.3646                16.5111

                     25                     26                     27
                      A                      A                      A
 Frequencies --   1070.4396              1090.2648              1099.9193
 Red. masses --      1.4849                 1.5196                 2.6373
 Frc consts  --      1.0024                 1.0642                 1.8799
 IR Inten    --      0.0595                 3.6042                39.4617

                     28                     29                     30
                      A                      A                      A
 Frequencies --   1155.5020              1159.2236              1172.3902
 Red. masses --      2.5832                 2.0837                 1.7643
 Frc consts  --      2.0321                 1.6498                 1.4288
 IR Inten    --    108.3499                36.9205                12.9295

                     31                     32                     33
                      A                      A                      A
 Frequencies --   1185.2875              1230.6827              1263.6066
 Red. masses --      1.2717                 1.3605                 3.0276
 Frc consts  --      1.0527                 1.2141                 2.8482
 IR Inten    --      0.2671                 7.6420                18.4688

                     34                     35                     36
                      A                      A                      A
 Frequencies --   1307.0343              1361.9257              1397.7657
 Red. masses --      1.6252                 1.9717                 1.4860
 Frc consts  --      1.6358                 2.1548                 1.7106
 IR Inten    --     13.8495                69.5263                22.6003

                     37                     38                     39
                      A                      A                      A
 Frequencies --   1416.9358              1448.3046              1480.8218
 Red. masses --      1.1607                 1.0903                 1.6881
 Frc consts  --      1.3730                 1.3475                 2.1809
 IR Inten    --     32.1170                 2.2208                44.8764

                     40                     41                     42
                      A                      A                      A
 Frequencies --   1488.6188              1516.9140              3063.1558
 Red. masses --      1.1940                 2.4471                 1.0584
 Frc consts  --      1.5589                 3.3176                 5.8509
 IR Inten    --      9.0326                12.0100                24.9822

                     43                     44                     45
                      A                      A                      A
 Frequencies --   3115.8259              3122.3110              3128.1639
 Red. masses --      1.1087                 1.0545                 1.0508
 Frc consts  --      6.3418                 6.0570                 6.0582
 IR Inten    --     13.3225                 5.2851                12.3604

                     46                     47                     48
                      A                      A                      A
 Frequencies --   3130.8076              3131.0004              3211.6926
 Red. masses --      1.0581                 1.0887                 1.1182
 Frc consts  --      6.1105                 6.2884                 6.7955
 IR Inten    --      3.6973                25.1094                 0.2249

                     49                     50                     51
                      A                      A                      A
 Frequencies --   3218.5155              3225.6613              3722.4024
 Red. masses --      1.1166                 1.1152                 1.0655
 Frc consts  --      6.8150                 6.8367                 8.6985
 IR Inten    --      4.5670                 8.7065                55.2803

 - Thermochemistry -
 -------------------
 Temperature   298.150 Kelvin.  Pressure   1.00000 Atm.
 Atom     1 has atomic number  8 and mass  15.99491

 Molecular mass:   126.06808 amu.
 Principal axes and moments of inertia in atomic units:
                           1         2         3
     Eigenvalues --   482.063991606.427071777.00672
           X            0.99984   0.01759   0.00362
           Y           -0.01756   0.99980  -0.00938
           Z           -0.00379   0.00931   0.99995
 This molecule is an asymmetric top.
 Rotational symmetry number  1.
 Warning -- assumption of classical behavior for rotation
           may cause significant error
 Rotational temperatures (Kelvin)      0.17967     0.05392     0.04874
 Rotational constants (GHZ):           3.74378     1.12345     1.01561
 Zero-point vibrational energy     413700.7 (Joules/Mol)
                                   98.87683 (Kcal/Mol)
 Warning -- explicit consideration of  11 degrees of freedom as
           vibrations may cause significant error
 Vibrational temperatures:     81.91   240.25   249.06   394.14   426.89
          (Kelvin)            493.83   571.71   612.28   649.75   675.73
                              835.71   991.80  1084.94  1158.17  1188.83
                             1228.17  1256.06  1309.80  1314.85  1327.68
                             1415.96  1449.35  1476.05  1508.65  1540.12
                             1568.65  1582.54  1662.51  1667.86  1686.81
                             1705.36  1770.68  1818.05  1880.53  1959.50
                             2011.07  2038.65  2083.78  2130.57  2141.79
                             2182.50  4407.19  4482.97  4492.30  4500.72
                             4504.53  4504.81  4620.90  4630.72  4641.00
                             5355.70

 Zero-point correction=                           0.157570 (Hartree/Particle)
 Thermal correction to Energy=                    0.165978
 Thermal correction to Enthalpy=                  0.166922
 Thermal correction to Gibbs Free Energy=         0.124527
 Sum of electronic and zero-point Energies=           -422.967052
 Sum of electronic and thermal Energies=              -422.958644
 Sum of electronic and thermal Enthalpies=            -422.957700
 Sum of electronic and thermal Free Energies=         -423.000094

                     E (Thermal)             CV                S
                      KCal/Mol        Cal/Mol-Kelvin    Cal/Mol-Kelvin
 Total                  104.153             33.061             89.227
 Electronic               0.000              0.000              0.000
 Translational            0.889              2.981             40.409
 Rotational               0.889              2.981             28.711
 Vibrational            102.375             27.099             20.108
 Vibration     1          0.596              1.975              4.561
 Vibration     2          0.624              1.883              2.469
 Vibration     3          0.627              1.876              2.402
 Vibration     4          0.676              1.721              1.571
 Vibration     5          0.690              1.680              1.435
 Vibration     6          0.722              1.589              1.197
 Vibration     7          0.764              1.476              0.972
 Vibration     8          0.787              1.415              0.873
 Vibration     9          0.810              1.357              0.791
 Vibration    10          0.827              1.317              0.739
 Vibration    11          0.938              1.073              0.484

 Normal termination of Gaussian 09 at Tue Jan 28 02:36:14 2020.
