 Gaussian 09, Revision D.01,
 Gaussian 09:  ES64L-G09RevD.01 24-Apr-2013

 -----------------------------
 # b3lyp 6-31G(2df,p) opt Freq
 -----------------------------

 -----
 titel
 -----
 Symbolic Z-matrix:
 Charge =  0 Multiplicity = 1

 SCF Done:  E(RB3LYP) =  -423.132352970     A.U. after   14 cycles
 Optimization completed.
    -- Stationary point found.
 Normal termination of Gaussian 09 at Mon Jan 27 18:07:33 2020.

 ----------------------------------------------------------------------
 #N Geom=AllCheck Guess=TCheck SCRF=Check GenChk RB3LYP/6-31G(2df,p) Fr
 eq
 ----------------------------------------------------------------------

 Structure from the checkpoint file:  "/scratch/puck/g09_16553e06-a81e-401f-ba66-2c7dd85afce2/Gau-35057.chk"
 -----
 titel
 -----
 Charge =  0 Multiplicity = 1

                         Standard orientation:
 ---------------------------------------------------------------------
 Center     Atomic      Atomic             Coordinates (Angstroms)
 Number     Number       Type             X           Y           Z
 ---------------------------------------------------------------------
      1          6           0        2.688502    0.070740   -0.567536
      2          6           0        1.296920   -0.077021   -0.057297
      3          8           0        0.809776    0.872524    0.918649
      4          6           0       -0.291275   -0.059234    1.147017
      5          6           0        0.506476   -1.222965    0.477313
      6          6           0        0.077094   -0.574973   -0.843817
      7          6           0       -1.127049    0.104964   -0.163321
      8          6           0       -2.412328   -0.701775   -0.199700
      9          8           0       -1.420985    1.428217   -0.517949
     10          1           0        2.800799    1.009272   -1.120949
     11          1           0        3.409195    0.067513    0.255867
     12          1           0        2.931333   -0.753397   -1.244593
     13          1           0       -0.719060    0.003990    2.146012
     14          1           0        0.745562   -2.239172    0.754825
     15          1           0        0.150949   -0.976260   -1.847414
     16          1           0       -2.835969   -0.690042   -1.208291
     17          1           0       -2.239385   -1.741082    0.091194
     18          1           0       -3.148548   -0.259463    0.478250
     19          1           0       -0.635255    1.934304   -0.266455
 ---------------------------------------------------------------------

 SCF Done:  E(RB3LYP) =  -423.132352969     A.U. after    1 cycles

 The electronic state is 1-A.
 Alpha  occ. eigenvalues --  -19.14420 -19.12460 -10.24900 -10.24000 -10.23839
 Alpha  occ. eigenvalues --  -10.19750 -10.19181 -10.19044 -10.17391  -1.06943
 Alpha  occ. eigenvalues --   -1.00792  -0.85948  -0.76810  -0.72759  -0.65861
 Alpha  occ. eigenvalues --   -0.62780  -0.55523  -0.54064  -0.52159  -0.49106
 Alpha  occ. eigenvalues --   -0.46595  -0.43149  -0.42427  -0.41402  -0.40163
 Alpha  occ. eigenvalues --   -0.38461  -0.38064  -0.36241  -0.35489  -0.34528
 Alpha  occ. eigenvalues --   -0.29497  -0.26754  -0.26402  -0.23269
 Alpha virt. eigenvalues --    0.08271   0.08533   0.10511   0.11265   0.12507
 Alpha virt. eigenvalues --    0.13882   0.14646   0.15278   0.15702   0.16642
 Alpha virt. eigenvalues --    0.17172   0.18141   0.19089   0.21083   0.22772

 Mulliken charges:
               1
     1  C   -0.505859
     2  C    0.447888
     3  O   -0.344097
     4  C   -0.018967
     5  C   -0.195257
     6  C   -0.234582
     7  C    0.456672
     8  C   -0.434512
     9  O   -0.489713
    10  H    0.134249
    11  H    0.134477
    12  H    0.130219
    13  H    0.083404
    14  H    0.100665
    15  H    0.086743
    16  H    0.126835
    17  H    0.117181
    18  H    0.123147
    19  H    0.281508
 Sum of Mulliken charges =   0.00000

 Dipole moment (field-independent basis, Debye):
    X=              1.1570    Y=             -1.9805    Z=             -0.1223  Tot=              2.2970
 Quadrupole moment (field-independent basis, Debye-Ang):
   XX=            -53.0188   YY=            -53.2078   ZZ=            -52.4909
   XY=              1.4665   XZ=             -3.6046   YZ=             -0.1382

  Exact polarizability:  86.785   1.042  68.413  -1.975  -0.369  68.060
 Approx polarizability: 112.178   1.054 108.435   0.013  -0.551 107.236

                      1                      2                      3
                      A                      A                      A
 Frequencies --    161.1596               189.9525               212.8609
 Red. masses --      3.3847                 1.0771                 1.2297
 Frc consts  --      0.0518                 0.0229                 0.0328
 IR Inten    --      0.2263                 0.2836                 0.4420

                      4                      5                      6
                      A                      A                      A
 Frequencies --    218.2654               268.1926               325.6046
 Red. masses --      1.7856                 3.6203                 2.8086
 Frc consts  --      0.0501                 0.1534                 0.1754
 IR Inten    --      0.1814                 3.6393                 2.8919

                      7                      8                      9
                      A                      A                      A
 Frequencies --    352.7486               418.0380               544.4099
 Red. masses --      3.1733                 3.0413                 1.2087
 Frc consts  --      0.2326                 0.3131                 0.2111
 IR Inten    --      5.5965                 0.5708                50.7824

                     10                     11                     12
                      A                      A                      A
 Frequencies --    565.5895               612.9674               625.6000
 Red. masses --      3.1829                 4.3898                 3.5503
 Frc consts  --      0.5999                 0.9718                 0.8187
 IR Inten    --      9.8071                 6.1877                 9.7936

                     13                     14                     15
                      A                      A                      A
 Frequencies --    670.3275               777.2835               799.5564
 Red. masses --      3.5383                 3.8548                 2.1685
 Frc consts  --      0.9367                 1.3722                 0.8168
 IR Inten    --      8.4695                 4.9670                 5.3652

                     16                     17                     18
                      A                      A                      A
 Frequencies --    813.4770               882.7829               895.3217
 Red. masses --      1.5143                 2.8774                 1.7854
 Frc consts  --      0.5904                 1.3212                 0.8432
 IR Inten    --      5.7942                19.6549                17.1725

                     19                     20                     21
                      A                      A                      A
 Frequencies --    905.5002               923.2841               946.3175
 Red. masses --      2.2812                 1.8501                 2.5178
 Frc consts  --      1.1020                 0.9292                 1.3285
 IR Inten    --      3.4172                18.9993                29.1510

                     22                     23                     24
                      A                      A                      A
 Frequencies --    959.1106              1038.1348              1047.3841
 Red. masses --      2.3270                 1.8245                 2.7413
 Frc consts  --      1.2612                 1.1585                 1.7718
 IR Inten    --     22.2509                 7.4800                 4.4641

                     25                     26                     27
                      A                      A                      A
 Frequencies --   1092.1441              1102.3666              1126.0536
 Red. masses --      2.0364                 1.8273                 2.2336
 Frc consts  --      1.4311                 1.3083                 1.6687
 IR Inten    --     25.8604                20.4550                27.6608

                     28                     29                     30
                      A                      A                      A
 Frequencies --   1140.1794              1156.4076              1208.5544
 Red. masses --      1.6144                 1.5365                 2.1316
 Frc consts  --      1.2365                 1.2106                 1.8343
 IR Inten    --      3.5008                 1.3814                54.8552

                     31                     32                     33
                      A                      A                      A
 Frequencies --   1221.8228              1244.1102              1303.3546
 Red. masses --      2.8109                 2.2091                 2.0226
 Frc consts  --      2.4723                 2.0146                 2.0244
 IR Inten    --     36.5033                25.2820                25.3941

                     34                     35                     36
                      A                      A                      A
 Frequencies --   1394.0734              1402.7671              1432.9144
 Red. masses --      1.2823                 1.2857                 1.7655
 Frc consts  --      1.4683                 1.4906                 2.1358
 IR Inten    --     49.5653                 6.7757                64.8481

                     37                     38                     39
                      A                      A                      A
 Frequencies --   1458.8875              1473.8650              1480.2542
 Red. masses --      3.8853                 1.0661                 1.0536
 Frc consts  --      4.8721                 1.3645                 1.3602
 IR Inten    --     14.8463                 3.5280                 2.9461

                     40                     41                     42
                      A                      A                      A
 Frequencies --   1500.1423              1500.9106              3036.8008
 Red. masses --      1.1045                 1.0658                 1.0354
 Frc consts  --      1.4645                 1.4146                 5.6258
 IR Inten    --      8.0971                 1.0225                25.1896

                     43                     44                     45
                      A                      A                      A
 Frequencies --   3043.2969              3103.0133              3111.6006
 Red. masses --      1.0349                 1.1011                 1.1015
 Frc consts  --      5.6471                 6.2467                 6.2838
 IR Inten    --     18.8673                14.5727                15.0646

                     46                     47                     48
                      A                      A                      A
 Frequencies --   3117.4135              3124.4134              3139.4269
 Red. masses --      1.1007                 1.1016                 1.0925
 Frc consts  --      6.3026                 6.3362                 6.3441
 IR Inten    --     12.6939                20.1722                30.7269

                     49                     50                     51
                      A                      A                      A
 Frequencies --   3191.1520              3220.7140              3739.0052
 Red. masses --      1.0920                 1.0996                 1.0644
 Frc consts  --      6.5517                 6.7201                 8.7669
 IR Inten    --     10.3649                 5.3263                32.5298

 - Thermochemistry -
 -------------------
 Temperature   298.150 Kelvin.  Pressure   1.00000 Atm.
 Atom     1 has atomic number  6 and mass  12.00000

 Molecular mass:   126.06808 amu.
 Principal axes and moments of inertia in atomic units:
                           1         2         3
     Eigenvalues --   537.319031267.164781356.39460
           X            0.99950   0.02156  -0.02294
           Y           -0.02162   0.99976  -0.00256
           Z            0.02288   0.00306   0.99973
 This molecule is an asymmetric top.
 Rotational symmetry number  1.
 Warning -- assumption of classical behavior for rotation
           may cause significant error
 Rotational temperatures (Kelvin)      0.16120     0.06835     0.06386
 Rotational constants (GHZ):           3.35879     1.42424     1.33054
 Zero-point vibrational energy     414024.6 (Joules/Mol)
                                   98.95426 (Kcal/Mol)
 Warning -- explicit consideration of  11 degrees of freedom as
           vibrations may cause significant error
 Vibrational temperatures:    231.87   273.30   306.26   314.03   385.87
          (Kelvin)            468.47   507.53   601.46   783.28   813.76
                              881.92   900.10   964.45  1118.34  1150.38
                             1170.41  1270.13  1288.17  1302.81  1328.40
                             1361.54  1379.94  1493.64  1506.95  1571.35
                             1586.06  1620.14  1640.46  1663.81  1738.84
                             1757.93  1789.99  1875.23  2005.76  2018.27
                             2061.64  2099.01  2120.56  2129.75  2158.37
                             2159.47  4369.27  4378.62  4464.54  4476.89
                             4485.26  4495.33  4516.93  4591.35  4633.88
                             5379.59

 Zero-point correction=                           0.157694 (Hartree/Particle)
 Thermal correction to Energy=                    0.165922
 Thermal correction to Enthalpy=                  0.166866
 Thermal correction to Gibbs Free Energy=         0.125635
 Sum of electronic and zero-point Energies=           -422.974659
 Sum of electronic and thermal Energies=              -422.966431
 Sum of electronic and thermal Enthalpies=            -422.965487
 Sum of electronic and thermal Free Energies=         -423.006718

                     E (Thermal)             CV                S
                      KCal/Mol        Cal/Mol-Kelvin    Cal/Mol-Kelvin
 Total                  104.118             33.041             86.779
 Electronic               0.000              0.000              0.000
 Translational            0.889              2.981             40.409
 Rotational               0.889              2.981             28.315
 Vibrational            102.340             27.080             18.056
 Vibration     1          0.622              1.890              2.536
 Vibration     2          0.633              1.854              2.228
 Vibration     3          0.644              1.821              2.019
 Vibration     4          0.646              1.813              1.973
 Vibration     5          0.673              1.732              1.608
 Vibration     6          0.710              1.624              1.282
 Vibration     7          0.729              1.570              1.154
 Vibration     8          0.781              1.431              0.899
 Vibration     9          0.900              1.152              0.556
 Vibration    10          0.921              1.106              0.513
 Vibration    11          0.972              1.004              0.428

 Optimization completed.
    -- Stationary point found.
 Normal termination of Gaussian 09 at Mon Jan 27 18:54:51 2020.
