 Gaussian 09, Revision D.01,
 Gaussian 09:  ES64L-G09RevD.01 24-Apr-2013

 -----------------------------
 # b3lyp 6-31G(2df,p) opt Freq
 -----------------------------

 -----
 titel
 -----
 Symbolic Z-matrix:
 Charge =  0 Multiplicity = 1

 SCF Done:  E(RB3LYP) =  -423.198606988     A.U. after   14 cycles
 Optimization completed.
    -- Stationary point found.
 Normal termination of Gaussian 09 at Mon Jan 27 22:00:23 2020.

 ----------------------------------------------------------------------
 #N Geom=AllCheck Guess=TCheck SCRF=Check GenChk RB3LYP/6-31G(2df,p) Fr
 eq
 ----------------------------------------------------------------------

 Structure from the checkpoint file:  "/scratch/puck/g09_d9675b17-c8aa-4d94-9180-54f1746e0622/Gau-76330.chk"
 -----
 titel
 -----
 Charge =  0 Multiplicity = 1

                         Standard orientation:
 ---------------------------------------------------------------------
 Center     Atomic      Atomic             Coordinates (Angstroms)
 Number     Number       Type             X           Y           Z
 ---------------------------------------------------------------------
      1          8           0        0.250188    1.962119    0.494146
      2          6           0       -0.253228    0.749097    0.030556
      3          6           0       -1.538714    0.758856   -0.788621
      4          6           0       -2.116397   -0.666851   -0.635828
      5          6           0       -1.591248   -1.175214    0.731973
      6          6           0       -0.286116   -0.424381    0.940545
      7          6           0        0.707694   -0.419633   -0.236298
      8          6           0        2.138633   -0.251420    0.094045
      9          8           0        3.043095   -0.740067   -0.541747
     10          1           0        0.587216    2.459566   -0.259548
     11          1           0       -2.201812    1.505992   -0.336696
     12          1           0       -1.386450    1.042593   -1.835698
     13          1           0       -3.207264   -0.680074   -0.693022
     14          1           0       -1.752455   -1.310897   -1.441848
     15          1           0       -2.284311   -0.904392    1.537205
     16          1           0       -1.475491   -2.263196    0.755205
     17          1           0        0.147096   -0.354243    1.932694
     18          1           0        0.525201   -1.066882   -1.088108
     19          1           0        2.338260    0.372386    0.992397
 ---------------------------------------------------------------------

 SCF Done:  E(RB3LYP) =  -423.198606988     A.U. after    1 cycles

 The electronic state is 1-A.
 Alpha  occ. eigenvalues --  -19.15908 -19.12444 -10.26109 -10.25498 -10.20505
 Alpha  occ. eigenvalues --  -10.19769 -10.19564 -10.19430 -10.19397  -1.04652
 Alpha  occ. eigenvalues --   -1.03140  -0.88958  -0.78091  -0.71801  -0.66826
 Alpha  occ. eigenvalues --   -0.59711  -0.58164  -0.56480  -0.52024  -0.48229
 Alpha  occ. eigenvalues --   -0.47341  -0.44188  -0.42340  -0.42064  -0.41750
 Alpha  occ. eigenvalues --   -0.39004  -0.38225  -0.36168  -0.35181  -0.34690
 Alpha  occ. eigenvalues --   -0.32295  -0.28514  -0.26687  -0.24006
 Alpha virt. eigenvalues --   -0.01468   0.06879   0.08383   0.09581   0.12564
 Alpha virt. eigenvalues --    0.12974   0.13963   0.14687   0.15845   0.16556
 Alpha virt. eigenvalues --    0.17750   0.18926   0.19674   0.21078   0.22700

 Mulliken charges:
               1
     1  O   -0.466334
     2  C    0.398534
     3  C   -0.279380
     4  C   -0.227845
     5  C   -0.224189
     6  C   -0.100852
     7  C   -0.191388
     8  C    0.145917
     9  O   -0.280295
    10  H    0.289031
    11  H    0.114513
    12  H    0.100030
    13  H    0.105856
    14  H    0.115018
    15  H    0.110251
    16  H    0.108885
    17  H    0.103136
    18  H    0.098510
    19  H    0.080601
 Sum of Mulliken charges =   0.00000

 Dipole moment (field-independent basis, Debye):
    X=             -3.2166    Y=              0.8347    Z=             -0.1196  Tot=              3.3253
 Quadrupole moment (field-independent basis, Debye-Ang):
   XX=            -62.1695   YY=            -52.1053   ZZ=            -52.4047
   XY=              4.9067   XZ=              2.9176   YZ=             -4.1403

  Exact polarizability:  92.565  -0.511  71.292  -2.032   0.278  67.964
 Approx polarizability: 127.231  -6.506 106.734 -10.844   4.522 107.021

                      1                      2                      3
                      A                      A                      A
 Frequencies --     89.5009               152.9945               212.5857
 Red. masses --      5.1555                 4.2109                 2.4919
 Frc consts  --      0.0243                 0.0581                 0.0664
 IR Inten    --      5.2040                 2.8431                 0.9482

                      4                      5                      6
                      A                      A                      A
 Frequencies --    241.8514               246.9072               318.3193
 Red. masses --      2.1976                 1.9065                 1.5655
 Frc consts  --      0.0757                 0.0685                 0.0935
 IR Inten    --      5.2440                 3.7734                38.6134

                      7                      8                      9
                      A                      A                      A
 Frequencies --    348.8229               398.6022               465.6989
 Red. masses --      1.8740                 3.0977                 3.9214
 Frc consts  --      0.1343                 0.2900                 0.5011
 IR Inten    --     59.6226                14.1323                 0.4004

                     10                     11                     12
                      A                      A                      A
 Frequencies --    504.6986               603.1673               629.0942
 Red. masses --      5.2398                 3.1341                 2.6586
 Frc consts  --      0.7864                 0.6718                 0.6199
 IR Inten    --     31.2526                 0.1972                 4.7843

                     13                     14                     15
                      A                      A                      A
 Frequencies --    669.6521               831.7196               877.3789
 Red. masses --      2.9586                 1.9442                 3.2861
 Frc consts  --      0.7817                 0.7924                 1.4904
 IR Inten    --      4.9085                 0.5180                11.2791

                     16                     17                     18
                      A                      A                      A
 Frequencies --    890.8847               905.0487               947.6663
 Red. masses --      2.2095                 1.6873                 1.7757
 Frc consts  --      1.0332                 0.8143                 0.9396
 IR Inten    --      3.8351                 0.5430                 4.4825

                     19                     20                     21
                      A                      A                      A
 Frequencies --    961.7366              1009.8349              1022.3174
 Red. masses --      2.1693                 1.6724                 1.5297
 Frc consts  --      1.1822                 1.0048                 0.9419
 IR Inten    --      1.8524                11.4898                43.9064

                     22                     23                     24
                      A                      A                      A
 Frequencies --   1048.3394              1063.3401              1090.5123
 Red. masses --      1.9296                 1.6438                 2.4953
 Frc consts  --      1.2495                 1.0951                 1.7484
 IR Inten    --      2.0582                11.3848                49.3657

                     25                     26                     27
                      A                      A                      A
 Frequencies --   1133.4914              1167.6006              1191.8085
 Red. masses --      1.7419                 1.5189                 1.4895
 Frc consts  --      1.3186                 1.2200                 1.2465
 IR Inten    --     31.6508                17.0731                25.1547

                     28                     29                     30
                      A                      A                      A
 Frequencies --   1205.6853              1236.4441              1255.6576
 Red. masses --      1.7390                 1.5447                 1.3183
 Frc consts  --      1.4895                 1.3913                 1.2247
 IR Inten    --     11.7708                74.7515                10.5390

                     31                     32                     33
                      A                      A                      A
 Frequencies --   1280.8452              1324.2974              1328.7509
 Red. masses --      1.6032                 1.2904                 1.4922
 Frc consts  --      1.5497                 1.3334                 1.5522
 IR Inten    --     12.3915                27.8722                 5.4879

                     34                     35                     36
                      A                      A                      A
 Frequencies --   1340.7508              1353.0308              1434.1903
 Red. masses --      1.7996                 1.5808                 1.3967
 Frc consts  --      1.9060                 1.7051                 1.6926
 IR Inten    --     19.7406                17.3313                 7.1631

                     37                     38                     39
                      A                      A                      A
 Frequencies --   1456.9804              1489.7243              1494.6488
 Red. masses --      2.1618                 1.0971                 1.1067
 Frc consts  --      2.7038                 1.4346                 1.4567
 IR Inten    --     14.0131                 0.4200                 2.2605

                     40                     41                     42
                      A                      A                      A
 Frequencies --   1512.7319              1807.7749              2894.4956
 Red. masses --      1.1155                 9.7137                 1.0824
 Frc consts  --      1.5040                18.7035                 5.3432
 IR Inten    --      2.5055               281.6172                75.9942

                     43                     44                     45
                      A                      A                      A
 Frequencies --   3035.3706              3038.3657              3058.6594
 Red. masses --      1.0587                 1.0624                 1.0718
 Frc consts  --      5.7469                 5.7787                 5.9079
 IR Inten    --     42.2026                26.0803                 8.8665

                     46                     47                     48
                      A                      A                      A
 Frequencies --   3077.3336              3082.8215              3108.2112
 Red. masses --      1.0995                 1.0960                 1.1041
 Frc consts  --      6.1350                 6.1369                 6.2846
 IR Inten    --     21.8540                28.4238                35.5052

                     49                     50                     51
                      A                      A                      A
 Frequencies --   3167.0226              3172.1550              3794.5921
 Red. masses --      1.0903                 1.0890                 1.0661
 Frc consts  --      6.4429                 6.4562                 9.0440
 IR Inten    --      4.0512                 9.1005                25.0388

 - Thermochemistry -
 -------------------
 Temperature   298.150 Kelvin.  Pressure   1.00000 Atm.
 Atom     1 has atomic number  8 and mass  15.99491

 Molecular mass:   126.06808 amu.
 Principal axes and moments of inertia in atomic units:
                           1         2         3
     Eigenvalues --   655.291871469.617671741.98305
           X            0.99939   0.03085   0.01650
           Y           -0.03023   0.99887  -0.03669
           Z           -0.01761   0.03617   0.99919
 This molecule is an asymmetric top.
 Rotational symmetry number  1.
 Warning -- assumption of classical behavior for rotation
           may cause significant error
 Rotational temperatures (Kelvin)      0.13218     0.05894     0.04972
 Rotational constants (GHZ):           2.75410     1.22803     1.03603
 Zero-point vibrational energy     418538.1 (Joules/Mol)
                                  100.03302 (Kcal/Mol)
 Warning -- explicit consideration of  11 degrees of freedom as
           vibrations may cause significant error
 Vibrational temperatures:    128.77   220.12   305.86   347.97   355.24
          (Kelvin)            457.99   501.88   573.50   670.04   726.15
                              867.82   905.13   963.48  1196.66  1262.35
                             1281.78  1302.16  1363.48  1383.72  1452.93
                             1470.88  1508.32  1529.91  1569.00  1630.84
                             1679.91  1714.74  1734.71  1778.96  1806.61
                             1842.85  1905.37  1911.77  1929.04  1946.71
                             2063.48  2096.27  2143.38  2150.46  2176.48
                             2600.98  4164.53  4367.22  4371.53  4400.72
                             4427.59  4435.49  4472.02  4556.63  4564.02
                             5459.56

 Zero-point correction=                           0.159413 (Hartree/Particle)
 Thermal correction to Energy=                    0.167801
 Thermal correction to Enthalpy=                  0.168745
 Thermal correction to Gibbs Free Energy=         0.126503
 Sum of electronic and zero-point Energies=           -423.039194
 Sum of electronic and thermal Energies=              -423.030806
 Sum of electronic and thermal Enthalpies=            -423.029862
 Sum of electronic and thermal Free Energies=         -423.072104

                     E (Thermal)             CV                S
                      KCal/Mol        Cal/Mol-Kelvin    Cal/Mol-Kelvin
 Total                  105.296             32.327             88.906
 Electronic               0.000              0.000              0.000
 Translational            0.889              2.981             40.409
 Rotational               0.889              2.981             28.908
 Vibrational            103.519             26.365             19.590
 Vibration     1          0.602              1.957              3.671
 Vibration     2          0.619              1.899              2.635
 Vibration     3          0.644              1.822              2.021
 Vibration     4          0.658              1.776              1.789
 Vibration     5          0.661              1.768              1.753
 Vibration     6          0.705              1.639              1.319
 Vibration     7          0.726              1.578              1.172
 Vibration     8          0.765              1.473              0.968
 Vibration     9          0.823              1.326              0.750
 Vibration    10          0.860              1.240              0.646
 Vibration    11          0.962              1.025              0.444

 Optimization completed.
    -- Stationary point found.
 Normal termination of Gaussian 09 at Mon Jan 27 22:41:30 2020.
