 Gaussian 09, Revision D.01,
 Gaussian 09:  ES64L-G09RevD.01 24-Apr-2013

 -----------------------------
 # b3lyp 6-31G(2df,p) opt Freq
 -----------------------------

 -----
 titel
 -----
 Symbolic Z-matrix:
 Charge =  0 Multiplicity = 1

 SCF Done:  E(RB3LYP) =  -423.205904572     A.U. after   13 cycles
 Optimization completed.
    -- Stationary point found.
 Normal termination of Gaussian 09 at Mon Jan 27 22:03:51 2020.

 ----------------------------------------------------------------------
 #N Geom=AllCheck Guess=TCheck SCRF=Check GenChk RB3LYP/6-31G(2df,p) Fr
 eq
 ----------------------------------------------------------------------

 Structure from the checkpoint file:  "/scratch/puck/g09_06e92073-ad5b-4d96-b10b-6d0fe4f6c8b1/Gau-180752.chk"
 -----
 titel
 -----
 Charge =  0 Multiplicity = 1

                         Standard orientation:
 ---------------------------------------------------------------------
 Center     Atomic      Atomic             Coordinates (Angstroms)
 Number     Number       Type             X           Y           Z
 ---------------------------------------------------------------------
      1          6           0        2.650292   -0.207892   -0.130519
      2          6           0        1.215872    0.189985    0.044003
      3          6           0        0.707406    1.385072   -0.262460
      4          6           0       -0.766860    1.679544   -0.108698
      5          6           0       -1.513938    0.384295    0.234189
      6          6           0       -1.451299   -0.668986   -0.909225
      7          8           0       -0.379147   -1.537558   -0.529130
      8          6           0        0.251355   -0.873338    0.561690
      9          8           0       -0.804762   -0.282816    1.283082
     10          1           0        2.734464   -1.069415   -0.805078
     11          1           0        3.247530    0.608901   -0.544467
     12          1           0        3.099925   -0.511344    0.823802
     13          1           0        1.348954    2.180344   -0.635420
     14          1           0       -0.930793    2.428828    0.678179
     15          1           0       -1.172517    2.111284   -1.033201
     16          1           0       -2.531378    0.575239    0.580488
     17          1           0       -2.367578   -1.263362   -0.976894
     18          1           0       -1.252433   -0.205687   -1.882731
     19          1           0        0.738125   -1.623878    1.189828
 ---------------------------------------------------------------------

 SCF Done:  E(RB3LYP) =  -423.205904572     A.U. after    1 cycles

 The electronic state is 1-A.
 Alpha  occ. eigenvalues --  -19.14333 -19.13900 -10.27335 -10.23771 -10.22812
 Alpha  occ. eigenvalues --  -10.18988 -10.18536 -10.18262 -10.18175  -1.08724
 Alpha  occ. eigenvalues --   -0.98782  -0.81106  -0.78727  -0.71216  -0.65622
 Alpha  occ. eigenvalues --   -0.63468  -0.60070  -0.53656  -0.52094  -0.46432
 Alpha  occ. eigenvalues --   -0.45752  -0.45119  -0.42787  -0.41593  -0.40926
 Alpha  occ. eigenvalues --   -0.40054  -0.38283  -0.37935  -0.35141  -0.33265
 Alpha  occ. eigenvalues --   -0.32332  -0.27322  -0.25438  -0.23390
 Alpha virt. eigenvalues --    0.01552   0.08969   0.11331   0.11624   0.12244
 Alpha virt. eigenvalues --    0.13535   0.13893   0.15710   0.16230   0.17070
 Alpha virt. eigenvalues --    0.17598   0.19078   0.19873   0.21859   0.23048

 Mulliken charges:
               1
     1  C   -0.498122
     2  C    0.343581
     3  C   -0.168645
     4  C   -0.266826
     5  C    0.042975
     6  C   -0.099558
     7  O   -0.259096
     8  C    0.071545
     9  O   -0.242573
    10  H    0.137636
    11  H    0.122471
    12  H    0.126031
    13  H    0.084641
    14  H    0.113902
    15  H    0.106196
    16  H    0.086101
    17  H    0.111011
    18  H    0.102897
    19  H    0.085833
 Sum of Mulliken charges =   0.00000

 Dipole moment (field-independent basis, Debye):
    X=             -0.0061    Y=              1.4302    Z=             -0.8051  Tot=              1.6412
 Quadrupole moment (field-independent basis, Debye-Ang):
   XX=            -48.1689   YY=            -53.8906   ZZ=            -55.4077
   XY=             -1.8487   XZ=              2.1356   YZ=             -1.7808

  Exact polarizability:  86.385  -6.648  79.624   2.675  -3.816  60.667
 Approx polarizability: 113.860 -14.726 125.347   4.456  -8.044  96.325

                      1                      2                      3
                      A                      A                      A
 Frequencies --    115.1925               183.3599               220.6942
 Red. masses --      2.8411                 1.1007                 2.6004
 Frc consts  --      0.0222                 0.0218                 0.0746
 IR Inten    --      1.6576                 0.6140                 2.4270

                      4                      5                      6
                      A                      A                      A
 Frequencies --    280.3513               326.8300               355.5309
 Red. masses --      2.7129                 2.9616                 1.9319
 Frc consts  --      0.1256                 0.1864                 0.1439
 IR Inten    --      1.0974                 0.2840                 0.8961

                      7                      8                      9
                      A                      A                      A
 Frequencies --    458.5191               510.7360               584.1778
 Red. masses --      5.1118                 6.0090                 3.5867
 Frc consts  --      0.6332                 0.9235                 0.7212
 IR Inten    --      3.1672                 9.5224                 1.2786

                     10                     11                     12
                      A                      A                      A
 Frequencies --    650.6402               765.4368               797.0167
 Red. masses --      4.5440                 8.2153                 2.9474
 Frc consts  --      1.1334                 2.8359                 1.1031
 IR Inten    --      2.6185                 0.9111                 4.3972

                     13                     14                     15
                      A                      A                      A
 Frequencies --    816.4805               835.7960               896.2600
 Red. masses --      1.7180                 2.2699                 2.3446
 Frc consts  --      0.6748                 0.9342                 1.1096
 IR Inten    --      2.0002                 1.6252                10.8367

                     16                     17                     18
                      A                      A                      A
 Frequencies --    921.9643               942.4034               962.4342
 Red. masses --      2.8558                 2.5225                 2.2865
 Frc consts  --      1.4302                 1.3200                 1.2479
 IR Inten    --     79.4942                21.1946                42.5157

                     19                     20                     21
                      A                      A                      A
 Frequencies --   1006.5602              1014.0881              1053.0970
 Red. masses --      1.9725                 4.8687                 3.3112
 Frc consts  --      1.1775                 2.9499                 2.1636
 IR Inten    --      3.9084                51.2423                36.4266

                     22                     23                     24
                      A                      A                      A
 Frequencies --   1062.1358              1070.7755              1087.9825
 Red. masses --      1.9296                 1.6583                 1.7222
 Frc consts  --      1.2825                 1.1202                 1.2011
 IR Inten    --      0.8197                 6.9664                 6.7118

                     25                     26                     27
                      A                      A                      A
 Frequencies --   1118.8851              1186.4660              1199.9961
 Red. masses --      3.8291                 2.2077                 1.1365
 Frc consts  --      2.8243                 1.8310                 0.9643
 IR Inten    --     59.2287                 0.6772                10.5118

                     28                     29                     30
                      A                      A                      A
 Frequencies --   1216.8465              1292.3906              1304.6051
 Red. masses --      1.2050                 1.2217                 1.5510
 Frc consts  --      1.0513                 1.2022                 1.5553
 IR Inten    --      2.4881                 1.0264                 1.9653

                     31                     32                     33
                      A                      A                      A
 Frequencies --   1330.5012              1355.9336              1362.3163
 Red. masses --      1.4138                 1.5274                 1.3249
 Frc consts  --      1.4746                 1.6546                 1.4487
 IR Inten    --      5.3757                 3.1986                 2.6970

                     34                     35                     36
                      A                      A                      A
 Frequencies --   1379.8221              1393.3355              1411.2638
 Red. masses --      1.6806                 1.5115                 1.2706
 Frc consts  --      1.8853                 1.7289                 1.4910
 IR Inten    --      9.5667                10.2028                 1.1873

                     37                     38                     39
                      A                      A                      A
 Frequencies --   1472.1272              1478.0573              1490.9033
 Red. masses --      1.0945                 1.0453                 1.0580
 Frc consts  --      1.3975                 1.3455                 1.3855
 IR Inten    --      2.6968                 6.5124                 8.2308

                     40                     41                     42
                      A                      A                      A
 Frequencies --   1518.9924              1736.0867              3010.8221
 Red. masses --      1.0904                 7.0083                 1.0610
 Frc consts  --      1.4823                12.4453                 5.6667
 IR Inten    --      1.0112                 0.8531                33.5296

                     43                     44                     45
                      A                      A                      A
 Frequencies --   3015.9788              3030.5154              3042.7469
 Red. masses --      1.0379                 1.0626                 1.0961
 Frc consts  --      5.5626                 5.7496                 5.9789
 IR Inten    --     25.0550                29.1651                39.5938

                     46                     47                     48
                      A                      A                      A
 Frequencies --   3064.3597              3078.2131              3088.3379
 Red. masses --      1.0984                 1.1056                 1.0883
 Frc consts  --      6.0772                 6.1722                 6.1157
 IR Inten    --     15.8122                20.7791                46.1858

                     49                     50                     51
                      A                      A                      A
 Frequencies --   3100.2361              3111.7833              3150.1278
 Red. masses --      1.0912                 1.0993                 1.0902
 Frc consts  --      6.1795                 6.2718                 6.3743
 IR Inten    --     43.5424                19.0751                22.4965

 - Thermochemistry -
 -------------------
 Temperature   298.150 Kelvin.  Pressure   1.00000 Atm.
 Atom     1 has atomic number  6 and mass  12.00000

 Molecular mass:   126.06808 amu.
 Principal axes and moments of inertia in atomic units:
                           1         2         3
     Eigenvalues --   681.435531013.094731293.67994
           X            0.99916  -0.03847   0.01396
           Y            0.03880   0.99896  -0.02399
           Z           -0.01302   0.02451   0.99961
 This molecule is an asymmetric top.
 Rotational symmetry number  1.
 Warning -- assumption of classical behavior for rotation
           may cause significant error
 Rotational temperatures (Kelvin)      0.12710     0.08549     0.06695
 Rotational constants (GHZ):           2.64844     1.78141     1.39504
 Zero-point vibrational energy     423837.6 (Joules/Mol)
                                  101.29962 (Kcal/Mol)
 Warning -- explicit consideration of   9 degrees of freedom as
           vibrations may cause significant error
 Vibrational temperatures:    165.74   263.81   317.53   403.36   470.23
          (Kelvin)            511.53   659.71   734.83   840.50   936.13
                             1101.29  1146.73  1174.73  1202.52  1289.52
                             1326.50  1355.91  1384.73  1448.21  1459.04
                             1515.17  1528.17  1540.61  1565.36  1609.82
                             1707.06  1726.52  1750.77  1859.46  1877.03
                             1914.29  1950.88  1960.07  1985.25  2004.70
                             2030.49  2118.06  2126.59  2145.07  2185.49
                             2497.84  4331.90  4339.32  4360.23  4377.83
                             4408.92  4428.86  4443.42  4460.54  4477.16
                             4532.33

 Zero-point correction=                           0.161431 (Hartree/Particle)
 Thermal correction to Energy=                    0.168906
 Thermal correction to Enthalpy=                  0.169850
 Thermal correction to Gibbs Free Energy=         0.129698
 Sum of electronic and zero-point Energies=           -423.044473
 Sum of electronic and thermal Energies=              -423.036998
 Sum of electronic and thermal Enthalpies=            -423.036054
 Sum of electronic and thermal Free Energies=         -423.076207

                     E (Thermal)             CV                S
                      KCal/Mol        Cal/Mol-Kelvin    Cal/Mol-Kelvin
 Total                  105.990             29.635             84.509
 Electronic               0.000              0.000              0.000
 Translational            0.889              2.981             40.409
 Rotational               0.889              2.981             28.281
 Vibrational            104.213             23.673             15.819
 Vibration     1          0.608              1.937              3.179
 Vibration     2          0.631              1.862              2.294
 Vibration     3          0.647              1.810              1.953
 Vibration     4          0.680              1.710              1.532
 Vibration     5          0.710              1.622              1.276
 Vibration     6          0.731              1.564              1.142
 Vibration     7          0.817              1.342              0.770
 Vibration     8          0.866              1.226              0.632
 Vibration     9          0.941              1.066              0.478

 Optimization completed.
    -- Stationary point found.
 Normal termination of Gaussian 09 at Mon Jan 27 22:49:53 2020.
