 Gaussian 09, Revision D.01,
 Gaussian 09:  ES64L-G09RevD.01 24-Apr-2013

 -----------------------------
 # b3lyp 6-31G(2df,p) opt Freq
 -----------------------------

 -----
 titel
 -----
 Symbolic Z-matrix:
 Charge =  0 Multiplicity = 1

 SCF Done:  E(RB3LYP) =  -423.195362176     A.U. after   14 cycles
 Optimization completed.
    -- Stationary point found.
 Normal termination of Gaussian 09 at Tue Jan 28 09:49:51 2020.

 ----------------------------------------------------------------------
 #N Geom=AllCheck Guess=TCheck SCRF=Check GenChk RB3LYP/6-31G(2df,p) Fr
 eq
 ----------------------------------------------------------------------

 Structure from the checkpoint file:  "/scratch/puck/g09_85262a14-40e2-419f-a1c2-b84369639e5a/Gau-96484.chk"
 -----
 titel
 -----
 Charge =  0 Multiplicity = 1

                         Standard orientation:
 ---------------------------------------------------------------------
 Center     Atomic      Atomic             Coordinates (Angstroms)
 Number     Number       Type             X           Y           Z
 ---------------------------------------------------------------------
      1          6           0       -2.461856    0.090186    0.891722
      2          6           0       -1.795041   -0.453901   -0.377644
      3          6           0       -0.286460   -0.350138   -0.359433
      4          6           0        0.597184   -1.378972   -1.090926
      5          6           0        0.683338   -1.235769    0.390044
      6          8           0        1.767149   -0.494904    0.903326
      7          6           0        1.718249    0.826211    0.385640
      8          6           0        0.350168    1.002113   -0.291193
      9          8           0       -0.129736    2.052375   -0.638990
     10          1           0       -3.549309   -0.013255    0.831975
     11          1           0       -2.121044   -0.449282    1.781809
     12          1           0       -2.233218    1.150743    1.028069
     13          1           0       -2.078345   -1.502094   -0.528377
     14          1           0       -2.163355    0.097901   -1.250733
     15          1           0        0.061332   -2.233102   -1.491352
     16          1           0        1.426101   -1.035980   -1.701033
     17          1           0        0.369402   -2.027950    1.059770
     18          1           0        1.828960    1.546789    1.202741
     19          1           0        2.526676    1.008089   -0.336817
 ---------------------------------------------------------------------

 SCF Done:  E(RB3LYP) =  -423.195362176     A.U. after    1 cycles

 The electronic state is 1-A.
 Alpha  occ. eigenvalues --  -19.15626 -19.13462 -10.27312 -10.25186 -10.24045
 Alpha  occ. eigenvalues --  -10.20873 -10.20452 -10.19415 -10.17693  -1.06309
 Alpha  occ. eigenvalues --   -1.04043  -0.87217  -0.76683  -0.73951  -0.65240
 Alpha  occ. eigenvalues --   -0.63422  -0.59271  -0.54674  -0.50834  -0.48192
 Alpha  occ. eigenvalues --   -0.45732  -0.44746  -0.43839  -0.42614  -0.42326
 Alpha  occ. eigenvalues --   -0.39212  -0.37439  -0.37149  -0.36808  -0.35166
 Alpha  occ. eigenvalues --   -0.33683  -0.28856  -0.26254  -0.23643
 Alpha virt. eigenvalues --   -0.02150   0.08498   0.09252   0.10434   0.11794
 Alpha virt. eigenvalues --    0.12345   0.14988   0.15347   0.15560   0.16709
 Alpha virt. eigenvalues --    0.17552   0.18099   0.20339   0.21210   0.22126

 Mulliken charges:
               1
     1  C   -0.388658
     2  C   -0.277491
     3  C    0.189789
     4  C   -0.374227
     5  C    0.074477
     6  O   -0.262423
     7  C   -0.194519
     8  C    0.332111
     9  O   -0.327600
    10  H    0.115990
    11  H    0.114281
    12  H    0.139841
    13  H    0.096072
    14  H    0.120421
    15  H    0.127586
    16  H    0.128194
    17  H    0.114957
    18  H    0.141780
    19  H    0.129419
 Sum of Mulliken charges =   0.00000

 Dipole moment (field-independent basis, Debye):
    X=             -0.1772    Y=             -2.0436    Z=             -0.0945  Tot=              2.0534
 Quadrupole moment (field-independent basis, Debye-Ang):
   XX=            -52.7906   YY=            -56.4316   ZZ=            -53.4785
   XY=              4.1387   XZ=             -2.3766   YZ=              3.2689

  Exact polarizability:  80.585   1.027  79.311   0.407   2.487  65.447
 Approx polarizability: 108.323  -4.665 124.970   4.620  -1.435  99.894

                      1                      2                      3
                      A                      A                      A
 Frequencies --     74.2806               114.3973               165.8114
 Red. masses --      2.4529                 2.7341                 3.8479
 Frc consts  --      0.0080                 0.0211                 0.0623
 IR Inten    --      0.3608                 5.3323                 4.2157

                      4                      5                      6
                      A                      A                      A
 Frequencies --    178.0997               217.3004               286.5348
 Red. masses --      2.2187                 1.7806                 1.6656
 Frc consts  --      0.0415                 0.0495                 0.0806
 IR Inten    --      1.0457                 0.9419                 1.1803

                      7                      8                      9
                      A                      A                      A
 Frequencies --    401.6983               449.5662               453.8422
 Red. masses --      3.4696                 2.3924                 3.7172
 Frc consts  --      0.3299                 0.2849                 0.4511
 IR Inten    --      1.8850                 1.1060                10.4125

                     10                     11                     12
                      A                      A                      A
 Frequencies --    546.0123               611.2439               638.4209
 Red. masses --      3.5128                 3.3283                 5.6198
 Frc consts  --      0.6170                 0.7327                 1.3495
 IR Inten    --      2.2055                 0.6943                 7.5469

                     13                     14                     15
                      A                      A                      A
 Frequencies --    707.4198               767.5330               828.9688
 Red. masses --      3.4089                 1.3773                 2.2002
 Frc consts  --      1.0051                 0.4781                 0.8908
 IR Inten    --      8.5845                15.8515                18.5204

                     16                     17                     18
                      A                      A                      A
 Frequencies --    860.6114               893.1669               963.6963
 Red. masses --      1.6440                 3.0886                 2.0906
 Frc consts  --      0.7174                 1.4517                 1.1439
 IR Inten    --      7.3604                12.1287                13.3827

                     19                     20                     21
                      A                      A                      A
 Frequencies --    986.7018              1007.1541              1021.1128
 Red. masses --      2.0069                 1.8035                 2.0260
 Frc consts  --      1.1512                 1.0778                 1.2446
 IR Inten    --      5.3725                 9.3634                 4.4734

                     22                     23                     24
                      A                      A                      A
 Frequencies --   1042.4582              1056.0050              1074.4972
 Red. masses --      1.7125                 1.8419                 2.6037
 Frc consts  --      1.0965                 1.2102                 1.7711
 IR Inten    --     17.2252                 1.6524                28.1738

                     25                     26                     27
                      A                      A                      A
 Frequencies --   1107.6156              1130.5538              1157.9027
 Red. masses --      2.0563                 1.9626                 3.2794
 Frc consts  --      1.4864                 1.4780                 2.5906
 IR Inten    --      0.8482                 4.4069                95.1766

                     28                     29                     30
                      A                      A                      A
 Frequencies --   1205.0092              1254.4246              1293.3378
 Red. masses --      1.1500                 1.7691                 1.4735
 Frc consts  --      0.9839                 1.6402                 1.4522
 IR Inten    --      8.9309                 3.5640                 6.8830

                     31                     32                     33
                      A                      A                      A
 Frequencies --   1330.7352              1340.7293              1363.0502
 Red. masses --      1.5676                 1.8091                 1.4100
 Frc consts  --      1.6356                 1.9160                 1.5435
 IR Inten    --      4.8810                22.3863                 4.3813

                     34                     35                     36
                      A                      A                      A
 Frequencies --   1401.9754              1410.3733              1474.1091
 Red. masses --      2.0227                 1.2442                 1.1806
 Frc consts  --      2.3424                 1.4581                 1.5115
 IR Inten    --     21.4006                 3.9599                 3.1502

                     37                     38                     39
                      A                      A                      A
 Frequencies --   1482.1990              1487.4452              1498.8454
 Red. masses --      1.1751                 1.1028                 1.0443
 Frc consts  --      1.5210                 1.4376                 1.3822
 IR Inten    --     17.7674                 3.4719                 6.5950

                     40                     41                     42
                      A                      A                      A
 Frequencies --   1510.0865              1833.3181              3009.8234
 Red. masses --      1.0567                12.5971                 1.0660
 Frc consts  --      1.4197                24.9457                 5.6900
 IR Inten    --      2.7136               216.0642                26.9391

                     43                     44                     45
                      A                      A                      A
 Frequencies --   3031.3732              3039.1953              3066.5519
 Red. masses --      1.0593                 1.0365                 1.1016
 Frc consts  --      5.7354                 5.6409                 6.1036
 IR Inten    --     22.6709                23.1325                 9.1059

                     46                     47                     48
                      A                      A                      A
 Frequencies --   3074.0307              3106.5966              3121.1897
 Red. masses --      1.0961                 1.1012                 1.1016
 Frc consts  --      6.1024                 6.2618                 6.3230
 IR Inten    --     12.7974                32.9414                21.2173

                     49                     50                     51
                      A                      A                      A
 Frequencies --   3129.8456              3183.0121              3219.8996
 Red. masses --      1.0537                 1.0932                 1.1170
 Frc consts  --      6.0815                 6.5255                 6.8232
 IR Inten    --      7.7372                11.1523                 4.5937

 - Thermochemistry -
 -------------------
 Temperature   298.150 Kelvin.  Pressure   1.00000 Atm.
 Atom     1 has atomic number  6 and mass  12.00000

 Molecular mass:   126.06808 amu.
 Principal axes and moments of inertia in atomic units:
                           1         2         3
     Eigenvalues --   784.567291136.695721453.68573
           X            0.99834   0.04895  -0.03045
           Y           -0.04707   0.99711   0.05967
           Z            0.03328  -0.05813   0.99775
 This molecule is an asymmetric top.
 Rotational symmetry number  1.
 Warning -- assumption of classical behavior for rotation
           may cause significant error
 Rotational temperatures (Kelvin)      0.11040     0.07620     0.05958
 Rotational constants (GHZ):           2.30030     1.58771     1.24149
 Zero-point vibrational energy     416358.8 (Joules/Mol)
                                   99.51215 (Kcal/Mol)
 Warning -- explicit consideration of  11 degrees of freedom as
           vibrations may cause significant error
 Vibrational temperatures:    106.87   164.59   238.57   256.25   312.65
          (Kelvin)            412.26   577.95   646.82   652.98   785.59
                              879.44   918.54  1017.82  1104.31  1192.70
                             1238.23  1285.07  1386.54  1419.64  1449.07
                             1469.15  1499.86  1519.35  1545.96  1593.61
                             1626.61  1665.96  1733.74  1804.83  1860.82
                             1914.63  1929.01  1961.12  2017.13  2029.21
                             2120.91  2132.55  2140.10  2156.50  2172.67
                             2637.73  4330.46  4361.46  4372.72  4412.08
                             4422.84  4469.69  4490.69  4503.14  4579.64
                             4632.71

 Zero-point correction=                           0.158583 (Hartree/Particle)
 Thermal correction to Energy=                    0.167213
 Thermal correction to Enthalpy=                  0.168157
 Thermal correction to Gibbs Free Energy=         0.125124
 Sum of electronic and zero-point Energies=           -423.036779
 Sum of electronic and thermal Energies=              -423.028150
 Sum of electronic and thermal Enthalpies=            -423.027205
 Sum of electronic and thermal Free Energies=         -423.070238

                     E (Thermal)             CV                S
                      KCal/Mol        Cal/Mol-Kelvin    Cal/Mol-Kelvin
 Total                  104.927             32.390             90.570
 Electronic               0.000              0.000              0.000
 Translational            0.889              2.981             40.409
 Rotational               0.889              2.981             28.652
 Vibrational            103.150             26.429             21.509
 Vibration     1          0.599              1.966              4.037
 Vibration     2          0.607              1.937              3.193
 Vibration     3          0.624              1.884              2.482
 Vibration     4          0.629              1.869              2.348
 Vibration     5          0.646              1.815              1.981
 Vibration     6          0.684              1.699              1.494
 Vibration     7          0.767              1.466              0.956
 Vibration     8          0.808              1.362              0.797
 Vibration     9          0.812              1.352              0.784
 Vibration    10          0.901              1.148              0.552
 Vibration    11          0.970              1.008              0.431

 Optimization completed.
    -- Stationary point found.
 Normal termination of Gaussian 09 at Tue Jan 28 10:33:39 2020.
