 Gaussian 09, Revision D.01,
 Gaussian 09:  ES64L-G09RevD.01 24-Apr-2013

 -----------------------------
 # b3lyp 6-31G(2df,p) opt Freq
 -----------------------------

 -----
 titel
 -----
 Symbolic Z-matrix:
 Charge =  0 Multiplicity = 1

 SCF Done:  E(RB3LYP) =  -423.173376210     A.U. after   14 cycles
 Optimization completed.
    -- Stationary point found.
 Normal termination of Gaussian 09 at Mon Jan 27 15:35:04 2020.

 ----------------------------------------------------------------------
 #N Geom=AllCheck Guess=TCheck SCRF=Check GenChk RB3LYP/6-31G(2df,p) Fr
 eq
 ----------------------------------------------------------------------

 Structure from the checkpoint file:  "/scratch/puck/g09_b7681dad-b6fe-4abf-9d00-13b99f2c91fb/Gau-175588.chk"
 -----
 titel
 -----
 Charge =  0 Multiplicity = 1

                         Standard orientation:
 ---------------------------------------------------------------------
 Center     Atomic      Atomic             Coordinates (Angstroms)
 Number     Number       Type             X           Y           Z
 ---------------------------------------------------------------------
      1          6           0        2.449465    0.496490    0.991219
      2          6           0        1.652861    0.323548   -0.301804
      3          8           0        2.037134   -0.941941   -0.842644
      4          6           0        0.167480    0.372276   -0.090189
      5          6           0       -0.697487    1.287387   -0.544017
      6          6           0       -2.129450    0.990215   -0.147948
      7          6           0       -2.011637   -0.355711    0.558741
      8          8           0       -1.507681   -1.408747   -0.266222
      9          6           0       -0.585976   -0.719701    0.611903
     10          1           0        2.263564    1.481014    1.428662
     11          1           0        2.176503   -0.270948    1.721557
     12          1           0        3.517808    0.397937    0.779804
     13          1           0        1.932140    1.135267   -0.992979
     14          1           0        1.442863   -1.140047   -1.574423
     15          1           0       -0.429581    2.137973   -1.162364
     16          1           0       -2.536868    1.755810    0.525230
     17          1           0       -2.800268    0.938388   -1.014108
     18          1           0       -2.735771   -0.658137    1.310240
     19          1           0       -0.137551   -1.338780    1.381884
 ---------------------------------------------------------------------

 SCF Done:  E(RB3LYP) =  -423.173376210     A.U. after    1 cycles

 The electronic state is 1-A.
 Alpha  occ. eigenvalues --  -19.14582 -19.13341 -10.23743 -10.23545 -10.23403
 Alpha  occ. eigenvalues --  -10.19482 -10.19010 -10.18729 -10.17600  -1.06659
 Alpha  occ. eigenvalues --   -1.01523  -0.82648  -0.76113  -0.71000  -0.66259
 Alpha  occ. eigenvalues --   -0.61604  -0.58166  -0.54376  -0.52962  -0.49615
 Alpha  occ. eigenvalues --   -0.45674  -0.43383  -0.41967  -0.40743  -0.39545
 Alpha  occ. eigenvalues --   -0.38531  -0.38350  -0.37573  -0.35987  -0.32398
 Alpha  occ. eigenvalues --   -0.30584  -0.27646  -0.25802  -0.24295
 Alpha virt. eigenvalues --   -0.00201   0.09009   0.10400   0.11073   0.12038
 Alpha virt. eigenvalues --    0.12968   0.14276   0.14889   0.15580   0.17007
 Alpha virt. eigenvalues --    0.17546   0.18495   0.19126   0.20077   0.22552

 Mulliken charges:
               1
     1  C   -0.385909
     2  C    0.020027
     3  O   -0.431841
     4  C    0.324055
     5  C   -0.213703
     6  C   -0.287705
     7  C    0.041166
     8  O   -0.262994
     9  C   -0.060421
    10  H    0.117524
    11  H    0.123321
    12  H    0.126930
    13  H    0.066069
    14  H    0.289423
    15  H    0.098003
    16  H    0.113959
    17  H    0.125367
    18  H    0.095765
    19  H    0.100966
 Sum of Mulliken charges =   0.00000

 Dipole moment (field-independent basis, Debye):
    X=             -0.8243    Y=              2.1447    Z=              0.5590  Tot=              2.3647
 Quadrupole moment (field-independent basis, Debye-Ang):
   XX=            -54.1671   YY=            -54.9980   ZZ=            -50.0337
   XY=             -0.5679   XZ=             -1.0745   YZ=             -1.8970

  Exact polarizability:  93.845  -5.926  73.656   2.070  -5.424  63.690
 Approx polarizability: 127.182 -14.896 119.008   5.550  -6.725  97.090

                      1                      2                      3
                      A                      A                      A
 Frequencies --     60.5697               107.9397               183.1560
 Red. masses --      3.5350                 4.0392                 2.8077
 Frc consts  --      0.0076                 0.0277                 0.0555
 IR Inten    --      0.9914                 1.4159                 0.6379

                      4                      5                      6
                      A                      A                      A
 Frequencies --    233.5826               308.7916               310.7455
 Red. masses --      1.1634                 2.9323                 2.1423
 Frc consts  --      0.0374                 0.1647                 0.1219
 IR Inten    --      1.4350                 1.1846                27.0299

                      7                      8                      9
                      A                      A                      A
 Frequencies --    342.0070               366.0060               411.5143
 Red. masses --      1.5328                 2.0639                 3.4952
 Frc consts  --      0.1056                 0.1629                 0.3487
 IR Inten    --     51.1159                47.4659                13.3604

                     10                     11                     12
                      A                      A                      A
 Frequencies --    501.7879               616.8180               703.0399
 Red. masses --      3.3468                 3.2880                 4.9305
 Frc consts  --      0.4965                 0.7371                 1.4358
 IR Inten    --      8.6088                 5.6244                 1.7790

                     13                     14                     15
                      A                      A                      A
 Frequencies --    744.4327               822.4734               827.5102
 Red. masses --      4.8247                 3.3335                 1.5120
 Frc consts  --      1.5753                 1.3286                 0.6100
 IR Inten    --      1.4555                 8.1956                 1.7804

                     16                     17                     18
                      A                      A                      A
 Frequencies --    864.4148               870.2240               916.1721
 Red. masses --      2.5280                 2.7207                 2.3241
 Frc consts  --      1.1129                 1.2139                 1.1494
 IR Inten    --     19.8953                28.6405                 7.7205

                     19                     20                     21
                      A                      A                      A
 Frequencies --    925.9689               954.5964               994.8349
 Red. masses --      2.3461                 2.1191                 1.9499
 Frc consts  --      1.1852                 1.1377                 1.1370
 IR Inten    --      7.2004                16.4240                27.5484

                     22                     23                     24
                      A                      A                      A
 Frequencies --   1013.5853              1038.7114              1069.1763
 Red. masses --      1.9132                 1.7302                 1.9469
 Frc consts  --      1.1581                 1.0999                 1.3113
 IR Inten    --      2.1535                 9.1013                37.8392

                     25                     26                     27
                      A                      A                      A
 Frequencies --   1104.6022              1121.4854              1183.6249
 Red. masses --      1.2844                 2.2850                 1.2076
 Frc consts  --      0.9233                 1.6932                 0.9968
 IR Inten    --      1.4456                23.8421                 4.4733

                     28                     29                     30
                      A                      A                      A
 Frequencies --   1198.1317              1255.7544              1266.4199
 Red. masses --      1.8666                 1.4525                 1.4799
 Frc consts  --      1.5787                 1.3495                 1.3984
 IR Inten    --      1.7833                 4.2260                 5.0428

                     31                     32                     33
                      A                      A                      A
 Frequencies --   1288.9497              1309.5836              1342.3027
 Red. masses --      1.1912                 1.6914                 1.6648
 Frc consts  --      1.1660                 1.7091                 1.7673
 IR Inten    --     57.9354                 5.5578                10.4563

                     34                     35                     36
                      A                      A                      A
 Frequencies --   1383.7328              1394.9269              1409.6767
 Red. masses --      1.4887                 1.2848                 3.0902
 Frc consts  --      1.6794                 1.4730                 3.6180
 IR Inten    --      1.0121                18.0069                14.4864

                     37                     38                     39
                      A                      A                      A
 Frequencies --   1415.2618              1459.9067              1483.8673
 Red. masses --      1.5207                 1.0998                 1.0598
 Frc consts  --      1.7946                 1.3811                 1.3749
 IR Inten    --     35.1751                 3.2837                 3.7251

                     40                     41                     42
                      A                      A                      A
 Frequencies --   1497.6945              1695.1285              2966.7605
 Red. masses --      1.0498                 7.3516                 1.0831
 Frc consts  --      1.3875                12.4461                 5.6167
 IR Inten    --      1.4321                 2.3645                49.0935

                     43                     44                     45
                      A                      A                      A
 Frequencies --   3025.5139              3044.4819              3061.6732
 Red. masses --      1.0616                 1.0341                 1.0995
 Frc consts  --      5.7255                 5.6473                 6.0725
 IR Inten    --     29.3166                14.2012                13.1233

                     46                     47                     48
                      A                      A                      A
 Frequencies --   3118.8891              3126.1030              3150.5640
 Red. masses --      1.1019                 1.1024                 1.0895
 Frc consts  --      6.3152                 6.3476                 6.3715
 IR Inten    --     24.8969                18.4647                24.0143

                     49                     50                     51
                      A                      A                      A
 Frequencies --   3173.9732              3184.8097              3810.5528
 Red. masses --      1.0934                 1.0935                 1.0663
 Frc consts  --      6.4901                 6.5347                 9.1224
 IR Inten    --     23.5677                10.7701                17.9564

 - Thermochemistry -
 -------------------
 Temperature   298.150 Kelvin.  Pressure   1.00000 Atm.
 Atom     1 has atomic number  6 and mass  12.00000

 Molecular mass:   126.06808 amu.
 Principal axes and moments of inertia in atomic units:
                           1         2         3
     Eigenvalues --   570.849991514.085491707.83739
           X            0.99992  -0.00388   0.01204
           Y            0.00443   0.99892  -0.04621
           Z           -0.01184   0.04626   0.99886
 This molecule is an asymmetric top.
 Rotational symmetry number  1.
 Warning -- assumption of classical behavior for rotation
           may cause significant error
 Rotational temperatures (Kelvin)      0.15173     0.05721     0.05072
 Rotational constants (GHZ):           3.16150     1.19197     1.05674
 Zero-point vibrational energy     416673.9 (Joules/Mol)
                                   99.58744 (Kcal/Mol)
 Warning -- explicit consideration of  11 degrees of freedom as
           vibrations may cause significant error
 Vibrational temperatures:     87.15   155.30   263.52   336.07   444.28
          (Kelvin)            447.09   492.07   526.60   592.08   721.96
                              887.46  1011.52  1071.07  1183.35  1190.60
                             1243.70  1252.06  1318.17  1332.26  1373.45
                             1431.34  1458.32  1494.47  1538.30  1589.27
                             1613.57  1702.97  1723.84  1806.75  1822.09
                             1854.51  1884.20  1931.27  1990.88  2006.99
                             2028.21  2036.24  2100.48  2134.95  2154.85
                             2438.91  4268.50  4353.03  4380.32  4405.06
                             4487.38  4497.76  4532.95  4566.63  4582.23
                             5482.53

 Zero-point correction=                           0.158703 (Hartree/Particle)
 Thermal correction to Energy=                    0.167304
 Thermal correction to Enthalpy=                  0.168249
 Thermal correction to Gibbs Free Energy=         0.125238
 Sum of electronic and zero-point Energies=           -423.014674
 Sum of electronic and thermal Energies=              -423.006072
 Sum of electronic and thermal Enthalpies=            -423.005128
 Sum of electronic and thermal Free Energies=         -423.048138

                     E (Thermal)             CV                S
                      KCal/Mol        Cal/Mol-Kelvin    Cal/Mol-Kelvin
 Total                  104.985             32.732             90.523
 Electronic               0.000              0.000              0.000
 Translational            0.889              2.981             40.409
 Rotational               0.889              2.981             28.781
 Vibrational            103.208             26.770             21.334
 Vibration     1          0.597              1.973              4.439
 Vibration     2          0.606              1.943              3.306
 Vibration     3          0.631              1.863              2.296
 Vibration     4          0.654              1.790              1.851
 Vibration     5          0.698              1.657              1.369
 Vibration     6          0.700              1.653              1.358
 Vibration     7          0.721              1.592              1.203
 Vibration     8          0.739              1.542              1.096
 Vibration     9          0.775              1.445              0.921
 Vibration    10          0.857              1.246              0.654
 Vibration    11          0.976              0.996              0.422

 Optimization completed.
    -- Stationary point found.
 Normal termination of Gaussian 09 at Mon Jan 27 16:17:23 2020.
