 Gaussian 09, Revision D.01,
 Gaussian 09:  ES64L-G09RevD.01 24-Apr-2013

 -----------------------------
 # b3lyp 6-31G(2df,p) opt Freq
 -----------------------------

 -----
 titel
 -----
 Symbolic Z-matrix:
 Charge =  0 Multiplicity = 1

 SCF Done:  E(RB3LYP) =  -423.097767711     A.U. after   12 cycles
 Optimization completed.
    -- Stationary point found.
 Normal termination of Gaussian 09 at Tue Jan 28 14:13:16 2020.

 ----------------------------------------------------------------------
 #N Geom=AllCheck Guess=TCheck SCRF=Check GenChk RB3LYP/6-31G(2df,p) Fr
 eq
 ----------------------------------------------------------------------

 Structure from the checkpoint file:  "/scratch/puck/g09_dafd8e1d-eca3-4ae2-8550-559b95148268/Gau-11106.chk"
 -----
 titel
 -----
 Charge =  0 Multiplicity = 1

                         Standard orientation:
 ---------------------------------------------------------------------
 Center     Atomic      Atomic             Coordinates (Angstroms)
 Number     Number       Type             X           Y           Z
 ---------------------------------------------------------------------
      1          6           0       -3.381742   -0.181752   -0.004552
      2          8           0       -1.994965   -0.397168    0.102559
      3          6           0       -1.231574    0.751000   -0.210807
      4          6           0        0.215952    0.409102   -0.058589
      5          6           0        1.427235    1.333519   -0.183274
      6          6           0        2.229615    0.139592    0.397228
      7          8           0        2.172360   -0.858655   -0.659830
      8          6           0        0.789204   -0.995752   -0.333454
      9          6           0        0.898117   -0.413736    1.034908
     10          1           0       -3.673221    0.100904   -1.028450
     11          1           0       -3.879586   -1.117873    0.259130
     12          1           0       -3.725635    0.609678    0.680077
     13          1           0       -1.439894    1.083532   -1.243832
     14          1           0       -1.508062    1.587152    0.456446
     15          1           0        1.731181    1.687539   -1.174111
     16          1           0        1.369539    2.165765    0.524078
     17          1           0        3.213784    0.244250    0.848487
     18          1           0        0.219890   -1.823776   -0.730334
     19          1           0        0.592007   -0.742425    2.017914
 ---------------------------------------------------------------------

 SCF Done:  E(RB3LYP) =  -423.097767711     A.U. after    1 cycles

 The electronic state is 1-A.
 Alpha  occ. eigenvalues --  -19.14580 -19.12976 -10.24115 -10.23437 -10.23168
 Alpha  occ. eigenvalues --  -10.22817 -10.19762 -10.18841 -10.18641  -1.05623
 Alpha  occ. eigenvalues --   -1.03779  -0.85743  -0.73903  -0.72033  -0.66097
 Alpha  occ. eigenvalues --   -0.62708  -0.54687  -0.53745  -0.52205  -0.48785
 Alpha  occ. eigenvalues --   -0.47728  -0.45805  -0.44322  -0.42827  -0.40893
 Alpha  occ. eigenvalues --   -0.39600  -0.38364  -0.35452  -0.33093  -0.32098
 Alpha  occ. eigenvalues --   -0.29006  -0.26632  -0.25200  -0.22472
 Alpha virt. eigenvalues --    0.07798   0.09205   0.09933   0.12081   0.13138
 Alpha virt. eigenvalues --    0.13815   0.14278   0.15768   0.16516   0.16628
 Alpha virt. eigenvalues --    0.17103   0.17318   0.18750   0.18962   0.20655

 Mulliken charges:
               1
     1  C   -0.220122
     2  O   -0.239050
     3  C   -0.205749
     4  C    0.285911
     5  C   -0.302857
     6  C    0.067624
     7  O   -0.299350
     8  C    0.071003
     9  C   -0.181858
    10  H    0.106197
    11  H    0.128882
    12  H    0.105273
    13  H    0.091557
    14  H    0.087637
    15  H    0.099209
    16  H    0.101123
    17  H    0.086352
    18  H    0.117252
    19  H    0.100967
 Sum of Mulliken charges =   0.00000

 Dipole moment (field-independent basis, Debye):
    X=             -1.7816    Y=              1.5200    Z=              0.8782  Tot=              2.5011
 Quadrupole moment (field-independent basis, Debye-Ang):
   XX=            -50.7827   YY=            -52.9184   ZZ=            -52.9905
   XY=              2.4649   XZ=              3.6985   YZ=             -0.4830

  Exact polarizability:  89.969   2.293  71.628   1.815  -0.738  65.624
 Approx polarizability: 112.958  -0.136 108.686   1.159   0.790 103.934

                      1                      2                      3
                      A                      A                      A
 Frequencies --     73.9638                84.2765               125.6311
 Red. masses --      3.0038                 2.2951                 3.9816
 Frc consts  --      0.0097                 0.0096                 0.0370
 IR Inten    --      0.5455                 3.5852                 0.5281

                      4                      5                      6
                      A                      A                      A
 Frequencies --    222.0382               270.4039               341.0059
 Red. masses --      1.3345                 2.1713                 3.2756
 Frc consts  --      0.0388                 0.0935                 0.2244
 IR Inten    --      2.3418                 0.8227                 1.5247

                      7                      8                      9
                      A                      A                      A
 Frequencies --    389.1494               443.5214               539.7378
 Red. masses --      4.4238                 1.8833                 4.1008
 Frc consts  --      0.3947                 0.2183                 0.7039
 IR Inten    --      2.3766                 1.0488                 4.8455

                     10                     11                     12
                      A                      A                      A
 Frequencies --    681.5094               750.3675               773.7566
 Red. masses --      2.7181                 3.5474                 2.9180
 Frc consts  --      0.7438                 1.1768                 1.0293
 IR Inten    --      6.9159                 7.2641                 3.3653

                     13                     14                     15
                      A                      A                      A
 Frequencies --    798.2699               841.2109               900.6272
 Red. masses --      2.5148                 1.6450                 2.2136
 Frc consts  --      0.9442                 0.6859                 1.0579
 IR Inten    --     13.0313                 3.4567                 6.6929

                     16                     17                     18
                      A                      A                      A
 Frequencies --    915.5958               930.8113               969.3741
 Red. masses --      2.0682                 2.4263                 3.1929
 Frc consts  --      1.0216                 1.2385                 1.7677
 IR Inten    --     14.1064                23.7948                29.7714

                     19                     20                     21
                      A                      A                      A
 Frequencies --    985.1895              1017.6917              1040.0956
 Red. masses --      3.1362                 1.5070                 2.1647
 Frc consts  --      1.7935                 0.9196                 1.3797
 IR Inten    --     21.9350                 1.5780                 3.5526

                     22                     23                     24
                      A                      A                      A
 Frequencies --   1041.1872              1090.6197              1127.5160
 Red. masses --      3.0555                 1.9908                 1.6538
 Frc consts  --      1.9516                 1.3952                 1.2387
 IR Inten    --     33.3684                 3.4439                 3.3986

                     25                     26                     27
                      A                      A                      A
 Frequencies --   1154.3375              1158.7201              1161.9481
 Red. masses --      1.6999                 2.9530                 2.1069
 Frc consts  --      1.3345                 2.3360                 1.6759
 IR Inten    --     40.2380                99.8555                18.4792

                     28                     29                     30
                      A                      A                      A
 Frequencies --   1187.9001              1192.3228              1220.0027
 Red. masses --      1.3590                 1.4433                 1.6478
 Frc consts  --      1.1299                 1.2089                 1.4451
 IR Inten    --      6.1107                15.7760                 7.2381

                     31                     32                     33
                      A                      A                      A
 Frequencies --   1235.3073              1260.5522              1287.5480
 Red. masses --      1.8742                 1.1355                 2.0278
 Frc consts  --      1.6850                 1.0631                 1.9806
 IR Inten    --     28.9639                 3.8620                 2.2122

                     34                     35                     36
                      A                      A                      A
 Frequencies --   1302.1440              1404.6108              1433.4306
 Red. masses --      1.7372                 1.9822                 2.0099
 Frc consts  --      1.7355                 2.3041                 2.4332
 IR Inten    --     16.5181                 6.7946                40.6641

                     37                     38                     39
                      A                      A                      A
 Frequencies --   1480.9795              1484.7462              1490.1199
 Red. masses --      1.1668                 1.0518                 1.2253
 Frc consts  --      1.5079                 1.3661                 1.6030
 IR Inten    --      0.7149                 4.7098                 2.8984

                     40                     41                     42
                      A                      A                      A
 Frequencies --   1503.3871              1525.8052              2933.8586
 Red. masses --      1.0673                 1.0848                 1.0531
 Frc consts  --      1.4212                 1.4880                 5.3405
 IR Inten    --      7.5965                 0.9006                46.5499

                     43                     44                     45
                      A                      A                      A
 Frequencies --   2955.7937              2971.9633              3015.6305
 Red. masses --      1.1048                 1.0374                 1.1032
 Frc consts  --      5.6869                 5.3985                 5.9108
 IR Inten    --     59.9371                78.7805                55.2016

                     46                     47                     48
                      A                      A                      A
 Frequencies --   3041.6982              3104.1948              3116.1750
 Red. masses --      1.0569                 1.1074                 1.0960
 Frc consts  --      5.7610                 6.2873                 6.2707
 IR Inten    --     44.9862                24.4152                26.8143

                     49                     50                     51
                      A                      A                      A
 Frequencies --   3146.2879              3212.9870              3233.1152
 Red. masses --      1.0926                 1.0938                 1.0991
 Frc consts  --      6.3727                 6.6530                 6.7692
 IR Inten    --     42.0324                 8.1500                 6.6579

 - Thermochemistry -
 -------------------
 Temperature   298.150 Kelvin.  Pressure   1.00000 Atm.
 Atom     1 has atomic number  6 and mass  12.00000

 Molecular mass:   126.06808 amu.
 Principal axes and moments of inertia in atomic units:
                           1         2         3
     Eigenvalues --   394.106761762.061801909.67391
           X            0.99992   0.00900   0.00850
           Y           -0.00872   0.99943  -0.03259
           Z           -0.00878   0.03251   0.99943
 This molecule is an asymmetric top.
 Rotational symmetry number  1.
 Rotational temperatures (Kelvin)      0.21977     0.04915     0.04536
 Rotational constants (GHZ):           4.57932     1.02422     0.94505
 Zero-point vibrational energy     416115.7 (Joules/Mol)
                                   99.45404 (Kcal/Mol)
 Warning -- explicit consideration of   9 degrees of freedom as
           vibrations may cause significant error
 Vibrational temperatures:    106.42   121.25   180.75   319.46   389.05
          (Kelvin)            490.63   559.90   638.13   776.56   980.54
                             1079.61  1113.26  1148.53  1210.31  1295.80
                             1317.34  1339.23  1394.71  1417.47  1464.23
                             1496.46  1498.03  1569.16  1622.24  1660.83
                             1667.14  1671.78  1709.12  1715.48  1755.31
                             1777.33  1813.65  1852.49  1873.49  2020.92
                             2062.38  2130.80  2136.22  2143.95  2163.04
                             2195.29  4221.16  4252.72  4275.99  4338.81
                             4376.32  4466.24  4483.48  4526.80  4622.77
                             4651.73

 Zero-point correction=                           0.158490 (Hartree/Particle)
 Thermal correction to Energy=                    0.166728
 Thermal correction to Enthalpy=                  0.167672
 Thermal correction to Gibbs Free Energy=         0.125050
 Sum of electronic and zero-point Energies=           -422.939278
 Sum of electronic and thermal Energies=              -422.931040
 Sum of electronic and thermal Enthalpies=            -422.930096
 Sum of electronic and thermal Free Energies=         -422.972718

                     E (Thermal)             CV                S
                      KCal/Mol        Cal/Mol-Kelvin    Cal/Mol-Kelvin
 Total                  104.623             30.874             89.706
 Electronic               0.000              0.000              0.000
 Translational            0.889              2.981             40.409
 Rotational               0.889              2.981             28.674
 Vibrational            102.846             24.913             20.623
 Vibration     1          0.599              1.966              4.045
 Vibration     2          0.601              1.960              3.789
 Vibration     3          0.611              1.927              3.012
 Vibration     4          0.648              1.808              1.942
 Vibration     5          0.674              1.728              1.594
 Vibration     6          0.721              1.594              1.207
 Vibration     7          0.757              1.493              1.003
 Vibration     8          0.803              1.375              0.816
 Vibration     9          0.895              1.162              0.566

 Optimization completed.
    -- Stationary point found.
 Normal termination of Gaussian 09 at Tue Jan 28 14:57:32 2020.
