 Gaussian 09, Revision D.01,
 Gaussian 09:  ES64L-G09RevD.01 24-Apr-2013

 -----------------------------
 # b3lyp 6-31G(2df,p) opt Freq
 -----------------------------

 -----
 titel
 -----
 Symbolic Z-matrix:
 Charge =  0 Multiplicity = 1

 SCF Done:  E(RB3LYP) =  -423.132944079     A.U. after   14 cycles
 Optimization completed.
    -- Stationary point found.
 Normal termination of Gaussian 09 at Mon Jan 27 22:03:21 2020.

 ----------------------------------------------------------------------
 #N Geom=AllCheck Guess=TCheck SCRF=Check GenChk RB3LYP/6-31G(2df,p) Fr
 eq
 ----------------------------------------------------------------------

 Structure from the checkpoint file:  "/scratch/puck/g09_9ed770d5-635e-4433-91a0-9bba1aa0f27c/Gau-76293.chk"
 -----
 titel
 -----
 Charge =  0 Multiplicity = 1

                         Standard orientation:
 ---------------------------------------------------------------------
 Center     Atomic      Atomic             Coordinates (Angstroms)
 Number     Number       Type             X           Y           Z
 ---------------------------------------------------------------------
      1          6           0       -1.741080   -1.302098   -1.022534
      2          6           0       -0.572678   -0.346616   -0.958424
      3          6           0       -0.518146    0.786202    0.045366
      4          6           0       -0.004614    2.144153   -0.356793
      5          8           0       -1.529839    0.875385    1.002069
      6          6           0        0.428684   -0.405363    0.209248
      7          8           0        0.078695   -1.193113    1.325453
      8          6           0        1.837569   -0.305763   -0.047398
      9          6           0        3.017574   -0.239688   -0.275293
     10          1           0       -1.428864   -2.300255   -1.349978
     11          1           0       -2.238650   -1.393199   -0.055547
     12          1           0       -2.484201   -0.938160   -1.739159
     13          1           0       -0.100386   -0.133359   -1.913683
     14          1           0        0.804194    2.060809   -1.085732
     15          1           0       -0.816360    2.730457   -0.799398
     16          1           0        0.368162    2.683660    0.518967
     17          1           0       -1.393799    0.144077    1.620533
     18          1           0        0.155053   -2.122908    1.084654
     19          1           0        4.060152   -0.174257   -0.465865
 ---------------------------------------------------------------------

 SCF Done:  E(RB3LYP) =  -423.132944079     A.U. after    1 cycles

 The electronic state is 1-A.
 Alpha  occ. eigenvalues --  -19.16766 -19.13610 -10.26011 -10.24499 -10.19435
 Alpha  occ. eigenvalues --  -10.18508 -10.18356 -10.17822 -10.17439  -1.05853
 Alpha  occ. eigenvalues --   -1.01814  -0.85269  -0.75323  -0.73235  -0.69923
 Alpha  occ. eigenvalues --   -0.62111  -0.57619  -0.55648  -0.51329  -0.50630
 Alpha  occ. eigenvalues --   -0.47649  -0.43831  -0.41524  -0.39862  -0.39342
 Alpha  occ. eigenvalues --   -0.39078  -0.37848  -0.36384  -0.34753  -0.32270
 Alpha  occ. eigenvalues --   -0.30905  -0.27711  -0.24446  -0.23770
 Alpha virt. eigenvalues --    0.02464   0.04585   0.07296   0.10987   0.12347
 Alpha virt. eigenvalues --    0.12984   0.13399   0.13877   0.15273   0.17475
 Alpha virt. eigenvalues --    0.17974   0.18940   0.19431   0.19838   0.22824

 Mulliken charges:
               1
     1  C   -0.421593
     2  C   -0.137955
     3  C    0.381890
     4  C   -0.444602
     5  O   -0.474580
     6  C    0.048950
     7  O   -0.465453
     8  C    0.326983
     9  C   -0.446094
    10  H    0.112885
    11  H    0.124382
    12  H    0.128970
    13  H    0.095723
    14  H    0.124879
    15  H    0.126516
    16  H    0.127938
    17  H    0.299099
    18  H    0.297475
    19  H    0.194586
 Sum of Mulliken charges =   0.00000

 Dipole moment (field-independent basis, Debye):
    X=              0.6360    Y=             -1.6648    Z=             -1.0920  Tot=              2.0901
 Quadrupole moment (field-independent basis, Debye-Ang):
   XX=            -51.7217   YY=            -49.9094   ZZ=            -53.7126
   XY=              2.5664   XZ=             -0.4428   YZ=             -2.1370

  Exact polarizability:  99.867   1.344  73.341  -1.813  -0.132  64.258
 Approx polarizability: 150.465  -1.110 100.299  -8.619  -0.967  99.023

                      1                      2                      3
                      A                      A                      A
 Frequencies --     99.3495               119.3288               144.2458
 Red. masses --      1.0275                 3.7059                 3.7299
 Frc consts  --      0.0060                 0.0311                 0.0457
 IR Inten    --      1.2981                 0.7565                 0.1096

                      4                      5                      6
                      A                      A                      A
 Frequencies --    191.2455               199.9477               216.4160
 Red. masses --      2.1777                 1.4098                 2.6276
 Frc consts  --      0.0469                 0.0332                 0.0725
 IR Inten    --      1.0945                 5.8416                 5.1558

                      7                      8                      9
                      A                      A                      A
 Frequencies --    256.0329               273.9615               310.8220
 Red. masses --      1.6083                 1.9507                 3.1891
 Frc consts  --      0.0621                 0.0863                 0.1815
 IR Inten    --     38.2735                19.0955                20.2440

                     10                     11                     12
                      A                      A                      A
 Frequencies --    363.7661               414.1082               444.0741
 Red. masses --      3.7404                 1.6267                 2.4876
 Frc consts  --      0.2916                 0.1644                 0.2890
 IR Inten    --     13.7797                69.0028                 8.4753

                     13                     14                     15
                      A                      A                      A
 Frequencies --    468.0185               533.7066               568.0907
 Red. masses --      3.0117                 4.7658                 2.9520
 Frc consts  --      0.3887                 0.7998                 0.5613
 IR Inten    --     17.6187                12.8254                17.2806

                     16                     17                     18
                      A                      A                      A
 Frequencies --    575.9677               621.4328               676.5964
 Red. masses --      1.4376                 3.4153                 1.2652
 Frc consts  --      0.2810                 0.7771                 0.3412
 IR Inten    --     43.9311                 5.4728                35.1453

                     19                     20                     21
                      A                      A                      A
 Frequencies --    700.6967               742.7124               789.8915
 Red. masses --      4.6242                 3.6553                 3.3661
 Frc consts  --      1.3377                 1.1880                 1.2374
 IR Inten    --      6.6615                 6.2265                12.9278

                     22                     23                     24
                      A                      A                      A
 Frequencies --    971.3453               981.5434              1017.1929
 Red. masses --      1.3014                 1.7687                 1.6391
 Frc consts  --      0.7234                 1.0040                 0.9993
 IR Inten    --      7.9220                19.6610                24.9522

                     25                     26                     27
                      A                      A                      A
 Frequencies --   1087.1861              1094.7625              1119.1338
 Red. masses --      2.0562                 2.4174                 2.0486
 Frc consts  --      1.4319                 1.7070                 1.5117
 IR Inten    --      6.1485                10.4738                17.7155

                     28                     29                     30
                      A                      A                      A
 Frequencies --   1131.3597              1198.2133              1237.7564
 Red. masses --      2.2963                 3.1177                 1.7319
 Frc consts  --      1.7317                 2.6373                 1.5633
 IR Inten    --     37.0248                94.0981                43.9645

                     31                     32                     33
                      A                      A                      A
 Frequencies --   1280.0275              1334.7396              1369.1664
 Red. masses --      2.2899                 1.5247                 1.5409
 Frc consts  --      2.2106                 1.6004                 1.7019
 IR Inten    --     61.0613                21.3620                45.3680

                     34                     35                     36
                      A                      A                      A
 Frequencies --   1412.7743              1416.3048              1452.3372
 Red. masses --      1.2687                 1.3102                 2.2214
 Frc consts  --      1.4920                 1.5484                 2.7606
 IR Inten    --      3.1236                 5.3232                50.0366

                     37                     38                     39
                      A                      A                      A
 Frequencies --   1479.4134              1490.5076              1497.2124
 Red. masses --      1.0518                 1.0459                 1.0528
 Frc consts  --      1.3564                 1.3691                 1.3904
 IR Inten    --      2.7010                 2.5851                 3.3537

                     40                     41                     42
                      A                      A                      A
 Frequencies --   1505.2615              2226.1409              3035.5714
 Red. masses --      1.1535                 6.0364                 1.0397
 Frc consts  --      1.5400                17.6253                 5.6446
 IR Inten    --     13.2801                 8.2791                37.3095

                     43                     44                     45
                      A                      A                      A
 Frequencies --   3042.9267              3092.9895              3109.1972
 Red. masses --      1.0358                 1.0993                 1.1014
 Frc consts  --      5.6509                 6.1961                 6.2735
 IR Inten    --     18.8529                18.7718                16.7313

                     46                     47                     48
                      A                      A                      A
 Frequencies --   3129.7734              3133.5894              3149.6127
 Red. masses --      1.0953                 1.1006                 1.0900
 Frc consts  --      6.3215                 6.3674                 6.3707
 IR Inten    --      6.5220                 9.0032                17.9214

                     49                     50                     51
                      A                      A                      A
 Frequencies --   3501.5905              3742.4649              3803.7709
 Red. masses --      1.1595                 1.0649                 1.0666
 Frc consts  --      8.3766                 8.7880                 9.0928
 IR Inten    --     81.4491                63.6944                32.9493

 - Thermochemistry -
 -------------------
 Temperature   298.150 Kelvin.  Pressure   1.00000 Atm.
 Atom     1 has atomic number  6 and mass  12.00000

 Molecular mass:   126.06808 amu.
 Principal axes and moments of inertia in atomic units:
                           1         2         3
     Eigenvalues --   856.250821257.992811504.98756
           X            0.99745   0.06986   0.01460
           Y           -0.06990   0.99755   0.00210
           Z           -0.01442  -0.00312   0.99989
 This molecule is an asymmetric top.
 Rotational symmetry number  1.
 Warning -- assumption of classical behavior for rotation
           may cause significant error
 Rotational temperatures (Kelvin)      0.10115     0.06885     0.05755
 Rotational constants (GHZ):           2.10772     1.43462     1.19917
 Zero-point vibrational energy     405260.6 (Joules/Mol)
                                   96.85960 (Kcal/Mol)
 Warning -- explicit consideration of  16 degrees of freedom as
           vibrations may cause significant error
 Vibrational temperatures:    142.94   171.69   207.54   275.16   287.68
          (Kelvin)            311.37   368.37   394.17   447.20   523.38
                              595.81   638.92   673.37   767.88   817.35
                              828.69   894.10   973.47  1008.14  1068.60
                             1136.48  1397.55  1412.22  1463.51  1564.22
                             1575.12  1610.18  1627.77  1723.96  1780.85
                             1841.67  1920.39  1969.92  2032.66  2037.74
                             2089.59  2128.54  2144.51  2154.15  2165.73
                             3202.92  4367.50  4378.09  4450.12  4473.44
                             4503.04  4508.53  4531.58  5038.00  5384.57
                             5472.77

 Zero-point correction=                           0.154356 (Hartree/Particle)
 Thermal correction to Energy=                    0.164873
 Thermal correction to Enthalpy=                  0.165817
 Thermal correction to Gibbs Free Energy=         0.119715
 Sum of electronic and zero-point Energies=           -422.978588
 Sum of electronic and thermal Energies=              -422.968071
 Sum of electronic and thermal Enthalpies=            -422.967127
 Sum of electronic and thermal Free Energies=         -423.013229

                     E (Thermal)             CV                S
                      KCal/Mol        Cal/Mol-Kelvin    Cal/Mol-Kelvin
 Total                  103.459             39.193             97.031
 Electronic               0.000              0.000              0.000
 Translational            0.889              2.981             40.409
 Rotational               0.889              2.981             28.874
 Vibrational            101.682             33.232             27.748
 Vibration     1          0.604              1.950              3.467
 Vibration     2          0.609              1.933              3.111
 Vibration     3          0.616              1.909              2.747
 Vibration     4          0.634              1.852              2.216
 Vibration     5          0.638              1.840              2.134
 Vibration     6          0.645              1.816              1.989
 Vibration     7          0.666              1.753              1.689
 Vibration     8          0.676              1.721              1.571
 Vibration     9          0.700              1.653              1.358
 Vibration    10          0.737              1.547              1.106
 Vibration    11          0.778              1.440              0.912
 Vibration    12          0.804              1.374              0.814
 Vibration    13          0.825              1.321              0.743
 Vibration    14          0.889              1.175              0.579
 Vibration    15          0.924              1.100              0.508
 Vibration    16          0.932              1.083              0.493

 Optimization completed.
    -- Stationary point found.
 Normal termination of Gaussian 09 at Mon Jan 27 22:43:40 2020.
