 Gaussian 09, Revision D.01,
 Gaussian 09:  ES64L-G09RevD.01 24-Apr-2013

 -----------------------------
 # b3lyp 6-31G(2df,p) opt Freq
 -----------------------------

 -----
 titel
 -----
 Symbolic Z-matrix:
 Charge =  0 Multiplicity = 1

 SCF Done:  E(RB3LYP) =  -423.167191060     A.U. after   14 cycles
 Optimization completed.
    -- Stationary point found.
 Normal termination of Gaussian 09 at Mon Jan 27 15:35:58 2020.

 ----------------------------------------------------------------------
 #N Geom=AllCheck Guess=TCheck SCRF=Check GenChk RB3LYP/6-31G(2df,p) Fr
 eq
 ----------------------------------------------------------------------

 Structure from the checkpoint file:  "/scratch/puck/g09_54493d39-01fb-4874-97d1-4f26bd2643c9/Gau-55480.chk"
 -----
 titel
 -----
 Charge =  0 Multiplicity = 1

                         Standard orientation:
 ---------------------------------------------------------------------
 Center     Atomic      Atomic             Coordinates (Angstroms)
 Number     Number       Type             X           Y           Z
 ---------------------------------------------------------------------
      1          6           0        3.826168    0.127107    0.090728
      2          6           0        2.363777    0.136472   -0.331181
      3          8           0        1.869592    1.444156   -0.103844
      4          6           0        1.535975   -0.909908    0.454391
      5          6           0        0.121007   -0.855364    0.103520
      6          6           0       -1.033980   -0.767601   -0.231383
      7          6           0       -2.445848   -0.657137   -0.570903
      8          6           0       -3.223719    0.190175    0.439658
      9          8           0       -4.095932    0.955768    0.133548
     10          1           0        4.382393    0.880485   -0.472580
     11          1           0        3.916678    0.362682    1.155920
     12          1           0        4.279921   -0.851284   -0.093406
     13          1           0        2.292986   -0.118194   -1.401528
     14          1           0        0.925751    1.433000   -0.303218
     15          1           0        1.934918   -1.913527    0.260874
     16          1           0        1.658705   -0.715638    1.527525
     17          1           0       -2.606980   -0.233509   -1.567544
     18          1           0       -2.911614   -1.654890   -0.570050
     19          1           0       -2.922311    0.029026    1.497404
 ---------------------------------------------------------------------

 SCF Done:  E(RB3LYP) =  -423.167191060     A.U. after    1 cycles

 The electronic state is 1-A.
 Alpha  occ. eigenvalues --  -19.15251 -19.13300 -10.28574 -10.24118 -10.22683
 Alpha  occ. eigenvalues --  -10.21168 -10.19261 -10.19017 -10.17823  -1.06050
 Alpha  occ. eigenvalues --   -1.01899  -0.81411  -0.79068  -0.74057  -0.68872
 Alpha  occ. eigenvalues --   -0.59955  -0.59336  -0.51850  -0.51731  -0.48362
 Alpha  occ. eigenvalues --   -0.47147  -0.46209  -0.45180  -0.42823  -0.41693
 Alpha  occ. eigenvalues --   -0.39001  -0.38563  -0.38330  -0.36848  -0.33087
 Alpha  occ. eigenvalues --   -0.28632  -0.28133  -0.25977  -0.25370
 Alpha virt. eigenvalues --   -0.03292   0.03525   0.04431   0.08701   0.10646
 Alpha virt. eigenvalues --    0.11915   0.12980   0.13682   0.14542   0.15690
 Alpha virt. eigenvalues --    0.16852   0.17793   0.19068   0.20067   0.21834

 Mulliken charges:
               1
     1  C   -0.384316
     2  C    0.147539
     3  O   -0.432237
     4  C   -0.352607
     5  C    0.002070
     6  C    0.101574
     7  C   -0.415366
     8  C    0.169768
     9  O   -0.227604
    10  H    0.128381
    11  H    0.123985
    12  H    0.112438
    13  H    0.073204
    14  H    0.284023
    15  H    0.127333
    16  H    0.134382
    17  H    0.154722
    18  H    0.157299
    19  H    0.095413
 Sum of Mulliken charges =   0.00000

 Dipole moment (field-independent basis, Debye):
    X=              1.1788    Y=             -2.7093    Z=             -0.0974  Tot=              2.9562
 Quadrupole moment (field-independent basis, Debye-Ang):
   XX=            -60.3934   YY=            -56.2317   ZZ=            -51.7268
   XY=              2.7572   XZ=              0.2775   YZ=             -0.5230

  Exact polarizability: 117.996  -5.860  66.038   6.525  -0.265  64.186
 Approx polarizability: 156.235 -13.376 100.414  16.064  -1.637  96.198

                      1                      2                      3
                      A                      A                      A
 Frequencies --      9.2825                41.7240                67.3139
 Red. masses --      3.7351                 4.9931                 3.0605
 Frc consts  --      0.0002                 0.0051                 0.0082
 IR Inten    --      0.2320                 3.0988                 2.6616

                      4                      5                      6
                      A                      A                      A
 Frequencies --     92.7143               136.7752               219.7733
 Red. masses --      3.5638                 2.9757                 1.0530
 Frc consts  --      0.0180                 0.0328                 0.0300
 IR Inten    --      0.7506                 3.6839                 0.6758

                      7                      8                      9
                      A                      A                      A
 Frequencies --    251.2904               292.4921               330.6367
 Red. masses --      3.7768                 2.8689                 3.2248
 Frc consts  --      0.1405                 0.1446                 0.2077
 IR Inten    --      9.3039                 3.0563                 5.3212

                     10                     11                     12
                      A                      A                      A
 Frequencies --    392.3718               403.6188               448.7324
 Red. masses --      1.7549                 1.6087                 3.4014
 Frc consts  --      0.1592                 0.1544                 0.4035
 IR Inten    --     37.8381                64.4655                20.2468

                     13                     14                     15
                      A                      A                      A
 Frequencies --    461.9373               490.3306               550.7263
 Red. masses --      2.6986                 4.1816                 4.4902
 Frc consts  --      0.3393                 0.5923                 0.8024
 IR Inten    --     18.0728                 2.4675                 2.2927

                     16                     17                     18
                      A                      A                      A
 Frequencies --    721.5940               817.3541               840.7667
 Red. masses --      1.6897                 2.7539                 2.6398
 Frc consts  --      0.5184                 1.0840                 1.0994
 IR Inten    --      1.2706                 2.1118                 3.3741

                     19                     20                     21
                      A                      A                      A
 Frequencies --    907.8857               943.8434              1033.6038
 Red. masses --      1.5315                 2.0083                 3.7326
 Frc consts  --      0.7437                 1.0541                 2.3495
 IR Inten    --      0.3537                13.4625                43.5170

                     22                     23                     24
                      A                      A                      A
 Frequencies --   1042.2440              1054.1400              1101.9513
 Red. masses --      1.7822                 2.2037                 1.7213
 Frc consts  --      1.1407                 1.4428                 1.2315
 IR Inten    --      0.3664                47.0597                 6.2378

                     25                     26                     27
                      A                      A                      A
 Frequencies --   1154.6249              1159.8286              1211.2065
 Red. masses --      2.5456                 2.5973                 1.1886
 Frc consts  --      1.9995                 2.0585                 1.0274
 IR Inten    --     23.2945                 3.9396                 4.8881

                     28                     29                     30
                      A                      A                      A
 Frequencies --   1239.7029              1288.5638              1293.4238
 Red. masses --      1.2321                 1.4567                 1.1880
 Frc consts  --      1.1156                 1.4250                 1.1710
 IR Inten    --      3.5892                12.8632                48.3611

                     31                     32                     33
                      A                      A                      A
 Frequencies --   1307.3966              1382.2446              1400.1766
 Red. masses --      1.5431                 1.2304                 1.2351
 Frc consts  --      1.5541                 1.3851                 1.4267
 IR Inten    --     19.4514                24.1511                 4.3386

                     34                     35                     36
                      A                      A                      A
 Frequencies --   1414.5898              1441.1774              1443.0611
 Red. masses --      1.1668                 1.1426                 1.4988
 Frc consts  --      1.3757                 1.3983                 1.8390
 IR Inten    --      8.4120                 8.6250                29.3794

                     37                     38                     39
                      A                      A                      A
 Frequencies --   1460.1005              1483.4559              1499.1873
 Red. masses --      1.1037                 1.0532                 1.0514
 Frc consts  --      1.3863                 1.3655                 1.3923
 IR Inten    --      8.6009                 3.7754                 1.9311

                     40                     41                     42
                      A                      A                      A
 Frequencies --   1841.6831              2359.0860              2901.9134
 Red. masses --     10.2693                11.8410                 1.0851
 Frc consts  --     20.5221                38.8264                 5.3839
 IR Inten    --    207.6349                 0.9681                78.7399

                     43                     44                     45
                      A                      A                      A
 Frequencies --   2964.5108              3001.2658              3022.6461
 Red. masses --      1.0827                 1.0670                 1.0578
 Frc consts  --      5.6062                 5.6625                 5.6943
 IR Inten    --     46.3132                14.1348                17.8199

                     46                     47                     48
                      A                      A                      A
 Frequencies --   3042.3099              3062.3809              3079.6918
 Red. masses --      1.0355                 1.1022                 1.0916
 Frc consts  --      5.6467                 6.0903                 6.1000
 IR Inten    --     19.9377                12.0742                 4.6261

                     49                     50                     51
                      A                      A                      A
 Frequencies --   3114.9482              3125.2028              3783.2508
 Red. masses --      1.1017                 1.1016                 1.0655
 Frc consts  --      6.2984                 6.3392                 8.9851
 IR Inten    --     26.9297                18.1953                28.8861

 - Thermochemistry -
 -------------------
 Temperature   298.150 Kelvin.  Pressure   1.00000 Atm.
 Atom     1 has atomic number  6 and mass  12.00000

 Molecular mass:   126.06808 amu.
 Principal axes and moments of inertia in atomic units:
                           1         2         3
     Eigenvalues --   403.343233272.279983515.09444
           X            0.99999   0.00360   0.00336
           Y           -0.00358   0.99998  -0.00608
           Z           -0.00338   0.00607   0.99998
 This molecule is an asymmetric top.
 Rotational symmetry number  1.
 Rotational temperatures (Kelvin)      0.21474     0.02647     0.02464
 Rotational constants (GHZ):           4.47446     0.55152     0.51343
 Zero-point vibrational energy     407512.3 (Joules/Mol)
                                   97.39777 (Kcal/Mol)
 Warning -- explicit consideration of  15 degrees of freedom as
           vibrations may cause significant error
 Vibrational temperatures:     13.36    60.03    96.85   133.40   196.79
          (Kelvin)            316.20   361.55   420.83   475.71   564.53
                              580.72   645.62   664.62   705.48   792.37
                             1038.21  1175.99  1209.67  1306.24  1357.98
                             1487.12  1499.55  1516.67  1585.46  1661.25
                             1668.73  1742.65  1783.65  1853.95  1860.95
                             1881.05  1988.74  2014.54  2035.28  2073.53
                             2076.24  2100.76  2134.36  2156.99  2649.77
                             3394.19  4175.20  4265.26  4318.15  4348.91
                             4377.20  4406.08  4430.98  4481.71  4496.46
                             5443.25

 Zero-point correction=                           0.155213 (Hartree/Particle)
 Thermal correction to Energy=                    0.166044
 Thermal correction to Enthalpy=                  0.166988
 Thermal correction to Gibbs Free Energy=         0.116124
 Sum of electronic and zero-point Energies=           -423.011978
 Sum of electronic and thermal Energies=              -423.001147
 Sum of electronic and thermal Enthalpies=            -423.000203
 Sum of electronic and thermal Free Energies=         -423.051067

                     E (Thermal)             CV                S
                      KCal/Mol        Cal/Mol-Kelvin    Cal/Mol-Kelvin
 Total                  104.194             36.970            107.051
 Electronic               0.000              0.000              0.000
 Translational            0.889              2.981             40.409
 Rotational               0.889              2.981             29.918
 Vibrational            102.416             31.008             36.724
 Vibration     1          0.593              1.987              8.159
 Vibration     2          0.594              1.981              5.176
 Vibration     3          0.598              1.970              4.230
 Vibration     4          0.602              1.954              3.602
 Vibration     5          0.614              1.917              2.849
 Vibration     6          0.647              1.811              1.961
 Vibration     7          0.663              1.761              1.722
 Vibration     8          0.688              1.688              1.460
 Vibration     9          0.713              1.614              1.257
 Vibration    10          0.760              1.486              0.991
 Vibration    11          0.769              1.462              0.949
 Vibration    12          0.808              1.364              0.800
 Vibration    13          0.820              1.334              0.760
 Vibration    14          0.846              1.271              0.683
 Vibration    15          0.906              1.138              0.543

 Normal termination of Gaussian 09 at Mon Jan 27 16:07:07 2020.
