 Gaussian 09, Revision D.01,
 Gaussian 09:  ES64L-G09RevD.01 24-Apr-2013

 -----------------------------
 # b3lyp 6-31G(2df,p) opt Freq
 -----------------------------

 -----
 titel
 -----
 Symbolic Z-matrix:
 Charge =  0 Multiplicity = 1

 SCF Done:  E(RB3LYP) =  -423.199961810     A.U. after   14 cycles
 Optimization completed.
    -- Stationary point found.
 Normal termination of Gaussian 09 at Mon Jan 27 14:04:56 2020.

 ----------------------------------------------------------------------
 #N Geom=AllCheck Guess=TCheck SCRF=Check GenChk RB3LYP/6-31G(2df,p) Fr
 eq
 ----------------------------------------------------------------------

 Structure from the checkpoint file:  "/scratch/puck/g09_e6b65cb2-fa35-4d09-bf75-d726f27b87a4/Gau-50964.chk"
 -----
 titel
 -----
 Charge =  0 Multiplicity = 1

                         Standard orientation:
 ---------------------------------------------------------------------
 Center     Atomic      Atomic             Coordinates (Angstroms)
 Number     Number       Type             X           Y           Z
 ---------------------------------------------------------------------
      1          6           0        1.121753    2.021299    0.362946
      2          6           0        1.322869    0.598713   -0.131361
      3          8           0        2.321883    0.292818   -0.748520
      4          6           0        0.280812   -0.438217    0.206240
      5          6           0       -1.075510   -0.015180    0.753094
      6          6           0       -2.016208    0.499072   -0.324300
      7          8           0       -3.192936    0.253925   -0.368932
      8          6           0        0.331685   -1.701980   -0.643805
      9          6           0        0.887094   -1.742486    0.736983
     10          1           0        0.208371    2.464487   -0.047588
     11          1           0        1.023868    2.041228    1.454523
     12          1           0        1.981060    2.621878    0.064214
     13          1           0       -1.578297   -0.848581    1.251953
     14          1           0       -0.966212    0.777432    1.505568
     15          1           0       -1.537261    1.138189   -1.102724
     16          1           0       -0.614701   -2.195444   -0.837083
     17          1           0        1.037042   -1.687670   -1.465449
     18          1           0        0.334146   -2.256731    1.515190
     19          1           0        1.965432   -1.756055    0.842247
 ---------------------------------------------------------------------

 SCF Done:  E(RB3LYP) =  -423.199961810     A.U. after    1 cycles

 The electronic state is 1-A.
 Alpha  occ. eigenvalues --  -19.14849 -19.13111 -10.28081 -10.27763 -10.22025
 Alpha  occ. eigenvalues --  -10.20948 -10.20696 -10.20121 -10.19823  -1.05571
 Alpha  occ. eigenvalues --   -1.04411  -0.88321  -0.77415  -0.74429  -0.63865
 Alpha  occ. eigenvalues --   -0.61875  -0.59104  -0.52934  -0.50847  -0.49115
 Alpha  occ. eigenvalues --   -0.46199  -0.45268  -0.44196  -0.43485  -0.43099
 Alpha  occ. eigenvalues --   -0.41128  -0.38875  -0.38505  -0.37166  -0.36117
 Alpha  occ. eigenvalues --   -0.31922  -0.30151  -0.25694  -0.25261
 Alpha virt. eigenvalues --   -0.03136  -0.02206   0.07753   0.08551   0.10488
 Alpha virt. eigenvalues --    0.12387   0.12750   0.13580   0.14313   0.16331
 Alpha virt. eigenvalues --    0.17115   0.18868   0.20092   0.21068   0.21619

 Mulliken charges:
               1
     1  C   -0.503534
     2  C    0.329324
     3  O   -0.314862
     4  C    0.218205
     5  C   -0.394391
     6  C    0.172074
     7  O   -0.236853
     8  C   -0.281836
     9  C   -0.287702
    10  H    0.140108
    11  H    0.143977
    12  H    0.148123
    13  H    0.127368
    14  H    0.128349
    15  H    0.077674
    16  H    0.125248
    17  H    0.145505
    18  H    0.121997
    19  H    0.141227
 Sum of Mulliken charges =   0.00000

 Dipole moment (field-independent basis, Debye):
    X=              0.4327    Y=              0.4116    Z=              1.8633  Tot=              1.9567
 Quadrupole moment (field-independent basis, Debye-Ang):
   XX=            -70.6787   YY=            -49.0178   ZZ=            -52.3084
   XY=              0.4997   XZ=              1.6300   YZ=              0.3390

  Exact polarizability:  84.630   1.873  80.086  -1.873  -0.859  65.203
 Approx polarizability: 127.934   3.251 110.598  -6.500  -0.810 102.580

                      1                      2                      3
                      A                      A                      A
 Frequencies --     28.6240                46.8786               103.4308
 Red. masses --      4.6905                 4.9810                 2.8378
 Frc consts  --      0.0023                 0.0064                 0.0179
 IR Inten    --      7.8043                 5.6366                 1.2250

                      4                      5                      6
                      A                      A                      A
 Frequencies --    163.5022               178.4981               251.9221
 Red. masses --      2.5349                 1.0841                 3.3843
 Frc consts  --      0.0399                 0.0204                 0.1265
 IR Inten    --      1.8728                 0.0717                 1.4326

                      7                      8                      9
                      A                      A                      A
 Frequencies --    275.2438               328.5865               403.4438
 Red. masses --      2.2628                 2.5691                 2.7340
 Frc consts  --      0.1010                 0.1634                 0.2622
 IR Inten    --      1.1666                 1.0986                 4.6600

                     10                     11                     12
                      A                      A                      A
 Frequencies --    408.7011               445.7186               584.6450
 Red. masses --      4.0726                 3.8698                 3.3648
 Frc consts  --      0.4008                 0.4530                 0.6776
 IR Inten    --      0.7331                11.8648                12.5811

                     13                     14                     15
                      A                      A                      A
 Frequencies --    611.2181               672.7629               757.2458
 Red. masses --      2.4263                 2.4670                 1.8194
 Frc consts  --      0.5341                 0.6579                 0.6147
 IR Inten    --      2.0380                 0.7325                 8.2764

                     16                     17                     18
                      A                      A                      A
 Frequencies --    798.9120               849.2945               886.9146
 Red. masses --      1.0478                 4.3966                 3.2459
 Frc consts  --      0.3940                 1.8685                 1.5044
 IR Inten    --      1.6723                 0.7791                16.9448

                     19                     20                     21
                      A                      A                      A
 Frequencies --    949.8734               961.7050               973.5610
 Red. masses --      1.3345                 1.6384                 1.6985
 Frc consts  --      0.7094                 0.8928                 0.9485
 IR Inten    --      9.6736                 4.7973                33.3285

                     22                     23                     24
                      A                      A                      A
 Frequencies --   1050.4406              1056.7446              1068.4284
 Red. masses --      1.8793                 2.2316                 2.1180
 Frc consts  --      1.2218                 1.4683                 1.4245
 IR Inten    --      5.1504                 9.9397                 3.0860

                     25                     26                     27
                      A                      A                      A
 Frequencies --   1071.7504              1103.7901              1160.2457
 Red. masses --      1.4110                 1.4101                 2.4584
 Frc consts  --      0.9549                 1.0122                 1.9498
 IR Inten    --     11.1278                 3.2507                60.8977

                     28                     29                     30
                      A                      A                      A
 Frequencies --   1205.3180              1210.4333              1282.0995
 Red. masses --      1.3084                 1.4098                 1.6787
 Frc consts  --      1.1200                 1.2170                 1.6258
 IR Inten    --      6.6956                21.5218                 1.3812

                     31                     32                     33
                      A                      A                      A
 Frequencies --   1323.5727              1347.6254              1383.0306
 Red. masses --      2.6968                 2.0928                 1.4219
 Frc consts  --      2.7835                 2.2393                 1.6024
 IR Inten    --      1.1361                40.5535                57.2529

                     34                     35                     36
                      A                      A                      A
 Frequencies --   1429.1678              1446.4140              1451.3616
 Red. masses --      1.1949                 1.0878                 1.0912
 Frc consts  --      1.4380                 1.3409                 1.3542
 IR Inten    --      3.3432                22.0359                 3.5588

                     37                     38                     39
                      A                      A                      A
 Frequencies --   1467.4181              1478.9247              1482.4388
 Red. masses --      1.0675                 1.0505                 1.2882
 Frc consts  --      1.3543                 1.3537                 1.6680
 IR Inten    --      3.7850                 7.9187                 3.2615

                     40                     41                     42
                      A                      A                      A
 Frequencies --   1783.1421              1836.3779              2855.3203
 Red. masses --     10.6288                10.4672                 1.0821
 Frc consts  --     19.9116                20.7973                 5.1977
 IR Inten    --    129.8279               172.3061                99.6892

                     43                     44                     45
                      A                      A                      A
 Frequencies --   3027.2789              3037.8472              3094.0773
 Red. masses --      1.0633                 1.0396                 1.0956
 Frc consts  --      5.7415                 5.6524                 6.1795
 IR Inten    --      8.1066                 7.5150                 7.4038

                     46                     47                     48
                      A                      A                      A
 Frequencies --   3098.4595              3139.0324              3141.1901
 Red. masses --      1.0975                 1.0513                 1.0570
 Frc consts  --      6.2081                 6.1035                 6.1451
 IR Inten    --      7.9181                10.9590                 7.7921

                     49                     50                     51
                      A                      A                      A
 Frequencies --   3155.7671              3229.8134              3243.7323
 Red. masses --      1.1011                 1.1181                 1.1166
 Frc consts  --      6.4611                 6.8720                 6.9219
 IR Inten    --      8.9789                 0.7566                 2.2097

 - Thermochemistry -
 -------------------
 Temperature   298.150 Kelvin.  Pressure   1.00000 Atm.
 Atom     1 has atomic number  6 and mass  12.00000

 Molecular mass:   126.06808 amu.
 Principal axes and moments of inertia in atomic units:
                           1         2         3
     Eigenvalues --   764.576611507.528811943.36629
           X            0.99995   0.00964   0.00328
           Y           -0.00968   0.99990   0.01055
           Z           -0.00318  -0.01058   0.99994
 This molecule is an asymmetric top.
 Rotational symmetry number  1.
 Warning -- assumption of classical behavior for rotation
           may cause significant error
 Rotational temperatures (Kelvin)      0.11328     0.05745     0.04457
 Rotational constants (GHZ):           2.36045     1.19715     0.92867
 Zero-point vibrational energy     408775.5 (Joules/Mol)
                                   97.69969 (Kcal/Mol)
 Warning -- explicit consideration of  13 degrees of freedom as
           vibrations may cause significant error
 Vibrational temperatures:     41.18    67.45   148.81   235.24   256.82
          (Kelvin)            362.46   396.01   472.76   580.46   588.03
                              641.29   841.17   879.41   967.95  1089.51
                             1149.45  1221.94  1276.07  1366.65  1383.68
                             1400.74  1511.35  1520.42  1537.23  1542.01
                             1588.11  1669.33  1734.18  1741.54  1844.65
                             1904.32  1938.93  1989.87  2056.25  2081.06
                             2088.18  2111.28  2127.84  2132.90  2565.54
                             2642.13  4108.16  4355.57  4370.78  4451.68
                             4457.99  4516.36  4519.47  4540.44  4646.98
                             4667.00

 Zero-point correction=                           0.155694 (Hartree/Particle)
 Thermal correction to Energy=                    0.165525
 Thermal correction to Enthalpy=                  0.166469
 Thermal correction to Gibbs Free Energy=         0.119448
 Sum of electronic and zero-point Energies=           -423.044267
 Sum of electronic and thermal Energies=              -423.034437
 Sum of electronic and thermal Enthalpies=            -423.033493
 Sum of electronic and thermal Free Energies=         -423.080514

                     E (Thermal)             CV                S
                      KCal/Mol        Cal/Mol-Kelvin    Cal/Mol-Kelvin
 Total                  103.869             34.962             98.964
 Electronic               0.000              0.000              0.000
 Translational            0.889              2.981             40.409
 Rotational               0.889              2.981             29.195
 Vibrational            102.091             29.001             29.361
 Vibration     1          0.593              1.984              5.923
 Vibration     2          0.595              1.979              4.945
 Vibration     3          0.605              1.946              3.389
 Vibration     4          0.623              1.887              2.509
 Vibration     5          0.629              1.869              2.344
 Vibration     6          0.664              1.760              1.717
 Vibration     7          0.677              1.719              1.563
 Vibration     8          0.712              1.618              1.267
 Vibration     9          0.769              1.463              0.950
 Vibration    10          0.773              1.451              0.931
 Vibration    11          0.805              1.370              0.809
 Vibration    12          0.942              1.065              0.477
 Vibration    13          0.970              1.008              0.431

 Optimization completed.
    -- Stationary point found.
 Normal termination of Gaussian 09 at Mon Jan 27 14:45:03 2020.
