 Gaussian 09, Revision D.01,
 Gaussian 09:  ES64L-G09RevD.01 24-Apr-2013

 -----------------------------
 # b3lyp 6-31G(2df,p) opt Freq
 -----------------------------

 -----
 titel
 -----
 Symbolic Z-matrix:
 Charge =  0 Multiplicity = 1

 SCF Done:  E(RB3LYP) =  -423.183271170     A.U. after   14 cycles
 Optimization completed.
    -- Stationary point found.
 Normal termination of Gaussian 09 at Tue Jan 28 03:11:36 2020.

 ----------------------------------------------------------------------
 #N Geom=AllCheck Guess=TCheck SCRF=Check GenChk RB3LYP/6-31G(2df,p) Fr
 eq
 ----------------------------------------------------------------------

 Structure from the checkpoint file:  "/scratch/puck/g09_f467da20-c0d9-4b4e-8464-7cb67feed4bf/Gau-44870.chk"
 -----
 titel
 -----
 Charge =  0 Multiplicity = 1

                         Standard orientation:
 ---------------------------------------------------------------------
 Center     Atomic      Atomic             Coordinates (Angstroms)
 Number     Number       Type             X           Y           Z
 ---------------------------------------------------------------------
      1          8           0       -2.356454   -0.019295   -0.765639
      2          6           0       -1.016515    0.369329   -0.680235
      3          6           0       -0.641034    1.608104    0.185619
      4          6           0        0.526339    0.787409    0.812179
      5          6           0        1.866782    0.860941    0.134573
      6          6           0        2.152405   -0.238746   -0.567844
      7          6           0        1.056997   -1.278676   -0.507876
      8          6           0       -0.080347   -0.524720    0.204216
      9          8           0       -0.907532   -1.302721    1.043452
     10          1           0       -2.554631   -0.480766    0.059622
     11          1           0       -0.634677    0.456635   -1.701744
     12          1           0       -0.384027    2.528141   -0.344841
     13          1           0       -1.425453    1.822982    0.916413
     14          1           0        0.598065    0.848407    1.904463
     15          1           0        2.520915    1.721912    0.228125
     16          1           0        3.070906   -0.397062   -1.122976
     17          1           0        0.751736   -1.641192   -1.497283
     18          1           0        1.368212   -2.166651    0.063012
     19          1           0       -0.386927   -1.618122    1.788910
 ---------------------------------------------------------------------

 SCF Done:  E(RB3LYP) =  -423.183271170     A.U. after    1 cycles

 The electronic state is 1-A.
 Alpha  occ. eigenvalues --  -19.15309 -19.12360 -10.23337 -10.22255 -10.18691
 Alpha  occ. eigenvalues --  -10.18560 -10.18519 -10.18316 -10.17389  -1.04070
 Alpha  occ. eigenvalues --   -1.00416  -0.85807  -0.77206  -0.71157  -0.64386
 Alpha  occ. eigenvalues --   -0.62422  -0.57374  -0.53906  -0.51466  -0.49247
 Alpha  occ. eigenvalues --   -0.45694  -0.44504  -0.42474  -0.40632  -0.38786
 Alpha  occ. eigenvalues --   -0.38006  -0.36710  -0.36378  -0.33903  -0.33388
 Alpha  occ. eigenvalues --   -0.29755  -0.26902  -0.24523  -0.24094
 Alpha virt. eigenvalues --    0.01674   0.06415   0.09534   0.11510   0.12961
 Alpha virt. eigenvalues --    0.13838   0.13926   0.15033   0.16016   0.16955
 Alpha virt. eigenvalues --    0.18472   0.19015   0.20349   0.22217   0.22861

 Mulliken charges:
               1
     1  O   -0.439985
     2  C    0.142257
     3  C   -0.276212
     4  C   -0.136005
     5  C   -0.077446
     6  C   -0.066019
     7  C   -0.341307
     8  C    0.378312
     9  O   -0.508653
    10  H    0.290782
    11  H    0.084997
    12  H    0.096870
    13  H    0.101180
    14  H    0.068239
    15  H    0.093401
    16  H    0.094932
    17  H    0.115609
    18  H    0.095907
    19  H    0.283141
 Sum of Mulliken charges =   0.00000

 Dipole moment (field-independent basis, Debye):
    X=              2.1632    Y=             -0.3632    Z=              1.6795  Tot=              2.7626
 Quadrupole moment (field-independent basis, Debye-Ang):
   XX=            -56.9466   YY=            -51.6292   ZZ=            -50.7140
   XY=             -0.4200   XZ=             -3.6038   YZ=             -1.3616

  Exact polarizability:  80.291  -1.539  79.282  -4.688   4.787  66.826
 Approx polarizability: 110.396  -2.080 121.018  -6.434  10.529 106.009

                      1                      2                      3
                      A                      A                      A
 Frequencies --     86.9463               213.9209               226.0579
 Red. masses --      3.3908                 1.3303                 1.8532
 Frc consts  --      0.0151                 0.0359                 0.0558
 IR Inten    --      1.0893                53.7535                33.3449

                      4                      5                      6
                      A                      A                      A
 Frequencies --    251.8760               285.1440               362.1766
 Red. masses --      3.2286                 3.9341                 4.1056
 Frc consts  --      0.1207                 0.1885                 0.3173
 IR Inten    --      2.0849                 6.7411                 2.2597

                      7                      8                      9
                      A                      A                      A
 Frequencies --    416.0554               427.3108               466.1186
 Red. masses --      1.2391                 2.3009                 3.3655
 Frc consts  --      0.1264                 0.2475                 0.4308
 IR Inten    --     75.9271                11.0013                 7.7295

                     10                     11                     12
                      A                      A                      A
 Frequencies --    474.8792               635.4277               664.9323
 Red. masses --      2.1346                 3.5846                 3.5307
 Frc consts  --      0.2836                 0.8528                 0.9197
 IR Inten    --      0.0554                 0.0958                11.0660

                     13                     14                     15
                      A                      A                      A
 Frequencies --    728.6207               761.8758               774.2588
 Red. masses --      1.7616                 4.1548                 2.1143
 Frc consts  --      0.5510                 1.4209                 0.7468
 IR Inten    --     27.4323                 2.2960                17.6464

                     16                     17                     18
                      A                      A                      A
 Frequencies --    847.0678               902.0886               930.2023
 Red. masses --      2.1827                 2.1690                 2.1148
 Frc consts  --      0.9228                 1.0400                 1.0781
 IR Inten    --     11.9230                 3.6993                 5.1456

                     19                     20                     21
                      A                      A                      A
 Frequencies --    955.4897               977.6268              1000.1714
 Red. masses --      2.1895                 1.2597                 2.8445
 Frc consts  --      1.1777                 0.7093                 1.6765
 IR Inten    --      9.6460                 0.3398                 5.6043

                     22                     23                     24
                      A                      A                      A
 Frequencies --   1031.2956              1058.9808              1093.7750
 Red. masses --      2.0183                 2.1235                 1.4569
 Frc consts  --      1.2647                 1.4031                 1.0269
 IR Inten    --      0.8786                 6.7293                 5.9578

                     25                     26                     27
                      A                      A                      A
 Frequencies --   1123.8214              1135.3711              1150.7644
 Red. masses --      2.4751                 1.6129                 1.5375
 Frc consts  --      1.8418                 1.2250                 1.1996
 IR Inten    --     33.2851                18.3022                35.2671

                     28                     29                     30
                      A                      A                      A
 Frequencies --   1156.4981              1158.1185              1205.1419
 Red. masses --      1.7610                 1.2963                 1.7804
 Frc consts  --      1.3877                 1.0244                 1.5235
 IR Inten    --     72.8934                50.0286                66.7347

                     31                     32                     33
                      A                      A                      A
 Frequencies --   1248.6955              1273.2005              1288.0249
 Red. masses --      1.7109                 1.4760                 1.4438
 Frc consts  --      1.5717                 1.4097                 1.4112
 IR Inten    --      3.0192                 2.2263                 2.0280

                     34                     35                     36
                      A                      A                      A
 Frequencies --   1320.9405              1337.5589              1369.3783
 Red. masses --      1.6850                 1.8003                 1.6438
 Frc consts  --      1.7322                 1.8977                 1.8161
 IR Inten    --     31.1186                 7.9620                21.3150

                     37                     38                     39
                      A                      A                      A
 Frequencies --   1374.5765              1445.2139              1476.3949
 Red. masses --      1.7339                 1.2268                 1.1175
 Frc consts  --      1.9302                 1.5097                 1.4351
 IR Inten    --      2.6344                80.9645                 5.3180

                     40                     41                     42
                      A                      A                      A
 Frequencies --   1479.6646              1671.0680              2996.1636
 Red. masses --      1.1001                 6.2952                 1.0681
 Frc consts  --      1.4191                10.3573                 5.6495
 IR Inten    --      1.8174                 1.1755                43.1871

                     43                     44                     45
                      A                      A                      A
 Frequencies --   3031.5843              3046.5722              3060.0297
 Red. masses --      1.0842                 1.0926                 1.0593
 Frc consts  --      5.8710                 5.9747                 5.8443
 IR Inten    --     37.8961                15.3507                37.1661

                     46                     47                     48
                      A                      A                      A
 Frequencies --   3065.4479              3117.4050              3173.9928
 Red. masses --      1.0870                 1.1081                 1.0846
 Frc consts  --      6.0180                 6.3450                 6.4374
 IR Inten    --     19.0765                27.4755                 6.5594

                     49                     50                     51
                      A                      A                      A
 Frequencies --   3199.3772              3769.1986              3820.4506
 Red. masses --      1.1025                 1.0649                 1.0662
 Frc consts  --      6.6492                 8.9137                 9.1692
 IR Inten    --     27.0130                43.0004                24.3025

 - Thermochemistry -
 -------------------
 Temperature   298.150 Kelvin.  Pressure   1.00000 Atm.
 Atom     1 has atomic number  8 and mass  15.99491

 Molecular mass:   126.06808 amu.
 Principal axes and moments of inertia in atomic units:
                           1         2         3
     Eigenvalues --   666.154011157.847871377.01974
           X            0.99967  -0.01750  -0.01884
           Y            0.01807   0.99936   0.03098
           Z            0.01828  -0.03131   0.99934
 This molecule is an asymmetric top.
 Rotational symmetry number  1.
 Warning -- assumption of classical behavior for rotation
           may cause significant error
 Rotational temperatures (Kelvin)      0.13002     0.07481     0.06290
 Rotational constants (GHZ):           2.70920     1.55870     1.31061
 Zero-point vibrational energy     419093.4 (Joules/Mol)
                                  100.16574 (Kcal/Mol)
 Warning -- explicit consideration of  10 degrees of freedom as
           vibrations may cause significant error
 Vibrational temperatures:    125.10   307.78   325.25   362.39   410.26
          (Kelvin)            521.09   598.61   614.80   670.64   683.24
                              914.24   956.69  1048.32  1096.17  1113.98
                             1218.74  1297.90  1338.35  1374.73  1406.59
                             1439.02  1483.80  1523.64  1573.70  1616.93
                             1633.54  1655.69  1663.94  1666.27  1733.93
                             1796.59  1831.85  1853.18  1900.54  1924.45
                             1970.23  1977.71  2079.34  2124.20  2128.90
                             2404.29  4310.81  4361.77  4383.33  4402.69
                             4410.49  4485.24  4566.66  4603.18  5423.03
                             5496.77

 Zero-point correction=                           0.159624 (Hartree/Particle)
 Thermal correction to Energy=                    0.167757
 Thermal correction to Enthalpy=                  0.168701
 Thermal correction to Gibbs Free Energy=         0.127334
 Sum of electronic and zero-point Energies=           -423.023647
 Sum of electronic and thermal Energies=              -423.015514
 Sum of electronic and thermal Enthalpies=            -423.014570
 Sum of electronic and thermal Free Energies=         -423.055938

                     E (Thermal)             CV                S
                      KCal/Mol        Cal/Mol-Kelvin    Cal/Mol-Kelvin
 Total                  105.269             32.466             87.066
 Electronic               0.000              0.000              0.000
 Translational            0.889              2.981             40.409
 Rotational               0.889              2.981             28.453
 Vibrational            103.492             26.504             18.204
 Vibration     1          0.601              1.958              3.728
 Vibration     2          0.644              1.820              2.010
 Vibration     3          0.650              1.801              1.910
 Vibration     4          0.664              1.760              1.717
 Vibration     5          0.683              1.701              1.503
 Vibration     6          0.736              1.550              1.113
 Vibration     7          0.779              1.435              0.905
 Vibration     8          0.789              1.411              0.867
 Vibration     9          0.823              1.325              0.749
 Vibration    10          0.832              1.306              0.724

 Optimization completed.
    -- Stationary point found.
 Normal termination of Gaussian 09 at Tue Jan 28 05:11:22 2020.
