 Gaussian 09, Revision D.01,
 Gaussian 09:  ES64L-G09RevD.01 24-Apr-2013

 -----------------------------
 # b3lyp 6-31G(2df,p) opt Freq
 -----------------------------

 -----
 titel
 -----
 Symbolic Z-matrix:
 Charge =  0 Multiplicity = 1

 SCF Done:  E(RB3LYP) =  -423.197684354     A.U. after   14 cycles
 Optimization completed.
    -- Stationary point found.
 Normal termination of Gaussian 09 at Mon Jan 27 12:20:36 2020.

 ----------------------------------------------------------------------
 #N Geom=AllCheck Guess=TCheck SCRF=Check GenChk RB3LYP/6-31G(2df,p) Fr
 eq
 ----------------------------------------------------------------------

 Structure from the checkpoint file:  "/scratch/puck/g09_4b0f09b7-53fe-4ed7-b358-263a676d8ac4/Gau-152582.chk"
 -----
 titel
 -----
 Charge =  0 Multiplicity = 1

                         Standard orientation:
 ---------------------------------------------------------------------
 Center     Atomic      Atomic             Coordinates (Angstroms)
 Number     Number       Type             X           Y           Z
 ---------------------------------------------------------------------
      1          6           0       -1.280293   -0.835205   -0.856622
      2          8           0       -1.875918    0.359799   -0.369367
      3          6           0       -0.931803    0.881881    0.555216
      4          8           0       -0.436765   -0.242219    1.248865
      5          6           0       -0.271684   -1.259403    0.255141
      6          6           0        1.199257   -1.351644   -0.210502
      7          6           0        2.001375   -0.068874    0.090499
      8          6           0        1.385805    1.222826   -0.405641
      9          6           0        0.144138    1.650600   -0.174573
     10          1           0       -2.075467   -1.569184   -1.010654
     11          1           0       -0.766713   -0.662566   -1.811279
     12          1           0       -1.478714    1.512517    1.263427
     13          1           0       -0.578782   -2.201183    0.717967
     14          1           0        1.696347   -2.188971    0.291317
     15          1           0        1.226365   -1.572780   -1.284395
     16          1           0        2.135496    0.000581    1.175864
     17          1           0        3.002048   -0.178464   -0.339006
     18          1           0        2.041362    1.871130   -0.983456
     19          1           0       -0.181252    2.607191   -0.576884
 ---------------------------------------------------------------------

 SCF Done:  E(RB3LYP) =  -423.197684354     A.U. after    1 cycles

 The electronic state is 1-A.
 Alpha  occ. eigenvalues --  -19.14391 -19.14216 -10.27551 -10.23629 -10.22840
 Alpha  occ. eigenvalues --  -10.18815 -10.18756 -10.18671 -10.17826  -1.08600
 Alpha  occ. eigenvalues --   -0.99042  -0.80466  -0.78954  -0.70709  -0.67570
 Alpha  occ. eigenvalues --   -0.62260  -0.57560  -0.54505  -0.52599  -0.48349
 Alpha  occ. eigenvalues --   -0.47395  -0.43925  -0.43436  -0.42435  -0.41069
 Alpha  occ. eigenvalues --   -0.39114  -0.37184  -0.36515  -0.33715  -0.32521
 Alpha  occ. eigenvalues --   -0.31777  -0.26924  -0.25840  -0.24875
 Alpha virt. eigenvalues --    0.00876   0.07866   0.10902   0.11154   0.12255
 Alpha virt. eigenvalues --    0.13408   0.14374   0.15498   0.16977   0.17481
 Alpha virt. eigenvalues --    0.17909   0.19431   0.20284   0.22713   0.24195

 Mulliken charges:
               1
     1  C   -0.113902
     2  O   -0.251412
     3  C    0.128735
     4  O   -0.246818
     5  C    0.078469
     6  C   -0.234887
     7  C   -0.239621
     8  C   -0.081935
     9  C   -0.049721
    10  H    0.113155
    11  H    0.099320
    12  H    0.094859
    13  H    0.088699
    14  H    0.100781
    15  H    0.101876
    16  H    0.130319
    17  H    0.095391
    18  H    0.093755
    19  H    0.092936
 Sum of Mulliken charges =   0.00000

 Dipole moment (field-independent basis, Debye):
    X=              1.3205    Y=             -0.7248    Z=             -0.8569  Tot=              1.7330
 Quadrupole moment (field-independent basis, Debye-Ang):
   XX=            -54.4367   YY=            -49.0689   ZZ=            -54.8851
   XY=              0.7332   XZ=             -0.9393   YZ=              1.1051

  Exact polarizability:  83.958  -3.009  79.058  -2.588  -0.040  61.161
 Approx polarizability: 125.099  -9.923 110.926  -5.063   0.941  96.999

                      1                      2                      3
                      A                      A                      A
 Frequencies --    129.3796               187.6184               276.6998
 Red. masses --      2.2626                 2.5885                 3.2940
 Frc consts  --      0.0223                 0.0537                 0.1486
 IR Inten    --      0.9581                 1.5557                 2.0742

                      4                      5                      6
                      A                      A                      A
 Frequencies --    320.9586               371.8736               426.5773
 Red. masses --      4.3096                 2.5162                 3.8238
 Frc consts  --      0.2616                 0.2050                 0.4100
 IR Inten    --      5.2068                 0.5050                 1.8720

                      7                      8                      9
                      A                      A                      A
 Frequencies --    514.4923               611.3339               679.2244
 Red. masses --      2.8505                 3.2725                 2.7464
 Frc consts  --      0.4446                 0.7206                 0.7465
 IR Inten    --      5.7473                 2.8967                 4.2385

                     10                     11                     12
                      A                      A                      A
 Frequencies --    706.1867               746.5656               808.5770
 Red. masses --      2.8860                 1.9049                 3.9391
 Frc consts  --      0.8480                 0.6256                 1.5174
 IR Inten    --      7.3042                12.5066                 4.2856

                     13                     14                     15
                      A                      A                      A
 Frequencies --    832.7455               865.0835               895.6973
 Red. masses --      3.8234                 2.5589                 2.7236
 Frc consts  --      1.5622                 1.1283                 1.2874
 IR Inten    --      3.8518                10.2810                13.3303

                     16                     17                     18
                      A                      A                      A
 Frequencies --    935.8144               953.8970               969.7434
 Red. masses --      2.8738                 3.3593                 2.6024
 Frc consts  --      1.4828                 1.8010                 1.4419
 IR Inten    --     62.3734                20.9612                11.4110

                     19                     20                     21
                      A                      A                      A
 Frequencies --   1004.0118              1006.2227              1039.8724
 Red. masses --      1.7042                 1.4682                 3.9862
 Frc consts  --      1.0122                 0.8758                 2.5396
 IR Inten    --      5.6958                 0.4480                53.6986

                     22                     23                     24
                      A                      A                      A
 Frequencies --   1067.1305              1095.6428              1103.3741
 Red. masses --      3.0851                 1.7770                 3.2568
 Frc consts  --      2.0699                 1.2568                 2.3361
 IR Inten    --      7.9253                 2.7513                15.2977

                     25                     26                     27
                      A                      A                      A
 Frequencies --   1138.8090              1199.3234              1224.0651
 Red. masses --      4.3607                 1.1521                 1.1104
 Frc consts  --      3.3320                 0.9763                 0.9803
 IR Inten    --    127.8056                 3.0571                 2.4859

                     28                     29                     30
                      A                      A                      A
 Frequencies --   1244.8665              1276.9781              1306.6330
 Red. masses --      1.1320                 1.2302                 1.2352
 Frc consts  --      1.0336                 1.1820                 1.2425
 IR Inten    --      2.0865                 5.1730                 0.9666

                     31                     32                     33
                      A                      A                      A
 Frequencies --   1332.3184              1349.3059              1358.9964
 Red. masses --      1.2826                 1.3473                 1.2794
 Frc consts  --      1.3414                 1.4452                 1.3922
 IR Inten    --      3.4922                 5.3054                 2.7920

                     34                     35                     36
                      A                      A                      A
 Frequencies --   1370.3827              1384.2986              1398.1746
 Red. masses --      1.2739                 1.4012                 1.4232
 Frc consts  --      1.4095                 1.5821                 1.6392
 IR Inten    --      7.5023                 3.0165                 8.3866

                     37                     38                     39
                      A                      A                      A
 Frequencies --   1421.7882              1478.5816              1495.4152
 Red. masses --      1.4972                 1.0896                 1.0909
 Frc consts  --      1.7832                 1.4035                 1.4374
 IR Inten    --      4.4243                 3.4859                 2.2161

                     40                     41                     42
                      A                      A                      A
 Frequencies --   1522.6856              1720.0260              3018.1461
 Red. masses --      1.0888                 6.9835                 1.0659
 Frc consts  --      1.4873                12.1728                 5.7205
 IR Inten    --      1.6241                 3.8889                25.1614

                     43                     44                     45
                      A                      A                      A
 Frequencies --   3030.6078              3040.1337              3060.1336
 Red. masses --      1.0609                 1.0630                 1.0904
 Frc consts  --      5.7412                 5.7888                 6.0161
 IR Inten    --     40.6965                16.3925                19.1332

                     46                     47                     48
                      A                      A                      A
 Frequencies --   3066.2377              3073.5917              3081.5460
 Red. masses --      1.0883                 1.0949                 1.1027
 Frc consts  --      6.0287                 6.0944                 6.1694
 IR Inten    --     44.9371                40.0290                21.1711

                     49                     50                     51
                      A                      A                      A
 Frequencies --   3094.6465              3139.2175              3164.5967
 Red. masses --      1.0990                 1.0841                 1.0953
 Frc consts  --      6.2013                 6.2945                 6.4626
 IR Inten    --     50.6042                11.1309                26.6754

 - Thermochemistry -
 -------------------
 Temperature   298.150 Kelvin.  Pressure   1.00000 Atm.
 Atom     1 has atomic number  6 and mass  12.00000

 Molecular mass:   126.06808 amu.
 Principal axes and moments of inertia in atomic units:
                           1         2         3
     Eigenvalues --   694.67845 938.786661245.31418
           X            1.00000  -0.00172  -0.00251
           Y            0.00175   0.99989   0.01459
           Z            0.00248  -0.01459   0.99989
 This molecule is an asymmetric top.
 Rotational symmetry number  1.
 Warning -- assumption of classical behavior for rotation
           may cause significant error
 Rotational temperatures (Kelvin)      0.12468     0.09226     0.06955
 Rotational constants (GHZ):           2.59795     1.92242     1.44923
 Zero-point vibrational energy     427905.6 (Joules/Mol)
                                  102.27189 (Kcal/Mol)
 Warning -- explicit consideration of   8 degrees of freedom as
           vibrations may cause significant error
 Vibrational temperatures:    186.15   269.94   398.11   461.79   535.04
          (Kelvin)            613.75   740.24   879.57   977.25  1016.04
                             1074.14  1163.36  1198.13  1244.66  1288.71
                             1346.43  1372.44  1395.24  1444.55  1447.73
                             1496.14  1535.36  1576.38  1587.51  1638.49
                             1725.56  1761.15  1791.08  1837.28  1879.95
                             1916.91  1941.35  1955.29  1971.67  1991.69
                             2011.66  2045.63  2127.35  2151.57  2190.80
                             2474.73  4342.43  4360.36  4374.07  4402.84
                             4411.63  4422.21  4433.65  4452.50  4516.63
                             4553.14

 Zero-point correction=                           0.162981 (Hartree/Particle)
 Thermal correction to Energy=                    0.169977
 Thermal correction to Enthalpy=                  0.170921
 Thermal correction to Gibbs Free Energy=         0.131756
 Sum of electronic and zero-point Energies=           -423.034704
 Sum of electronic and thermal Energies=              -423.027707
 Sum of electronic and thermal Enthalpies=            -423.026763
 Sum of electronic and thermal Free Energies=         -423.065929

                     E (Thermal)             CV                S
                      KCal/Mol        Cal/Mol-Kelvin    Cal/Mol-Kelvin
 Total                  106.662             28.425             82.431
 Electronic               0.000              0.000              0.000
 Translational            0.889              2.981             40.409
 Rotational               0.889              2.981             28.187
 Vibrational            104.885             22.463             13.835
 Vibration     1          0.612              1.924              2.955
 Vibration     2          0.632              1.857              2.251
 Vibration     3          0.678              1.717              1.554
 Vibration     4          0.706              1.633              1.305
 Vibration     5          0.744              1.530              1.072
 Vibration     6          0.788              1.412              0.870
 Vibration     7          0.870              1.218              0.623
 Vibration     8          0.970              1.008              0.431

 Optimization completed.
    -- Stationary point found.
 Normal termination of Gaussian 09 at Mon Jan 27 13:11:22 2020.
