 Gaussian 09, Revision D.01,
 Gaussian 09:  ES64L-G09RevD.01 24-Apr-2013

 -----------------------------
 # b3lyp 6-31G(2df,p) opt Freq
 -----------------------------

 -----
 titel
 -----
 Symbolic Z-matrix:
 Charge =  0 Multiplicity = 1

 SCF Done:  E(RB3LYP) =  -423.148623169     A.U. after   14 cycles
 Optimization completed.
    -- Stationary point found.
 Normal termination of Gaussian 09 at Mon Jan 27 12:03:14 2020.

 ----------------------------------------------------------------------
 #N Geom=AllCheck Guess=TCheck SCRF=Check GenChk RB3LYP/6-31G(2df,p) Fr
 eq
 ----------------------------------------------------------------------

 Structure from the checkpoint file:  "/scratch/puck/g09_11671e3d-7e66-4ef1-b861-e0abd6321435/Gau-24370.chk"
 -----
 titel
 -----
 Charge =  0 Multiplicity = 1

                         Standard orientation:
 ---------------------------------------------------------------------
 Center     Atomic      Atomic             Coordinates (Angstroms)
 Number     Number       Type             X           Y           Z
 ---------------------------------------------------------------------
      1          6           0        2.163594   -0.234529   -0.685240
      2          8           0        2.113542   -0.135410    0.745561
      3          6           0        0.894046   -0.003824    0.013060
      4          6           0        0.261566    1.387585    0.113909
      5          8           0       -1.105591    1.413321   -0.289115
      6          6           0       -1.791507    0.180759   -0.107347
      7          6           0       -1.261364   -0.619455    1.114512
      8          6           0       -0.137107   -1.104801    0.149902
      9          6           0       -1.163512   -0.916110   -1.007741
     10          1           0        2.662735    0.590730   -1.191971
     11          1           0        2.398601   -1.225142   -1.074491
     12          1           0        0.352949    1.709319    1.161401
     13          1           0        0.790904    2.119740   -0.502008
     14          1           0       -2.855077    0.409031   -0.191438
     15          1           0       -0.987304   -0.073760    2.020136
     16          1           0       -1.944428   -1.431718    1.372812
     17          1           0        0.333644   -2.076424    0.310464
     18          1           0       -0.792650   -0.597810   -1.985302
     19          1           0       -1.817282   -1.785007   -1.117497
 ---------------------------------------------------------------------

 SCF Done:  E(RB3LYP) =  -423.148623169     A.U. after    1 cycles

 The electronic state is 1-A.
 Alpha  occ. eigenvalues --  -19.15073 -19.14007 -10.24327 -10.23724 -10.23316
 Alpha  occ. eigenvalues --  -10.23076 -10.19823 -10.18686 -10.18487  -1.07229
 Alpha  occ. eigenvalues --   -1.03426  -0.84913  -0.74806  -0.67568  -0.65724
 Alpha  occ. eigenvalues --   -0.64176  -0.60996  -0.52500  -0.51706  -0.49263
 Alpha  occ. eigenvalues --   -0.48499  -0.45448  -0.43303  -0.41685  -0.40091
 Alpha  occ. eigenvalues --   -0.38806  -0.38250  -0.37407  -0.33527  -0.33407
 Alpha  occ. eigenvalues --   -0.29278  -0.29228  -0.26330  -0.24393
 Alpha virt. eigenvalues --    0.08048   0.09160   0.09989   0.10529   0.11422
 Alpha virt. eigenvalues --    0.13225   0.13841   0.14835   0.16408   0.17658
 Alpha virt. eigenvalues --    0.18205   0.18546   0.20118   0.20356   0.21732

 Mulliken charges:
               1
     1  C   -0.250332
     2  O   -0.291978
     3  C    0.426648
     4  C   -0.153677
     5  O   -0.274394
     6  C    0.133381
     7  C   -0.268591
     8  C   -0.101330
     9  C   -0.238914
    10  H    0.113654
    11  H    0.112933
    12  H    0.113888
    13  H    0.112348
    14  H    0.078998
    15  H    0.109966
    16  H    0.106071
    17  H    0.070205
    18  H    0.100227
    19  H    0.100897
 Sum of Mulliken charges =   0.00000

 Dipole moment (field-independent basis, Debye):
    X=             -0.5653    Y=             -1.1382    Z=             -0.9509  Tot=              1.5872
 Quadrupole moment (field-independent basis, Debye-Ang):
   XX=            -54.1401   YY=            -53.2436   ZZ=            -53.4428
   XY=              3.3891   XZ=             -4.8207   YZ=              1.0595

  Exact polarizability:  84.062   2.941  70.895  -4.624   1.325  67.749
 Approx polarizability: 114.779   1.576 103.307  -2.466   0.858 105.997

                      1                      2                      3
                      A                      A                      A
 Frequencies --    110.9693               207.4292               326.9171
 Red. masses --      3.2029                 2.9659                 4.0937
 Frc consts  --      0.0232                 0.0752                 0.2578
 IR Inten    --      2.9846                 3.7774                 7.1504

                      4                      5                      6
                      A                      A                      A
 Frequencies --    342.2949               397.9125               411.7855
 Red. masses --      2.2245                 4.4014                 3.0183
 Frc consts  --      0.1536                 0.4106                 0.3015
 IR Inten    --      1.2714                 0.0468                 3.5897

                      7                      8                      9
                      A                      A                      A
 Frequencies --    419.2862               510.9230               548.2421
 Red. masses --      2.1544                 2.6111                 4.9329
 Frc consts  --      0.2232                 0.4016                 0.8736
 IR Inten    --      0.3555                 3.5657                 1.2164

                     10                     11                     12
                      A                      A                      A
 Frequencies --    710.1542               803.7027               833.0474
 Red. masses --      3.0344                 1.8929                 2.9281
 Frc consts  --      0.9016                 0.7204                 1.1972
 IR Inten    --      5.9237                 1.3281                10.4442

                     13                     14                     15
                      A                      A                      A
 Frequencies --    850.7841               890.8954               903.4992
 Red. masses --      3.4297                 2.2053                 2.3932
 Frc consts  --      1.4627                 1.0313                 1.1510
 IR Inten    --     33.3819                 0.6088                11.5661

                     16                     17                     18
                      A                      A                      A
 Frequencies --    916.1578               918.9247               950.7052
 Red. masses --      1.5052                 4.4839                 2.6326
 Frc consts  --      0.7444                 2.2308                 1.4019
 IR Inten    --      0.4877                21.0915                14.3300

                     19                     20                     21
                      A                      A                      A
 Frequencies --    986.1926              1021.3658              1056.5661
 Red. masses --      1.7652                 2.3823                 1.5489
 Frc consts  --      1.0115                 1.4643                 1.0187
 IR Inten    --      5.9417                14.3351                15.4678

                     22                     23                     24
                      A                      A                      A
 Frequencies --   1074.4369              1084.6058              1106.7690
 Red. masses --      1.6685                 1.6010                 2.9470
 Frc consts  --      1.1349                 1.1096                 2.1269
 IR Inten    --     34.1890                 2.4342                18.7878

                     25                     26                     27
                      A                      A                      A
 Frequencies --   1125.9389              1135.4701              1161.8915
 Red. masses --      1.3017                 1.5223                 1.3945
 Frc consts  --      0.9722                 1.1564                 1.1092
 IR Inten    --      2.0427                 3.4282                 3.5386

                     28                     29                     30
                      A                      A                      A
 Frequencies --   1187.1532              1237.9124              1248.7835
 Red. masses --      2.1951                 1.3553                 1.2221
 Frc consts  --      1.8227                 1.2237                 1.1228
 IR Inten    --     53.7202                 0.0764                 4.9876

                     31                     32                     33
                      A                      A                      A
 Frequencies --   1263.9398              1269.9133              1281.3689
 Red. masses --      1.6527                 1.6239                 1.8020
 Frc consts  --      1.5556                 1.5429                 1.7432
 IR Inten    --     10.5686                 0.6425                15.9138

                     34                     35                     36
                      A                      A                      A
 Frequencies --   1316.3413              1354.4348              1389.4690
 Red. masses --      2.3862                 1.2392                 1.4742
 Frc consts  --      2.4360                 1.3394                 1.6769
 IR Inten    --      0.1854                 2.7936                14.9516

                     37                     38                     39
                      A                      A                      A
 Frequencies --   1440.6013              1468.8713              1495.3617
 Red. masses --      2.0413                 1.0966                 1.1153
 Frc consts  --      2.4960                 1.3941                 1.4693
 IR Inten    --      3.8925                 3.6344                 3.9052

                     40                     41                     42
                      A                      A                      A
 Frequencies --   1515.1944              1531.4902              2999.2349
 Red. masses --      1.0930                 1.4151                 1.0696
 Frc consts  --      1.4784                 1.9555                 5.6687
 IR Inten    --      1.0602                 4.1778                36.3805

                     43                     44                     45
                      A                      A                      A
 Frequencies --   3058.4416              3069.0662              3074.9816
 Red. masses --      1.0569                 1.0585                 1.0510
 Frc consts  --      5.8247                 5.8744                 5.8551
 IR Inten    --     30.0372                15.9015                23.0679

                     46                     47                     48
                      A                      A                      A
 Frequencies --   3083.9390              3094.3378              3102.6764
 Red. masses --      1.0940                 1.0879                 1.0910
 Frc consts  --      6.1303                 6.1373                 6.1877
 IR Inten    --     33.3648                39.1060                41.0180

                     49                     50                     51
                      A                      A                      A
 Frequencies --   3120.1487              3125.7538              3161.1495
 Red. masses --      1.1091                 1.1082                 1.1192
 Frc consts  --      6.3615                 6.3796                 6.5897
 IR Inten    --     23.3176                28.1700                23.8160

 - Thermochemistry -
 -------------------
 Temperature   298.150 Kelvin.  Pressure   1.00000 Atm.
 Atom     1 has atomic number  6 and mass  12.00000

 Molecular mass:   126.06808 amu.
 Principal axes and moments of inertia in atomic units:
                           1         2         3
     Eigenvalues --   585.240521148.650541313.57374
           X            0.99890   0.03698  -0.02877
           Y           -0.03590   0.99867   0.03710
           Z            0.03011  -0.03603   0.99890
 This molecule is an asymmetric top.
 Rotational symmetry number  1.
 Warning -- assumption of classical behavior for rotation
           may cause significant error
 Rotational temperatures (Kelvin)      0.14800     0.07540     0.06594
 Rotational constants (GHZ):           3.08376     1.57118     1.37392
 Zero-point vibrational energy     422864.5 (Joules/Mol)
                                  101.06705 (Kcal/Mol)
 Warning -- explicit consideration of   9 degrees of freedom as
           vibrations may cause significant error
 Vibrational temperatures:    159.66   298.44   470.36   492.49   572.51
          (Kelvin)            592.47   603.26   735.10   788.80  1021.75
                             1156.35  1198.57  1224.09  1281.80  1299.93
                             1318.15  1322.13  1367.85  1418.91  1469.52
                             1520.16  1545.87  1560.50  1592.39  1619.97
                             1633.69  1671.70  1708.05  1781.08  1796.72
                             1818.53  1827.12  1843.60  1893.92  1948.73
                             1999.13  2072.70  2113.38  2151.49  2180.02
                             2203.47  4315.22  4400.41  4415.70  4424.21
                             4437.09  4452.06  4464.05  4489.19  4497.26
                             4548.18

 Zero-point correction=                           0.161061 (Hartree/Particle)
 Thermal correction to Energy=                    0.168177
 Thermal correction to Enthalpy=                  0.169121
 Thermal correction to Gibbs Free Energy=         0.129737
 Sum of electronic and zero-point Energies=           -422.987563
 Sum of electronic and thermal Energies=              -422.980446
 Sum of electronic and thermal Enthalpies=            -422.979502
 Sum of electronic and thermal Free Energies=         -423.018886

                     E (Thermal)             CV                S
                      KCal/Mol        Cal/Mol-Kelvin    Cal/Mol-Kelvin
 Total                  105.533             29.178             82.892
 Electronic               0.000              0.000              0.000
 Translational            0.889              2.981             40.409
 Rotational               0.889              2.981             28.270
 Vibrational            103.755             23.217             14.213
 Vibration     1          0.607              1.940              3.252
 Vibration     2          0.641              1.829              2.066
 Vibration     3          0.711              1.622              1.275
 Vibration     4          0.721              1.591              1.201
 Vibration     5          0.764              1.475              0.970
 Vibration     6          0.776              1.445              0.920
 Vibration     7          0.782              1.428              0.894
 Vibration     8          0.866              1.226              0.631
 Vibration     9          0.903              1.144              0.548

 Normal termination of Gaussian 09 at Mon Jan 27 12:56:09 2020.
