 Gaussian 09, Revision D.01,
 Gaussian 09:  ES64L-G09RevD.01 24-Apr-2013

 -----------------------------
 # b3lyp 6-31G(2df,p) opt Freq
 -----------------------------

 -----
 titel
 -----
 Symbolic Z-matrix:
 Charge =  0 Multiplicity = 1

 SCF Done:  E(RB3LYP) =  -423.161077144     A.U. after   15 cycles
 Optimization completed.
    -- Stationary point found.
 Normal termination of Gaussian 09 at Mon Jan 27 14:11:15 2020.

 ----------------------------------------------------------------------
 #N Geom=AllCheck Guess=TCheck SCRF=Check GenChk RB3LYP/6-31G(2df,p) Fr
 eq
 ----------------------------------------------------------------------

 Structure from the checkpoint file:  "/scratch/puck/g09_c049e116-8da1-4027-8de1-a5744d76079a/Gau-70760.chk"
 -----
 titel
 -----
 Charge =  0 Multiplicity = 1

                         Standard orientation:
 ---------------------------------------------------------------------
 Center     Atomic      Atomic             Coordinates (Angstroms)
 Number     Number       Type             X           Y           Z
 ---------------------------------------------------------------------
      1          6           0        0.848866    2.034635   -0.031641
      2          6           0        0.293757    0.647106   -0.400631
      3          6           0       -1.031258    0.368543    0.357196
      4          8           0       -1.997627    1.382961    0.101057
      5          6           0       -1.559186   -0.962593    0.042054
      6          6           0       -1.992063   -2.041378   -0.265325
      7          6           0        1.372884   -0.421991   -0.181925
      8          6           0        1.618078   -0.915057    1.234309
      9          8           0        2.025595   -0.828646   -1.114632
     10          1           0        0.084248    2.794639   -0.204505
     11          1           0        1.137992    2.085222    1.023829
     12          1           0        1.727611    2.269275   -0.637911
     13          1           0        0.076649    0.624540   -1.474243
     14          1           0       -0.844779    0.434980    1.435960
     15          1           0       -2.340195    1.238837   -0.788477
     16          1           0       -2.375445   -2.997910   -0.524016
     17          1           0        0.784109   -1.553868    1.546680
     18          1           0        2.539455   -1.497868    1.258513
     19          1           0        1.680138   -0.087956    1.948554
 ---------------------------------------------------------------------

 SCF Done:  E(RB3LYP) =  -423.161077145     A.U. after    1 cycles

 The electronic state is 1-A.
 Alpha  occ. eigenvalues --  -19.15495 -19.12704 -10.27026 -10.26969 -10.20267
 Alpha  occ. eigenvalues --  -10.19439 -10.19098 -10.18901 -10.18696  -1.03996
 Alpha  occ. eigenvalues --   -1.03699  -0.81667  -0.76372  -0.73571  -0.69684
 Alpha  occ. eigenvalues --   -0.63475  -0.56243  -0.53694  -0.51243  -0.48581
 Alpha  occ. eigenvalues --   -0.47784  -0.44790  -0.43411  -0.41898  -0.40328
 Alpha  occ. eigenvalues --   -0.39143  -0.38419  -0.36236  -0.35954  -0.34258
 Alpha  occ. eigenvalues --   -0.30363  -0.28404  -0.27816  -0.24053
 Alpha virt. eigenvalues --   -0.01481   0.02426   0.04021   0.08193   0.08846
 Alpha virt. eigenvalues --    0.11707   0.12555   0.13293   0.15206   0.15934
 Alpha virt. eigenvalues --    0.17053   0.17983   0.19380   0.19956   0.22390

 Mulliken charges:
               1
     1  C   -0.420329
     2  C   -0.082830
     3  C   -0.055837
     4  O   -0.415982
     5  C    0.281644
     6  C   -0.431432
     7  C    0.385562
     8  C   -0.489301
     9  O   -0.304973
    10  H    0.140668
    11  H    0.118797
    12  H    0.132094
    13  H    0.096453
    14  H    0.119069
    15  H    0.288017
    16  H    0.206637
    17  H    0.154649
    18  H    0.142897
    19  H    0.134198
 Sum of Mulliken charges =   0.00000

 Dipole moment (field-independent basis, Debye):
    X=             -1.1314    Y=              0.1661    Z=              0.9481  Tot=              1.4854
 Quadrupole moment (field-independent basis, Debye-Ang):
   XX=            -57.0241   YY=            -51.0680   ZZ=            -53.2938
   XY=              5.6295   XZ=              8.2785   YZ=             -2.8001

  Exact polarizability:  77.284   5.516  88.241   2.553   2.632  66.377
 Approx polarizability: 105.531   7.411 133.512  -0.522  12.572 106.681

                      1                      2                      3
                      A                      A                      A
 Frequencies --     54.8663                71.5298               117.5523
 Red. masses --      4.8484                 4.0851                 3.8548
 Frc consts  --      0.0086                 0.0123                 0.0314
 IR Inten    --      4.5525                 1.1228                 0.5782

                      4                      5                      6
                      A                      A                      A
 Frequencies --    139.5967               195.7256               206.4691
 Red. masses --      1.0648                 2.5484                 1.4977
 Frc consts  --      0.0122                 0.0575                 0.0376
 IR Inten    --      0.0229                 2.9921                 1.6925

                      7                      8                      9
                      A                      A                      A
 Frequencies --    225.1637               256.6463               289.5041
 Red. masses --      1.9871                 2.6129                 1.7356
 Frc consts  --      0.0594                 0.1014                 0.0857
 IR Inten    --      3.0684                 0.8783                60.7237

                     10                     11                     12
                      A                      A                      A
 Frequencies --    307.8740               368.4372               457.6283
 Red. masses --      2.0812                 4.9267                 4.0064
 Frc consts  --      0.1162                 0.3940                 0.4943
 IR Inten    --     19.5951                31.0589                 0.2778

                     13                     14                     15
                      A                      A                      A
 Frequencies --    499.4491               559.9830               588.5227
 Red. masses --      3.7756                 4.1867                 4.5378
 Frc consts  --      0.5549                 0.7735                 0.9260
 IR Inten    --      9.7111                15.9623                 2.3754

                     16                     17                     18
                      A                      A                      A
 Frequencies --    602.9271               637.6450               683.2464
 Red. masses --      2.6028                 1.2241                 1.2485
 Frc consts  --      0.5575                 0.2932                 0.3434
 IR Inten    --      1.8299                42.5369                32.9721

                     19                     20                     21
                      A                      A                      A
 Frequencies --    769.3583               869.8489               933.6697
 Red. masses --      2.7954                 2.3082                 1.6401
 Frc consts  --      0.9749                 1.0290                 0.8424
 IR Inten    --      3.3383                 7.6667                10.6900

                     22                     23                     24
                      A                      A                      A
 Frequencies --    968.8538              1003.5084              1044.6502
 Red. masses --      2.7467                 1.8876                 2.9809
 Frc consts  --      1.5191                 1.1200                 1.9166
 IR Inten    --     41.6090                 0.3024                88.7410

                     25                     26                     27
                      A                      A                      A
 Frequencies --   1075.0454              1102.4284              1121.2770
 Red. masses --      2.2934                 2.3293                 2.0929
 Frc consts  --      1.5616                 1.6679                 1.5504
 IR Inten    --     28.9786                10.9824                 5.6956

                     28                     29                     30
                      A                      A                      A
 Frequencies --   1229.5320              1249.0236              1294.0526
 Red. masses --      2.2494                 1.4947                 1.3599
 Frc consts  --      2.0035                 1.3738                 1.3417
 IR Inten    --     82.6144                 4.6024                10.6003

                     31                     32                     33
                      A                      A                      A
 Frequencies --   1310.2042              1362.1143              1380.1848
 Red. masses --      1.4180                 1.2838                 1.3218
 Frc consts  --      1.4342                 1.4034                 1.4835
 IR Inten    --      0.9340                 1.2859                39.1221

                     34                     35                     36
                      A                      A                      A
 Frequencies --   1399.0464              1421.1251              1466.3684
 Red. masses --      1.2051                 1.2031                 1.0570
 Frc consts  --      1.3898                 1.4316                 1.3391
 IR Inten    --      4.9929                48.5432                10.6483

                     37                     38                     39
                      A                      A                      A
 Frequencies --   1478.0183              1493.0271              1502.5389
 Red. masses --      1.0493                 1.0513                 1.0461
 Frc consts  --      1.3505                 1.3807                 1.3914
 IR Inten    --      6.4232                 6.9133                 6.8055

                     40                     41                     42
                      A                      A                      A
 Frequencies --   1809.5640              2231.3394              3036.0463
 Red. masses --     10.7952                 5.8984                 1.0706
 Frc consts  --     20.8271                17.3028                 5.8140
 IR Inten    --    149.0654                 2.2370                 3.2903

                     43                     44                     45
                      A                      A                      A
 Frequencies --   3040.4815              3042.6192              3058.3453
 Red. masses --      1.0448                 1.0417                 1.0823
 Frc consts  --      5.6908                 5.6816                 5.9647
 IR Inten    --      4.8673                11.6395                23.5737

                     46                     47                     48
                      A                      A                      A
 Frequencies --   3103.8226              3112.8776              3136.2226
 Red. masses --      1.0977                 1.0986                 1.1020
 Frc consts  --      6.2303                 6.2722                 6.3860
 IR Inten    --      7.7226                23.7573                 7.3177

                     49                     50                     51
                      A                      A                      A
 Frequencies --   3152.7003              3500.8434              3802.6835
 Red. masses --      1.1020                 1.1627                 1.0662
 Frc consts  --      6.4538                 8.3960                 9.0838
 IR Inten    --      8.8396                65.6199                28.6521

 - Thermochemistry -
 -------------------
 Temperature   298.150 Kelvin.  Pressure   1.00000 Atm.
 Atom     1 has atomic number  6 and mass  12.00000

 Molecular mass:   126.06808 amu.
 Principal axes and moments of inertia in atomic units:
                           1         2         3
     Eigenvalues --   933.099761308.956361834.85439
           X            0.99794   0.05232   0.03705
           Y           -0.05140   0.99836  -0.02521
           Z           -0.03831   0.02325   0.99900
 This molecule is an asymmetric top.
 Rotational symmetry number  1.
 Warning -- assumption of classical behavior for rotation
           may cause significant error
 Rotational temperatures (Kelvin)      0.09282     0.06617     0.04720
 Rotational constants (GHZ):           1.93414     1.37876     0.98359
 Zero-point vibrational energy     405319.9 (Joules/Mol)
                                   96.87377 (Kcal/Mol)
 Warning -- explicit consideration of  16 degrees of freedom as
           vibrations may cause significant error
 Vibrational temperatures:     78.94   102.92   169.13   200.85   281.61
          (Kelvin)            297.06   323.96   369.26   416.53   442.96
                              530.10   658.42   718.59   805.69   846.75
                              867.48   917.43   983.04  1106.93  1251.52
                             1343.34  1393.96  1443.82  1503.02  1546.75
                             1586.15  1613.27  1769.02  1797.06  1861.85
                             1885.09  1959.78  1985.78  2012.91  2044.68
                             2109.77  2126.54  2148.13  2161.82  2603.56
                             3210.40  4368.19  4374.57  4377.64  4400.27
                             4465.70  4478.73  4512.32  4536.03  5036.93
                             5471.21

 Zero-point correction=                           0.154378 (Hartree/Particle)
 Thermal correction to Energy=                    0.165226
 Thermal correction to Enthalpy=                  0.166170
 Thermal correction to Gibbs Free Energy=         0.118229
 Sum of electronic and zero-point Energies=           -423.006699
 Sum of electronic and thermal Energies=              -422.995851
 Sum of electronic and thermal Enthalpies=            -422.994907
 Sum of electronic and thermal Free Energies=         -423.042849

                     E (Thermal)             CV                S
                      KCal/Mol        Cal/Mol-Kelvin    Cal/Mol-Kelvin
 Total                  103.681             38.583            100.902
 Electronic               0.000              0.000              0.000
 Translational            0.889              2.981             40.409
 Rotational               0.889              2.981             29.195
 Vibrational            101.904             32.621             31.298
 Vibration     1          0.596              1.976              4.634
 Vibration     2          0.598              1.968              4.111
 Vibration     3          0.608              1.935              3.140
 Vibration     4          0.615              1.914              2.809
 Vibration     5          0.636              1.846              2.173
 Vibration     6          0.641              1.831              2.075
 Vibration     7          0.650              1.803              1.917
 Vibration     8          0.666              1.752              1.684
 Vibration     9          0.686              1.693              1.477
 Vibration    10          0.698              1.659              1.374
 Vibration    11          0.741              1.537              1.086
 Vibration    12          0.816              1.344              0.773
 Vibration    13          0.855              1.251              0.660
 Vibration    14          0.916              1.118              0.524
 Vibration    15          0.946              1.056              0.470
 Vibration    16          0.961              1.026              0.445

 Normal termination of Gaussian 09 at Mon Jan 27 14:59:16 2020.
