 Gaussian 09, Revision D.01,
 Gaussian 09:  ES64L-G09RevD.01 24-Apr-2013

 -----------------------------
 # b3lyp 6-31G(2df,p) opt Freq
 -----------------------------

 -----
 titel
 -----
 Symbolic Z-matrix:
 Charge =  0 Multiplicity = 1

 SCF Done:  E(RB3LYP) =  -423.111621754     A.U. after   14 cycles
 SCF Done:  E(RB3LYP) =  -423.111621610     A.U. after    7 cycles
 Optimization completed.
    -- Stationary point found.
 Normal termination of Gaussian 09 at Mon Jan 27 22:13:28 2020.

 ----------------------------------------------------------------------
 #N Geom=AllCheck Guess=TCheck SCRF=Check GenChk RB3LYP/6-31G(2df,p) Fr
 eq
 ----------------------------------------------------------------------

 Structure from the checkpoint file:  "/scratch/puck/g09_9958aadf-7648-448c-843a-acbf9a62ae11/Gau-85615.chk"
 -----
 titel
 -----
 Charge =  0 Multiplicity = 1

                         Standard orientation:
 ---------------------------------------------------------------------
 Center     Atomic      Atomic             Coordinates (Angstroms)
 Number     Number       Type             X           Y           Z
 ---------------------------------------------------------------------
      1          6           0        2.370083   -0.105749   -0.524202
      2          6           0        0.965882   -0.287322   -0.053158
      3          8           0        0.346729   -1.584002   -0.258631
      4          6           0        0.361862   -0.999003    1.068739
      5          6           0       -0.779535    0.036106    1.199765
      6          6           0       -1.542902    0.252967   -0.086926
      7          8           0       -2.040095   -0.703266   -0.957386
      8          6           0       -0.147288    0.819608    0.005769
      9          6           0        0.186728    2.280709   -0.103751
     10          1           0        2.965641   -0.989134   -0.279866
     11          1           0        2.401562    0.040858   -1.609830
     12          1           0        2.829268    0.768981   -0.053579
     13          1           0        0.795405   -1.600372    1.859220
     14          1           0       -1.106465    0.422111    2.158298
     15          1           0       -2.284309    1.042612    0.030450
     16          1           0       -1.352635   -1.381592   -1.013206
     17          1           0        1.017638    2.564110    0.553813
     18          1           0        0.467194    2.551458   -1.128978
     19          1           0       -0.675344    2.895222    0.174397
 ---------------------------------------------------------------------

 SCF Done:  E(RB3LYP) =  -423.111621610     A.U. after    1 cycles

 The electronic state is 1-A.
 Alpha  occ. eigenvalues --  -19.16127 -19.12007 -10.25004 -10.24393 -10.23851
 Alpha  occ. eigenvalues --  -10.20113 -10.19400 -10.19218 -10.18732  -1.08272
 Alpha  occ. eigenvalues --   -1.00900  -0.86545  -0.75642  -0.72392  -0.67911
 Alpha  occ. eigenvalues --   -0.62204  -0.58836  -0.52720  -0.50549  -0.49224
 Alpha  occ. eigenvalues --   -0.45835  -0.43836  -0.42480  -0.41357  -0.40816
 Alpha  occ. eigenvalues --   -0.39517  -0.38662  -0.37853  -0.35390  -0.34073
 Alpha  occ. eigenvalues --   -0.33288  -0.26624  -0.23636  -0.22698
 Alpha virt. eigenvalues --    0.05597   0.08684   0.09711   0.10611   0.12272
 Alpha virt. eigenvalues --    0.13151   0.13658   0.14592   0.15027   0.15763
 Alpha virt. eigenvalues --    0.16803   0.18236   0.20581   0.21392   0.22578

 Mulliken charges:
               1
     1  C   -0.505456
     2  C    0.368911
     3  O   -0.320233
     4  C   -0.045357
     5  C   -0.225173
     6  C    0.101778
     7  O   -0.429796
     8  C    0.179298
     9  C   -0.495495
    10  H    0.137626
    11  H    0.135910
    12  H    0.131406
    13  H    0.111849
    14  H    0.090048
    15  H    0.103852
    16  H    0.293617
    17  H    0.116258
    18  H    0.126184
    19  H    0.124772
 Sum of Mulliken charges =   0.00000

 Dipole moment (field-independent basis, Debye):
    X=              2.3877    Y=              1.5130    Z=              1.6032  Tot=              3.2497
 Quadrupole moment (field-independent basis, Debye-Ang):
   XX=            -55.2790   YY=            -52.9805   ZZ=            -52.0918
   XY=             -2.1623   XZ=             -2.6108   YZ=             -1.3996

  Exact polarizability:  79.682  -0.666  75.960  -2.714  -2.819  68.807
 Approx polarizability: 110.366   2.282 111.733  -2.637  -2.372 111.102

                      1                      2                      3
                      A                      A                      A
 Frequencies --    142.7244               193.6080               197.1038
 Red. masses --      2.8122                 1.1419                 1.2352
 Frc consts  --      0.0338                 0.0252                 0.0283
 IR Inten    --      0.2134                 0.0390                 0.1084

                      4                      5                      6
                      A                      A                      A
 Frequencies --    222.4899               238.3448               286.5154
 Red. masses --      2.7963                 1.9209                 4.9051
 Frc consts  --      0.0816                 0.0643                 0.2372
 IR Inten    --      0.2598                 0.9329                 3.3498

                      7                      8                      9
                      A                      A                      A
 Frequencies --    359.3901               363.9517               464.5769
 Red. masses --      3.6322                 2.4886                 7.1892
 Frc consts  --      0.2764                 0.1942                 0.9142
 IR Inten    --      4.8160                 0.8100                10.5349

                     10                     11                     12
                      A                      A                      A
 Frequencies --    526.3259               564.8926               595.7492
 Red. masses --      2.3562                 1.5730                 3.6309
 Frc consts  --      0.3846                 0.2957                 0.7593
 IR Inten    --      6.4569                19.9541                 9.8333

                     13                     14                     15
                      A                      A                      A
 Frequencies --    634.5497               672.8841               742.6423
 Red. masses --      2.3524                 4.5115                 4.2639
 Frc consts  --      0.5581                 1.2035                 1.3855
 IR Inten    --     41.7107                 6.9422                11.2765

                     16                     17                     18
                      A                      A                      A
 Frequencies --    793.5959               848.8473               874.6604
 Red. masses --      4.2376                 2.8288                 2.5107
 Frc consts  --      1.5724                 1.2009                 1.1317
 IR Inten    --      6.5592                41.9059                 8.4713

                     19                     20                     21
                      A                      A                      A
 Frequencies --    885.2974               929.9116               961.4338
 Red. masses --      2.3444                 1.5504                 1.7420
 Frc consts  --      1.0826                 0.7899                 0.9487
 IR Inten    --      7.3619                13.4798                 4.0851

                     22                     23                     24
                      A                      A                      A
 Frequencies --    980.4575              1025.4958              1076.7151
 Red. masses --      1.6969                 1.7251                 1.5279
 Frc consts  --      0.9611                 1.0689                 1.0436
 IR Inten    --     17.4728                 0.6486                 4.2852

                     25                     26                     27
                      A                      A                      A
 Frequencies --   1091.9512              1106.9335              1144.2107
 Red. masses --      1.6114                 1.8849                 2.0410
 Frc consts  --      1.1320                 1.3608                 1.5744
 IR Inten    --     20.4045                18.7056                64.9022

                     28                     29                     30
                      A                      A                      A
 Frequencies --   1169.1006              1223.6302              1251.0961
 Red. masses --      2.9254                 1.8164                 1.4892
 Frc consts  --      2.3558                 1.6023                 1.3733
 IR Inten    --     74.8878                11.5568                13.5650

                     31                     32                     33
                      A                      A                      A
 Frequencies --   1267.4056              1313.9144              1374.6253
 Red. masses --      2.3495                 1.7455                 2.3242
 Frc consts  --      2.2236                 1.7754                 2.5876
 IR Inten    --     14.8560                31.6611                 7.7407

                     34                     35                     36
                      A                      A                      A
 Frequencies --   1403.4122              1417.5938              1464.3730
 Red. masses --      1.2614                 1.3216                 1.5781
 Frc consts  --      1.4638                 1.5647                 1.9938
 IR Inten    --      5.6268                 0.1546                 9.2144

                     37                     38                     39
                      A                      A                      A
 Frequencies --   1480.6659              1483.6380              1490.7187
 Red. masses --      1.0982                 1.3248                 1.0902
 Frc consts  --      1.4185                 1.7182                 1.4274
 IR Inten    --     12.0832                52.8882                40.3864

                     40                     41                     42
                      A                      A                      A
 Frequencies --   1498.7511              1501.6177              3016.4221
 Red. masses --      1.0569                 1.9462                 1.0364
 Frc consts  --      1.3987                 2.5856                 5.5557
 IR Inten    --      3.9109                37.8355                33.3719

                     43                     44                     45
                      A                      A                      A
 Frequencies --   3035.8673              3071.7956              3095.9770
 Red. masses --      1.0367                 1.1007                 1.0992
 Frc consts  --      5.6293                 6.1193                 6.2075
 IR Inten    --     20.6989                21.3604                16.2825

                     46                     47                     48
                      A                      A                      A
 Frequencies --   3099.9889              3120.3993              3124.2953
 Red. masses --      1.0988                 1.0868                 1.1013
 Frc consts  --      6.2215                 6.2350                 6.3338
 IR Inten    --     15.1052                23.6719                12.6208

                     49                     50                     51
                      A                      A                      A
 Frequencies --   3176.2668              3189.1378              3730.9947
 Red. masses --      1.0905                 1.0961                 1.0639
 Frc consts  --      6.4818                 6.5682                 8.7255
 IR Inten    --     11.0776                19.5322               111.9033

 - Thermochemistry -
 -------------------
 Temperature   298.150 Kelvin.  Pressure   1.00000 Atm.
 Atom     1 has atomic number  6 and mass  12.00000

 Molecular mass:   126.06808 amu.
 Principal axes and moments of inertia in atomic units:
                           1         2         3
     Eigenvalues --   802.581881007.866741355.90285
           X            0.99947  -0.01508  -0.02876
           Y            0.01468   0.99980  -0.01380
           Z            0.02896   0.01337   0.99949
 This molecule is an asymmetric top.
 Rotational symmetry number  1.
 Warning -- assumption of classical behavior for rotation
           may cause significant error
 Rotational temperatures (Kelvin)      0.10792     0.08594     0.06388
 Rotational constants (GHZ):           2.24867     1.79065     1.33103
 Zero-point vibrational energy     412274.7 (Joules/Mol)
                                   98.53602 (Kcal/Mol)
 Warning -- explicit consideration of  12 degrees of freedom as
           vibrations may cause significant error
 Vibrational temperatures:    205.35   278.56   283.59   320.11   342.92
          (Kelvin)            412.23   517.08   523.64   668.42   757.26
                              812.75   857.15   912.97   968.13  1068.50
                             1141.81  1221.30  1258.44  1273.74  1337.93
                             1383.29  1410.66  1475.46  1549.15  1571.07
                             1592.63  1646.26  1682.07  1760.53  1800.05
                             1823.51  1890.43  1977.78  2019.19  2039.60
                             2106.90  2130.35  2134.62  2144.81  2156.37
                             2160.49  4339.95  4367.93  4419.62  4454.41
                             4460.19  4489.55  4495.16  4569.93  4588.45
                             5368.06

 Zero-point correction=                           0.157027 (Hartree/Particle)
 Thermal correction to Energy=                    0.165627
 Thermal correction to Enthalpy=                  0.166572
 Thermal correction to Gibbs Free Energy=         0.124541
 Sum of electronic and zero-point Energies=           -422.954594
 Sum of electronic and thermal Energies=              -422.945994
 Sum of electronic and thermal Enthalpies=            -422.945050
 Sum of electronic and thermal Free Energies=         -422.987080

                     E (Thermal)             CV                S
                      KCal/Mol        Cal/Mol-Kelvin    Cal/Mol-Kelvin
 Total                  103.933             33.930             88.460
 Electronic               0.000              0.000              0.000
 Translational            0.889              2.981             40.409
 Rotational               0.889              2.981             28.485
 Vibrational            102.155             27.969             19.566
 Vibration     1          0.616              1.910              2.767
 Vibration     2          0.635              1.849              2.193
 Vibration     3          0.636              1.844              2.160
 Vibration     4          0.648              1.807              1.939
 Vibration     5          0.656              1.782              1.815
 Vibration     6          0.684              1.699              1.494
 Vibration     7          0.734              1.556              1.125
 Vibration     8          0.737              1.546              1.105
 Vibration     9          0.822              1.329              0.753
 Vibration    10          0.881              1.192              0.595
 Vibration    11          0.921              1.107              0.514
 Vibration    12          0.954              1.041              0.457

 Optimization completed.
    -- Stationary point found.
 Normal termination of Gaussian 09 at Mon Jan 27 23:09:24 2020.
