 Gaussian 09, Revision D.01,
 Gaussian 09:  ES64L-G09RevD.01 24-Apr-2013

 -----------------------------
 # b3lyp 6-31G(2df,p) opt Freq
 -----------------------------

 -----
 titel
 -----
 Symbolic Z-matrix:
 Charge =  0 Multiplicity = 1

 SCF Done:  E(RB3LYP) =  -423.190145212     A.U. after   14 cycles
 Optimization completed.
    -- Stationary point found.
 Normal termination of Gaussian 09 at Mon Jan 27 13:12:58 2020.

 ----------------------------------------------------------------------
 #N Geom=AllCheck Guess=TCheck SCRF=Check GenChk RB3LYP/6-31G(2df,p) Fr
 eq
 ----------------------------------------------------------------------

 Structure from the checkpoint file:  "/scratch/puck/g09_e5f87afa-5014-4ecb-81a5-6c4c40f3a752/Gau-156170.chk"
 -----
 titel
 -----
 Charge =  0 Multiplicity = 1

                         Standard orientation:
 ---------------------------------------------------------------------
 Center     Atomic      Atomic             Coordinates (Angstroms)
 Number     Number       Type             X           Y           Z
 ---------------------------------------------------------------------
      1          8           0       -2.424546   -0.453997   -0.346634
      2          6           0       -1.344078   -0.202373    0.134177
      3          6           0       -0.977104    1.203408    0.597278
      4          6           0        0.082563    1.883387   -0.289441
      5          8           0        1.142852    1.037807   -0.697795
      6          6           0        1.774878    0.301798    0.334464
      7          6           0        1.152118   -1.074518    0.520259
      8          6           0        0.609625   -1.781388   -0.693342
      9          6           0       -0.334822   -1.299643    0.389804
     10          1           0       -1.882917    1.815538    0.600082
     11          1           0       -0.608261    1.132529    1.627628
     12          1           0       -0.380904    2.224961   -1.219520
     13          1           0        0.476655    2.767568    0.235476
     14          1           0        2.821621    0.181158    0.031022
     15          1           0        1.775650    0.867388    1.278813
     16          1           0        1.667125   -1.680315    1.261881
     17          1           0        0.622010   -1.223846   -1.622526
     18          1           0        0.751564   -2.850908   -0.795569
     19          1           0       -0.768067   -2.088584    0.998952
 ---------------------------------------------------------------------

 SCF Done:  E(RB3LYP) =  -423.190145212     A.U. after    1 cycles

 The electronic state is 1-A.
 Alpha  occ. eigenvalues --  -19.14981 -19.12521 -10.26843 -10.24213 -10.23928
 Alpha  occ. eigenvalues --  -10.20017 -10.19795 -10.19242 -10.19138  -1.04383
 Alpha  occ. eigenvalues --   -1.03503  -0.86752  -0.78289  -0.71579  -0.66419
 Alpha  occ. eigenvalues --   -0.61672  -0.57228  -0.53858  -0.50970  -0.49832
 Alpha  occ. eigenvalues --   -0.46922  -0.45762  -0.44881  -0.42323  -0.41370
 Alpha  occ. eigenvalues --   -0.39545  -0.38299  -0.36660  -0.35915  -0.32007
 Alpha  occ. eigenvalues --   -0.29678  -0.29165  -0.26602  -0.23876
 Alpha virt. eigenvalues --   -0.01880   0.08459   0.09557   0.11204   0.12145
 Alpha virt. eigenvalues --    0.12774   0.14500   0.15197   0.15310   0.16457
 Alpha virt. eigenvalues --    0.17260   0.18204   0.19562   0.21072   0.22704

 Mulliken charges:
               1
     1  O   -0.310482
     2  C    0.377892
     3  C   -0.333359
     4  C   -0.071378
     5  O   -0.242707
     6  C   -0.117744
     7  C   -0.036671
     8  C   -0.276963
     9  C   -0.115414
    10  H    0.123470
    11  H    0.117200
    12  H    0.126040
    13  H    0.097742
    14  H    0.114036
    15  H    0.094602
    16  H    0.086277
    17  H    0.137821
    18  H    0.116093
    19  H    0.113545
 Sum of Mulliken charges =   0.00000

 Dipole moment (field-independent basis, Debye):
    X=              2.2284    Y=              0.5102    Z=              1.9881  Tot=              3.0296
 Quadrupole moment (field-independent basis, Debye-Ang):
   XX=            -60.3073   YY=            -49.1001   ZZ=            -52.5932
   XY=             -3.7443   XZ=             -0.2774   YZ=             -0.1432

  Exact polarizability:  81.471  -2.664  80.714   2.984   2.096  63.386
 Approx polarizability: 121.407  -0.902 106.914   6.837   3.536 101.921

                      1                      2                      3
                      A                      A                      A
 Frequencies --     47.5154               173.5155               219.0072
 Red. masses --      4.7288                 2.3024                 3.7584
 Frc consts  --      0.0063                 0.0408                 0.1062
 IR Inten    --      3.4410                 1.4603                 2.6330

                      4                      5                      6
                      A                      A                      A
 Frequencies --    255.0608               310.4311               357.1529
 Red. masses --      4.1595                 3.1909                 2.7608
 Frc consts  --      0.1594                 0.1812                 0.2075
 IR Inten    --      4.7981                 1.1525                 0.8160

                      7                      8                      9
                      A                      A                      A
 Frequencies --    440.8414               472.2355               542.0872
 Red. masses --      2.6140                 2.9743                 3.3831
 Frc consts  --      0.2993                 0.3908                 0.5857
 IR Inten    --      1.6918                 9.4211                 7.9710

                     10                     11                     12
                      A                      A                      A
 Frequencies --    624.5329               660.3568               771.2968
 Red. masses --      4.0099                 2.8217                 2.8740
 Frc consts  --      0.9215                 0.7250                 1.0073
 IR Inten    --      1.0230                 2.9858                 0.8910

                     13                     14                     15
                      A                      A                      A
 Frequencies --    779.6298               827.5165               843.6888
 Red. masses --      2.2319                 1.2745                 1.9478
 Frc consts  --      0.7993                 0.5142                 0.8169
 IR Inten    --      2.9519                 8.3298                 8.1050

                     16                     17                     18
                      A                      A                      A
 Frequencies --    902.7897               933.6296               965.4501
 Red. masses --      2.4279                 2.7247                 2.5657
 Frc consts  --      1.1659                 1.3993                 1.4090
 IR Inten    --      6.3339                 3.6595                13.1714

                     19                     20                     21
                      A                      A                      A
 Frequencies --   1001.6850              1024.5699              1056.1079
 Red. masses --      2.5556                 2.2992                 1.6834
 Frc consts  --      1.5108                 1.4220                 1.1063
 IR Inten    --      5.6748                22.1292                 7.6679

                     22                     23                     24
                      A                      A                      A
 Frequencies --   1083.0316              1103.4064              1117.5484
 Red. masses --      1.4074                 1.7913                 1.4375
 Frc consts  --      0.9726                 1.2850                 1.0577
 IR Inten    --      2.0244                 4.0733                11.4954

                     25                     26                     27
                      A                      A                      A
 Frequencies --   1123.8724              1153.5956              1184.4142
 Red. masses --      1.3851                 2.8895                 2.0469
 Frc consts  --      1.0308                 2.2656                 1.6918
 IR Inten    --     28.2212                21.1771                62.8207

                     28                     29                     30
                      A                      A                      A
 Frequencies --   1226.8559              1248.4993              1259.8692
 Red. masses --      1.5794                 1.2928                 1.2677
 Frc consts  --      1.4007                 1.1873                 1.1855
 IR Inten    --     68.8417                 4.3715                 7.2415

                     31                     32                     33
                      A                      A                      A
 Frequencies --   1314.7722              1350.0440              1363.4387
 Red. masses --      1.2813                 1.3020                 1.7931
 Frc consts  --      1.3049                 1.3982                 1.9639
 IR Inten    --     28.7453                14.6625                22.4160

                     34                     35                     36
                      A                      A                      A
 Frequencies --   1379.6190              1402.5670              1422.5324
 Red. masses --      1.8372                 1.3536                 1.2966
 Frc consts  --      2.0602                 1.5689                 1.5459
 IR Inten    --     13.0787                 5.6812                 8.0925

                     37                     38                     39
                      A                      A                      A
 Frequencies --   1470.6439              1486.1630              1500.7102
 Red. masses --      1.1058                 1.3804                 1.0796
 Frc consts  --      1.4090                 1.7964                 1.4326
 IR Inten    --      8.1043                 3.3123                 0.9945

                     40                     41                     42
                      A                      A                      A
 Frequencies --   1509.8056              1803.7518              2982.1979
 Red. masses --      1.0985                11.7411                 1.0696
 Frc consts  --      1.4754                22.5067                 5.6047
 IR Inten    --      2.9000               183.2576                45.2332

                     43                     44                     45
                      A                      A                      A
 Frequencies --   2987.4857              3037.8526              3051.8815
 Red. masses --      1.0669                 1.0630                 1.0967
 Frc consts  --      5.6102                 5.7798                 6.0181
 IR Inten    --     78.1757                10.9138                37.5494

                     46                     47                     48
                      A                      A                      A
 Frequencies --   3084.8333              3108.4600              3136.3960
 Red. masses --      1.0926                 1.1001                 1.0860
 Frc consts  --      6.1261                 6.2626                 6.2943
 IR Inten    --     14.8277                23.1036                16.3305

                     49                     50                     51
                      A                      A                      A
 Frequencies --   3142.3307              3149.2634              3234.5045
 Red. masses --      1.0589                 1.0840                 1.1169
 Frc consts  --      6.1602                 6.3343                 6.8847
 IR Inten    --     11.7573                 8.0591                 3.8096

 - Thermochemistry -
 -------------------
 Temperature   298.150 Kelvin.  Pressure   1.00000 Atm.
 Atom     1 has atomic number  8 and mass  15.99491

 Molecular mass:   126.06808 amu.
 Principal axes and moments of inertia in atomic units:
                           1         2         3
     Eigenvalues --   814.14647 955.821491488.14529
           X            0.98979  -0.14254   0.00292
           Y            0.14248   0.98971   0.01348
           Z           -0.00481  -0.01292   0.99990
 This molecule is an asymmetric top.
 Rotational symmetry number  1.
 Warning -- assumption of classical behavior for rotation
           may cause significant error
 Rotational temperatures (Kelvin)      0.10639     0.09062     0.05820
 Rotational constants (GHZ):           2.21673     1.88816     1.21275
 Zero-point vibrational energy     422457.9 (Joules/Mol)
                                  100.96986 (Kcal/Mol)
 Warning -- explicit consideration of   9 degrees of freedom as
           vibrations may cause significant error
 Vibrational temperatures:     68.36   249.65   315.10   366.98   446.64
          (Kelvin)            513.86   634.27   679.44   779.94   898.56
                              950.10  1109.72  1121.71  1190.61  1213.88
                             1298.91  1343.28  1389.07  1441.20  1474.13
                             1519.50  1558.24  1587.55  1607.90  1617.00
                             1659.76  1704.11  1765.17  1796.31  1812.67
                             1891.66  1942.41  1961.68  1984.96  2017.98
                             2046.70  2115.93  2138.25  2159.18  2172.27
                             2595.19  4290.71  4298.32  4370.79  4390.97
                             4438.38  4472.38  4512.57  4521.11  4531.08
                             4653.72

 Zero-point correction=                           0.160906 (Hartree/Particle)
 Thermal correction to Energy=                    0.168743
 Thermal correction to Enthalpy=                  0.169688
 Thermal correction to Gibbs Free Energy=         0.128183
 Sum of electronic and zero-point Energies=           -423.029239
 Sum of electronic and thermal Energies=              -423.021402
 Sum of electronic and thermal Enthalpies=            -423.020458
 Sum of electronic and thermal Free Energies=         -423.061962

                     E (Thermal)             CV                S
                      KCal/Mol        Cal/Mol-Kelvin    Cal/Mol-Kelvin
 Total                  105.888             30.439             87.354
 Electronic               0.000              0.000              0.000
 Translational            0.889              2.981             40.409
 Rotational               0.889              2.981             28.539
 Vibrational            104.111             24.478             18.406
 Vibration     1          0.595              1.979              4.918
 Vibration     2          0.627              1.875              2.397
 Vibration     3          0.647              1.812              1.967
 Vibration     4          0.665              1.754              1.695
 Vibration     5          0.699              1.654              1.360
 Vibration     6          0.732              1.561              1.134
 Vibration     7          0.801              1.381              0.824
 Vibration     8          0.829              1.312              0.731
 Vibration     9          0.897              1.157              0.561

 Normal termination of Gaussian 09 at Mon Jan 27 13:57:50 2020.
