 Gaussian 09, Revision D.01,
 Gaussian 09:  ES64L-G09RevD.01 24-Apr-2013

 -----------------------------
 # b3lyp 6-31G(2df,p) opt Freq
 -----------------------------

 -----
 titel
 -----
 Symbolic Z-matrix:
 Charge =  0 Multiplicity = 1

 SCF Done:  E(RB3LYP) =  -423.129600918     A.U. after   12 cycles
 Optimization completed.
    -- Stationary point found.
 Normal termination of Gaussian 09 at Mon Jan 27 22:07:14 2020.

 ----------------------------------------------------------------------
 #N Geom=AllCheck Guess=TCheck SCRF=Check GenChk RB3LYP/6-31G(2df,p) Fr
 eq
 ----------------------------------------------------------------------

 Structure from the checkpoint file:  "/scratch/puck/g09_b6a22924-cc15-467c-8bff-f29ac0201a3d/Gau-159472.chk"
 -----
 titel
 -----
 Charge =  0 Multiplicity = 1

                         Standard orientation:
 ---------------------------------------------------------------------
 Center     Atomic      Atomic             Coordinates (Angstroms)
 Number     Number       Type             X           Y           Z
 ---------------------------------------------------------------------
      1          6           0        0.585247    2.172282    0.369588
      2          6           0        0.228143    0.732362    0.202064
      3          6           0       -0.194329   -0.115178   -1.002106
      4          6           0       -1.402617   -0.668587   -0.255166
      5          8           0       -2.600836    0.050361   -0.455852
      6          6           0       -0.630393   -0.310810    1.048060
      7          6           0        0.593299   -1.270868    1.047624
      8          6           0        1.055579   -0.463736   -0.162639
      9          8           0        2.323645   -0.405090   -0.703814
     10          1           0        1.276328    2.484232   -0.420314
     11          1           0       -0.293007    2.826903    0.324491
     12          1           0        1.080779    2.350750    1.330989
     13          1           0       -0.095748    0.127642   -2.054160
     14          1           0       -1.668680   -1.722644   -0.391565
     15          1           0       -2.378029    0.988557   -0.467546
     16          1           0       -1.181022   -0.095408    1.961905
     17          1           0        1.251087   -1.103135    1.905385
     18          1           0        0.392839   -2.343619    0.936572
     19          1           0        2.423404   -1.128235   -1.332980
 ---------------------------------------------------------------------

 SCF Done:  E(RB3LYP) =  -423.129600918     A.U. after    1 cycles

 The electronic state is 1-A.
 Alpha  occ. eigenvalues --  -19.15225 -19.13175 -10.23952 -10.22970 -10.19620
 Alpha  occ. eigenvalues --  -10.19068 -10.18557 -10.18555 -10.18351  -1.03910
 Alpha  occ. eigenvalues --   -1.01690  -0.91774  -0.73940  -0.71047  -0.68774
 Alpha  occ. eigenvalues --   -0.61289  -0.57508  -0.53047  -0.51103  -0.48826
 Alpha  occ. eigenvalues --   -0.45632  -0.44188  -0.43332  -0.40696  -0.40308
 Alpha  occ. eigenvalues --   -0.38964  -0.36738  -0.35662  -0.35502  -0.31037
 Alpha  occ. eigenvalues --   -0.30385  -0.26244  -0.24431  -0.23659
 Alpha virt. eigenvalues --    0.07330   0.07717   0.10713   0.11261   0.11880
 Alpha virt. eigenvalues --    0.13275   0.13813   0.15619   0.16297   0.17092
 Alpha virt. eigenvalues --    0.17358   0.18411   0.20750   0.22386   0.23143

 Mulliken charges:
               1
     1  C   -0.529012
     2  C    0.275492
     3  C   -0.243058
     4  C    0.159087
     5  O   -0.446360
     6  C   -0.155262
     7  C   -0.306706
     8  C    0.346809
     9  O   -0.467206
    10  H    0.136191
    11  H    0.112832
    12  H    0.126327
    13  H    0.084442
    14  H    0.076174
    15  H    0.277811
    16  H    0.075930
    17  H    0.104366
    18  H    0.085643
    19  H    0.286500
 Sum of Mulliken charges =   0.00000

 Dipole moment (field-independent basis, Debye):
    X=              0.9736    Y=              0.0622    Z=             -0.2556  Tot=              1.0085
 Quadrupole moment (field-independent basis, Debye-Ang):
   XX=            -61.4892   YY=            -48.6107   ZZ=            -50.4933
   XY=             -4.2340   XZ=             -2.5827   YZ=              1.4546

  Exact polarizability:  77.718  -0.855  78.427  -0.101   0.185  69.996
 Approx polarizability: 113.229  -2.134 112.645  -0.208   2.609 106.696

                      1                      2                      3
                      A                      A                      A
 Frequencies --    143.7557               178.4425               192.7924
 Red. masses --      3.3187                 1.7936                 1.4968
 Frc consts  --      0.0404                 0.0336                 0.0328
 IR Inten    --      0.8485                 3.7729                 3.9731

                      4                      5                      6
                      A                      A                      A
 Frequencies --    235.4205               262.3469               294.1567
 Red. masses --      2.5530                 1.8135                 1.2027
 Frc consts  --      0.0834                 0.0735                 0.0613
 IR Inten    --      3.6682                29.0972                16.7921

                      7                      8                      9
                      A                      A                      A
 Frequencies --    342.8831               378.7902               424.0417
 Red. masses --      1.7152                 2.3377                 3.5157
 Frc consts  --      0.1188                 0.1976                 0.3725
 IR Inten    --    113.8494                12.4255                 0.0860

                     10                     11                     12
                      A                      A                      A
 Frequencies --    450.9344               525.1170               615.4976
 Red. masses --      3.1829                 3.6447                 4.1949
 Frc consts  --      0.3813                 0.5921                 0.9363
 IR Inten    --      2.8980                 3.7043                 6.9216

                     13                     14                     15
                      A                      A                      A
 Frequencies --    662.4084               740.9865               803.8773
 Red. masses --      3.1523                 3.8909                 3.2145
 Frc consts  --      0.8149                 1.2587                 1.2239
 IR Inten    --      0.8389                 1.7477                 4.7847

                     16                     17                     18
                      A                      A                      A
 Frequencies --    841.5583               897.7218               910.0127
 Red. masses --      2.4775                 2.1328                 2.1665
 Frc consts  --      1.0338                 1.0127                 1.0571
 IR Inten    --      6.9751                 3.2317                 3.1818

                     19                     20                     21
                      A                      A                      A
 Frequencies --    928.6732               938.1653               991.7988
 Red. masses --      2.1038                 1.4512                 1.9493
 Frc consts  --      1.0690                 0.7526                 1.1297
 IR Inten    --      2.5811                 6.3474                10.5008

                     22                     23                     24
                      A                      A                      A
 Frequencies --   1027.3496              1062.8366              1093.1944
 Red. masses --      1.6852                 2.0005                 1.9890
 Frc consts  --      1.0480                 1.3315                 1.4005
 IR Inten    --     37.2443                29.8334                51.6191

                     25                     26                     27
                      A                      A                      A
 Frequencies --   1109.7316              1133.1344              1137.0201
 Red. masses --      1.8178                 1.7759                 1.6693
 Frc consts  --      1.3190                 1.3435                 1.2715
 IR Inten    --     52.2652                 8.1533                 2.8886

                     28                     29                     30
                      A                      A                      A
 Frequencies --   1179.5729              1195.3463              1224.6355
 Red. masses --      1.6567                 3.0631                 1.6165
 Frc consts  --      1.3581                 2.5787                 1.4283
 IR Inten    --      3.1486                11.9201                 9.0222

                     31                     32                     33
                      A                      A                      A
 Frequencies --   1242.4645              1271.1205              1283.4052
 Red. masses --      1.7849                 1.5995                 1.6302
 Frc consts  --      1.6234                 1.5227                 1.5820
 IR Inten    --     12.0039                42.6034                63.6375

                     34                     35                     36
                      A                      A                      A
 Frequencies --   1298.8914              1348.8455              1414.2323
 Red. masses --      1.5146                 2.9610                 1.2751
 Frc consts  --      1.5055                 3.1741                 1.5026
 IR Inten    --     48.6718                29.2587                 0.6139

                     37                     38                     39
                      A                      A                      A
 Frequencies --   1433.2320              1475.7078              1483.4381
 Red. masses --      1.3015                 1.9724                 1.0794
 Frc consts  --      1.5752                 2.5307                 1.3995
 IR Inten    --     90.8094                 3.9109                 8.9638

                     40                     41                     42
                      A                      A                      A
 Frequencies --   1495.0803              1516.1514              3019.9565
 Red. masses --      1.0588                 1.6716                 1.0369
 Frc consts  --      1.3945                 2.2639                 5.5720
 IR Inten    --      3.6160                13.3809                57.0605

                     43                     44                     45
                      A                      A                      A
 Frequencies --   3024.9543              3050.0433              3075.5420
 Red. masses --      1.0608                 1.0845                 1.1008
 Frc consts  --      5.7190                 5.9440                 6.1346
 IR Inten    --     34.0064                67.9819                22.8335

                     46                     47                     48
                      A                      A                      A
 Frequencies --   3093.5950              3097.8327              3137.1961
 Red. masses --      1.1031                 1.0994                 1.0916
 Frc consts  --      6.2202                 6.2161                 6.3298
 IR Inten    --     27.4483                14.3726                24.9647

                     49                     50                     51
                      A                      A                      A
 Frequencies --   3182.5783              3790.4483              3791.1356
 Red. masses --      1.0928                 1.0654                 1.0659
 Frc consts  --      6.5214                 9.0189                 9.0258
 IR Inten    --     12.3716                18.8701                12.5771

 - Thermochemistry -
 -------------------
 Temperature   298.150 Kelvin.  Pressure   1.00000 Atm.
 Atom     1 has atomic number  6 and mass  12.00000

 Molecular mass:   126.06808 amu.
 Principal axes and moments of inertia in atomic units:
                           1         2         3
     Eigenvalues --   699.843621199.708451401.30572
           X            0.99999   0.00342  -0.00009
           Y           -0.00342   0.99999   0.00012
           Z            0.00009  -0.00012   1.00000
 This molecule is an asymmetric top.
 Rotational symmetry number  1.
 Warning -- assumption of classical behavior for rotation
           may cause significant error
 Rotational temperatures (Kelvin)      0.12376     0.07220     0.06181
 Rotational constants (GHZ):           2.57878     1.50432     1.28790
 Zero-point vibrational energy     415391.6 (Joules/Mol)
                                   99.28098 (Kcal/Mol)
 Warning -- explicit consideration of  12 degrees of freedom as
           vibrations may cause significant error
 Vibrational temperatures:    206.83   256.74   277.38   338.72   377.46
          (Kelvin)            423.23   493.33   544.99   610.10   648.79
                              755.53   885.56   953.06  1066.11  1156.60
                             1210.81  1291.62  1309.30  1336.15  1349.81
                             1426.98  1478.13  1529.18  1572.86  1596.65
                             1630.33  1635.92  1697.14  1719.83  1761.98
                             1787.63  1828.86  1846.53  1868.81  1940.69
                             2034.76  2062.10  2123.21  2134.33  2151.08
                             2181.40  4345.04  4352.23  4388.33  4425.01
                             4450.99  4457.08  4513.72  4579.01  5453.60
                             5454.59

 Zero-point correction=                           0.158214 (Hartree/Particle)
 Thermal correction to Energy=                    0.166789
 Thermal correction to Enthalpy=                  0.167733
 Thermal correction to Gibbs Free Energy=         0.125692
 Sum of electronic and zero-point Energies=           -422.971387
 Sum of electronic and thermal Energies=              -422.962812
 Sum of electronic and thermal Enthalpies=            -422.961868
 Sum of electronic and thermal Free Energies=         -423.003909

                     E (Thermal)             CV                S
                      KCal/Mol        Cal/Mol-Kelvin    Cal/Mol-Kelvin
 Total                  104.661             33.665             88.482
 Electronic               0.000              0.000              0.000
 Translational            0.889              2.981             40.409
 Rotational               0.889              2.981             28.555
 Vibrational            102.884             27.704             19.518
 Vibration     1          0.616              1.909              2.753
 Vibration     2          0.629              1.869              2.345
 Vibration     3          0.635              1.850              2.201
 Vibration     4          0.655              1.787              1.837
 Vibration     5          0.670              1.742              1.646
 Vibration     6          0.689              1.685              1.450
 Vibration     7          0.722              1.590              1.199
 Vibration     8          0.749              1.515              1.044
 Vibration     9          0.786              1.418              0.878
 Vibration    10          0.810              1.359              0.793
 Vibration    11          0.880              1.194              0.598
 Vibration    12          0.975              0.999              0.424

 Normal termination of Gaussian 09 at Mon Jan 27 23:01:04 2020.
