 Gaussian 09, Revision D.01,
 Gaussian 09:  ES64L-G09RevD.01 24-Apr-2013

 -----------------------------
 # b3lyp 6-31G(2df,p) opt Freq
 -----------------------------

 -----
 titel
 -----
 Symbolic Z-matrix:
 Charge =  0 Multiplicity = 1

 SCF Done:  E(RB3LYP) =  -423.240650274     A.U. after   14 cycles
 Optimization completed.
    -- Stationary point found.
 Normal termination of Gaussian 09 at Tue Jan 28 08:11:08 2020.

 ----------------------------------------------------------------------
 #N Geom=AllCheck Guess=TCheck SCRF=Check GenChk RB3LYP/6-31G(2df,p) Fr
 eq
 ----------------------------------------------------------------------

 Structure from the checkpoint file:  "/scratch/puck/g09_09c17f1b-78bb-4995-a3cc-aa8ba46825e2/Gau-55027.chk"
 -----
 titel
 -----
 Charge =  0 Multiplicity = 1

                         Standard orientation:
 ---------------------------------------------------------------------
 Center     Atomic      Atomic             Coordinates (Angstroms)
 Number     Number       Type             X           Y           Z
 ---------------------------------------------------------------------
      1          6           0       -2.338246   -1.077939   -0.415304
      2          6           0       -1.031303   -0.765365    0.324539
      3          6           0       -1.092956    0.569093    1.113983
      4          6           0       -0.700932    1.658901    0.092122
      5          6           0        0.337594    0.987790   -0.795280
      6          8           0        1.648496    0.871629   -0.128602
      7          6           0        1.522749   -0.490037   -0.010224
      8          8           0        2.298703   -1.251528    0.471846
      9          6           0        0.137847   -0.542280   -0.659442
     10          1           0       -3.163490   -1.201930    0.292996
     11          1           0       -2.614136   -0.276253   -1.109513
     12          1           0       -2.251546   -2.002315   -0.995342
     13          1           0       -0.799994   -1.599898    0.994202
     14          1           0       -2.075616    0.742899    1.560003
     15          1           0       -0.365581    0.551899    1.931852
     16          1           0       -1.559863    1.941613   -0.527220
     17          1           0       -0.315428    2.571419    0.554200
     18          1           0        0.470124    1.422043   -1.786440
     19          1           0        0.089426   -1.151266   -1.563058
 ---------------------------------------------------------------------

 SCF Done:  E(RB3LYP) =  -423.240650274     A.U. after    1 cycles

 The electronic state is 1-A.
 Alpha  occ. eigenvalues --  -19.17528 -19.13012 -10.30244 -10.25229 -10.20692
 Alpha  occ. eigenvalues --  -10.20620 -10.19686 -10.19260 -10.18803  -1.10041
 Alpha  occ. eigenvalues --   -1.02767  -0.85032  -0.75778  -0.73513  -0.68498
 Alpha  occ. eigenvalues --   -0.60999  -0.57971  -0.52897  -0.51738  -0.51074
 Alpha  occ. eigenvalues --   -0.46808  -0.45349  -0.42197  -0.41553  -0.41092
 Alpha  occ. eigenvalues --   -0.40755  -0.37502  -0.35980  -0.35350  -0.34106
 Alpha  occ. eigenvalues --   -0.33582  -0.32659  -0.29584  -0.26731
 Alpha virt. eigenvalues --    0.01289   0.07220   0.08513   0.10716   0.12310
 Alpha virt. eigenvalues --    0.12763   0.13022   0.14102   0.15274   0.16446
 Alpha virt. eigenvalues --    0.17220   0.17876   0.18152   0.20822   0.21555

 Mulliken charges:
               1
     1  C   -0.406133
     2  C    0.012738
     3  C   -0.237735
     4  C   -0.228847
     5  C    0.125904
     6  O   -0.264742
     7  C    0.452430
     8  O   -0.332802
     9  C   -0.230130
    10  H    0.120457
    11  H    0.116474
    12  H    0.120920
    13  H    0.097985
    14  H    0.101673
    15  H    0.123153
    16  H    0.109720
    17  H    0.120830
    18  H    0.095102
    19  H    0.103003
 Sum of Mulliken charges =   0.00000

 Dipole moment (field-independent basis, Debye):
    X=             -3.8380    Y=              1.0928    Z=             -1.3602  Tot=              4.2160
 Quadrupole moment (field-independent basis, Debye-Ang):
   XX=            -61.3071   YY=            -54.0418   ZZ=            -50.9448
   XY=              2.3776   XZ=             -2.6317   YZ=              0.7865

  Exact polarizability:  80.249  -2.655  76.101   1.701  -1.500  65.444
 Approx polarizability: 112.019  -7.813 115.532   6.090  -6.058  99.826

                      1                      2                      3
                      A                      A                      A
 Frequencies --    111.3267               152.0279               193.1528
 Red. masses --      4.4019                 3.9511                 2.7717
 Frc consts  --      0.0321                 0.0538                 0.0609
 IR Inten    --      0.8711                 3.0341                 1.4648

                      4                      5                      6
                      A                      A                      A
 Frequencies --    232.7315               302.3480               360.6255
 Red. masses --      1.1244                 2.5705                 2.6554
 Frc consts  --      0.0359                 0.1384                 0.2035
 IR Inten    --      0.2133                 0.2522                 0.6062

                      7                      8                      9
                      A                      A                      A
 Frequencies --    387.3027               495.1453               614.3596
 Red. masses --      2.1555                 5.0385                 2.9029
 Frc consts  --      0.1905                 0.7278                 0.6455
 IR Inten    --      1.4732                 3.0203                 1.5148

                     10                     11                     12
                      A                      A                      A
 Frequencies --    665.7931               688.9996               795.8987
 Red. masses --      3.6927                 4.3513                 2.3011
 Frc consts  --      0.9644                 1.2171                 0.8588
 IR Inten    --      1.7529                 2.4174                 0.5726

                     13                     14                     15
                      A                      A                      A
 Frequencies --    807.1854               840.0484               860.3204
 Red. masses --      3.9489                 3.5181                 2.4102
 Frc consts  --      1.5159                 1.4627                 1.0510
 IR Inten    --      0.3602                20.1102                 9.3049

                     16                     17                     18
                      A                      A                      A
 Frequencies --    896.6215               922.9565               964.4765
 Red. masses --      2.3493                 2.7173                 2.4520
 Frc consts  --      1.1128                 1.3638                 1.3438
 IR Inten    --      8.4432                25.9150                12.5413

                     19                     20                     21
                      A                      A                      A
 Frequencies --    971.7053              1023.0501              1023.8976
 Red. masses --      1.8063                 1.9290                 2.0732
 Frc consts  --      1.0049                 1.1895                 1.2806
 IR Inten    --      7.9496                 3.4944                31.1121

                     22                     23                     24
                      A                      A                      A
 Frequencies --   1042.5865              1099.9657              1111.7841
 Red. masses --      1.5308                 1.5096                 1.8241
 Frc consts  --      0.9804                 1.0761                 1.3285
 IR Inten    --      4.0385                19.8803                 8.1809

                     25                     26                     27
                      A                      A                      A
 Frequencies --   1135.6977              1191.2980              1194.7474
 Red. masses --      2.3543                 1.6615                 1.6193
 Frc consts  --      1.7891                 1.3893                 1.3619
 IR Inten    --     71.6035                 1.9763                 8.2203

                     28                     29                     30
                      A                      A                      A
 Frequencies --   1202.8245              1257.3757              1285.8886
 Red. masses --      1.7270                 1.6521                 1.5217
 Frc consts  --      1.4722                 1.5389                 1.4824
 IR Inten    --      3.6748                 4.9734                 8.3974

                     31                     32                     33
                      A                      A                      A
 Frequencies --   1318.4941              1330.3156              1342.4736
 Red. masses --      1.3553                 1.5384                 1.5356
 Frc consts  --      1.3882                 1.6041                 1.6306
 IR Inten    --      1.8970                15.8723                 1.5501

                     34                     35                     36
                      A                      A                      A
 Frequencies --   1363.7005              1373.2572              1413.0512
 Red. masses --      1.4570                 1.4738                 1.2343
 Frc consts  --      1.5964                 1.6376                 1.4521
 IR Inten    --     16.8260                 6.7371                 2.1649

                     37                     38                     39
                      A                      A                      A
 Frequencies --   1474.0304              1493.1006              1499.8600
 Red. masses --      1.0841                 1.0748                 1.0634
 Frc consts  --      1.3878                 1.4118                 1.4094
 IR Inten    --      2.8120                 6.2640                 0.2387

                     40                     41                     42
                      A                      A                      A
 Frequencies --   1501.9962              1931.4547              3030.9646
 Red. masses --      1.0521                12.8675                 1.0361
 Frc consts  --      1.3985                28.2821                 5.6082
 IR Inten    --      6.6641               424.8192                18.4397

                     43                     44                     45
                      A                      A                      A
 Frequencies --   3047.7631              3051.2067              3061.9244
 Red. masses --      1.0667                 1.0686                 1.0763
 Frc consts  --      5.8377                 5.8617                 5.9455
 IR Inten    --     17.7838                 6.0507                18.3739

                     46                     47                     48
                      A                      A                      A
 Frequencies --   3098.0503              3099.5959              3104.9815
 Red. masses --      1.0989                 1.1005                 1.1002
 Frc consts  --      6.2139                 6.2294                 6.2491
 IR Inten    --     15.8208                29.8865                24.9405

                     49                     50                     51
                      A                      A                      A
 Frequencies --   3107.0837              3109.0615              3118.4128
 Red. masses --      1.0923                 1.0991                 1.0900
 Frc consts  --      6.2127                 6.2595                 6.2449
 IR Inten    --     16.3213                24.4483                28.4969

 - Thermochemistry -
 -------------------
 Temperature   298.150 Kelvin.  Pressure   1.00000 Atm.
 Atom     1 has atomic number  6 and mass  12.00000

 Molecular mass:   126.06808 amu.
 Principal axes and moments of inertia in atomic units:
                           1         2         3
     Eigenvalues --   666.482691198.613471502.96715
           X            0.99939   0.03469  -0.00277
           Y           -0.03461   0.99907   0.02579
           Z            0.00367  -0.02568   0.99966
 This molecule is an asymmetric top.
 Rotational symmetry number  1.
 Warning -- assumption of classical behavior for rotation
           may cause significant error
 Rotational temperatures (Kelvin)      0.12996     0.07226     0.05763
 Rotational constants (GHZ):           2.70786     1.50569     1.20079
 Zero-point vibrational energy     422897.4 (Joules/Mol)
                                  101.07490 (Kcal/Mol)
 Warning -- explicit consideration of   9 degrees of freedom as
           vibrations may cause significant error
 Vibrational temperatures:    160.17   218.73   277.90   334.85   435.01
          (Kelvin)            518.86   557.24   712.40   883.93   957.93
                              991.32  1145.12  1161.36  1208.64  1237.81
                             1290.04  1327.93  1387.66  1398.07  1471.94
                             1473.16  1500.05  1582.60  1599.61  1634.01
                             1714.01  1718.97  1730.59  1809.08  1850.10
                             1897.02  1914.03  1931.52  1962.06  1975.81
                             2033.06  2120.80  2148.24  2157.96  2161.03
                             2778.93  4360.88  4385.05  4390.00  4405.42
                             4457.40  4459.62  4467.37  4470.39  4473.24
                             4486.69

 Zero-point correction=                           0.161073 (Hartree/Particle)
 Thermal correction to Energy=                    0.168848
 Thermal correction to Enthalpy=                  0.169792
 Thermal correction to Gibbs Free Energy=         0.128809
 Sum of electronic and zero-point Energies=           -423.079577
 Sum of electronic and thermal Energies=              -423.071802
 Sum of electronic and thermal Enthalpies=            -423.070858
 Sum of electronic and thermal Free Energies=         -423.111842

                     E (Thermal)             CV                S
                      KCal/Mol        Cal/Mol-Kelvin    Cal/Mol-Kelvin
 Total                  105.954             30.261             86.257
 Electronic               0.000              0.000              0.000
 Translational            0.889              2.981             40.409
 Rotational               0.889              2.981             28.575
 Vibrational            104.176             24.300             17.273
 Vibration     1          0.607              1.940              3.246
 Vibration     2          0.619              1.900              2.647
 Vibration     3          0.635              1.849              2.197
 Vibration     4          0.653              1.791              1.858
 Vibration     5          0.694              1.669              1.404
 Vibration     6          0.735              1.553              1.119
 Vibration     7          0.756              1.497              1.011
 Vibration     8          0.851              1.261              0.670
 Vibration     9          0.974              1.001              0.426

 Normal termination of Gaussian 09 at Tue Jan 28 08:58:24 2020.
