 Gaussian 09, Revision D.01,
 Gaussian 09:  ES64L-G09RevD.01 24-Apr-2013

 -----------------------------
 # b3lyp 6-31G(2df,p) opt Freq
 -----------------------------

 -----
 titel
 -----
 Symbolic Z-matrix:
 Charge =  0 Multiplicity = 1

 SCF Done:  E(RB3LYP) =  -423.107974375     A.U. after   13 cycles
 Optimization completed.
    -- Stationary point found.
 Normal termination of Gaussian 09 at Mon Jan 27 17:57:29 2020.

 ----------------------------------------------------------------------
 #N Geom=AllCheck Guess=TCheck SCRF=Check GenChk RB3LYP/6-31G(2df,p) Fr
 eq
 ----------------------------------------------------------------------

 Structure from the checkpoint file:  "/scratch/puck/g09_30ab8726-568a-49c5-afcc-eb76f20bb9b4/Gau-87927.chk"
 -----
 titel
 -----
 Charge =  0 Multiplicity = 1

                         Standard orientation:
 ---------------------------------------------------------------------
 Center     Atomic      Atomic             Coordinates (Angstroms)
 Number     Number       Type             X           Y           Z
 ---------------------------------------------------------------------
      1          6           0       -2.434342   -0.428714   -0.079553
      2          6           0       -0.935181   -0.473746   -0.113124
      3          6           0        0.023277   -1.252865   -1.053269
      4          6           0        0.978765   -0.505066   -0.120052
      5          8           0        2.349913   -0.562517   -0.173148
      6          6           0        0.019817   -0.640655    1.110513
      7          8           0        0.046504    0.779963    1.438924
      8          6           0        0.038048    0.758024   -0.029670
      9          6           0        0.046582    2.049589   -0.780186
     10          1           0       -2.770964    0.225032    0.731905
     11          1           0       -2.842989   -0.044437   -1.020559
     12          1           0       -2.860161   -1.424209    0.085555
     13          1           0        0.010712   -2.343127   -0.965870
     14          1           0        0.029938   -0.951985   -2.105025
     15          1           0        2.693490   -0.016865    0.545448
     16          1           0       -0.005765   -1.368208    1.922115
     17          1           0        0.948844    2.625031   -0.549064
     18          1           0        0.028909    1.861309   -1.858432
     19          1           0       -0.825148    2.658488   -0.520245
 ---------------------------------------------------------------------

 SCF Done:  E(RB3LYP) =  -423.107974375     A.U. after    1 cycles

 The electronic state is 1-A.
 Alpha  occ. eigenvalues --  -19.15331 -19.12550 -10.24361 -10.23978 -10.23464
 Alpha  occ. eigenvalues --  -10.20318 -10.18607 -10.18599 -10.18150  -1.06268
 Alpha  occ. eigenvalues --   -1.02893  -0.86230  -0.74619  -0.73117  -0.65211
 Alpha  occ. eigenvalues --   -0.61543  -0.60191  -0.52581  -0.48655  -0.47455
 Alpha  occ. eigenvalues --   -0.45643  -0.44718  -0.42678  -0.40891  -0.40639
 Alpha  occ. eigenvalues --   -0.40014  -0.36895  -0.36359  -0.35715  -0.32851
 Alpha  occ. eigenvalues --   -0.29600  -0.29410  -0.24767  -0.23020
 Alpha virt. eigenvalues --    0.07472   0.08885   0.10548   0.12069   0.12751
 Alpha virt. eigenvalues --    0.13104   0.14510   0.15032   0.15357   0.16060
 Alpha virt. eigenvalues --    0.16782   0.17237   0.19864   0.20646   0.22463

 Mulliken charges:
               1
     1  C   -0.523892
     2  C    0.270832
     3  C   -0.366752
     4  C    0.346331
     5  O   -0.466888
     6  C   -0.046516
     7  O   -0.371608
     8  C    0.331495
     9  C   -0.529733
    10  H    0.134420
    11  H    0.120923
    12  H    0.122713
    13  H    0.100317
    14  H    0.099842
    15  H    0.292734
    16  H    0.087910
    17  H    0.131739
    18  H    0.131289
    19  H    0.134844
 Sum of Mulliken charges =   0.00000

 Dipole moment (field-independent basis, Debye):
    X=             -0.6474    Y=             -0.0302    Z=             -0.6075  Tot=              0.8883
 Quadrupole moment (field-independent basis, Debye-Ang):
   XX=            -52.6637   YY=            -52.1914   ZZ=            -54.4420
   XY=              2.8047   XZ=              3.2127   YZ=             -3.6941

  Exact polarizability:  78.712   1.640  76.937   1.099  -1.330  70.684
 Approx polarizability: 109.985   1.017 111.832   1.026   1.174 110.850

                      1                      2                      3
                      A                      A                      A
 Frequencies --    167.7412               175.7891               204.8476
 Red. masses --      2.1680                 1.1308                 2.6855
 Frc consts  --      0.0359                 0.0206                 0.0664
 IR Inten    --      0.1196                 0.3891                 0.8791

                      4                      5                      6
                      A                      A                      A
 Frequencies --    216.4522               227.2882               261.3965
 Red. masses --      2.3808                 1.2375                 2.3619
 Frc consts  --      0.0657                 0.0377                 0.0951
 IR Inten    --      1.2472                 0.0963                 1.8636

                      7                      8                      9
                      A                      A                      A
 Frequencies --    281.2656               364.1436               444.7034
 Red. masses --      4.4777                 1.1362                 2.2883
 Frc consts  --      0.2087                 0.0888                 0.2666
 IR Inten    --     13.8746                84.3921                 1.6643

                     10                     11                     12
                      A                      A                      A
 Frequencies --    495.9240               558.4133               595.7025
 Red. masses --      2.8466                 3.3484                 5.4394
 Frc consts  --      0.4125                 0.6152                 1.1373
 IR Inten    --     13.1065                 1.3945                 5.5343

                     13                     14                     15
                      A                      A                      A
 Frequencies --    656.4496               695.5818               744.0303
 Red. masses --      3.4819                 3.6969                 2.7549
 Frc consts  --      0.8840                 1.0539                 0.8985
 IR Inten    --      2.1750                 0.1675                 3.7226

                     16                     17                     18
                      A                      A                      A
 Frequencies --    780.8164               826.6637               851.5160
 Red. masses --      3.4347                 4.5838                 2.5145
 Frc consts  --      1.2338                 1.8456                 1.0742
 IR Inten    --      3.0889                32.3564                10.0814

                     19                     20                     21
                      A                      A                      A
 Frequencies --    907.2613               953.4453              1005.5256
 Red. masses --      2.7387                 2.6408                 1.3972
 Frc consts  --      1.3282                 1.4144                 0.8323
 IR Inten    --     19.7230                 7.6916                 4.2768

                     22                     23                     24
                      A                      A                      A
 Frequencies --   1016.3787              1043.3504              1093.3442
 Red. masses --      1.9583                 1.4427                 1.8926
 Frc consts  --      1.1919                 0.9253                 1.3330
 IR Inten    --     14.9786                 8.7506                41.3332

                     25                     26                     27
                      A                      A                      A
 Frequencies --   1117.6691              1125.8437              1140.8419
 Red. masses --      1.5134                 1.9574                 1.6281
 Frc consts  --      1.1138                 1.4618                 1.2485
 IR Inten    --      0.3233                 9.4199                 5.0439

                     28                     29                     30
                      A                      A                      A
 Frequencies --   1161.5227              1183.7631              1242.6967
 Red. masses --      2.0716                 2.2445                 1.8530
 Frc consts  --      1.6467                 1.8531                 1.6860
 IR Inten    --      2.9159                 8.1911                48.6280

                     31                     32                     33
                      A                      A                      A
 Frequencies --   1301.6246              1317.1715              1381.7372
 Red. masses --      2.6261                 3.3716                 1.8925
 Frc consts  --      2.6214                 3.4464                 2.1288
 IR Inten    --     88.2701                85.7248                29.0431

                     34                     35                     36
                      A                      A                      A
 Frequencies --   1400.3296              1412.7067              1423.1649
 Red. masses --      1.4068                 1.8105                 2.4962
 Frc consts  --      1.6253                 2.1289                 2.9788
 IR Inten    --     14.1265                11.5118                12.7268

                     37                     38                     39
                      A                      A                      A
 Frequencies --   1472.3743              1488.6060              1492.4428
 Red. masses --      1.0489                 1.0496                 1.0496
 Frc consts  --      1.3397                 1.3703                 1.3775
 IR Inten    --      7.7103                 3.4994                 7.3979

                     40                     41                     42
                      A                      A                      A
 Frequencies --   1494.9646              1524.2179              3028.2148
 Red. masses --      1.0606                 1.3193                 1.0348
 Frc consts  --      1.3966                 1.8058                 5.5909
 IR Inten    --      1.4641                11.5525                29.5449

                     43                     44                     45
                      A                      A                      A
 Frequencies --   3034.9390              3049.4924              3092.0945
 Red. masses --      1.0347                 1.0554                 1.1009
 Frc consts  --      5.6151                 5.7829                 6.2016
 IR Inten    --     18.8827                38.3668                16.7356

                     46                     47                     48
                      A                      A                      A
 Frequencies --   3101.7158              3104.8873              3105.7090
 Red. masses --      1.1009                 1.1017                 1.1091
 Frc consts  --      6.2405                 6.2575                 6.3027
 IR Inten    --     12.9193                13.2478                28.0526

                     49                     50                     51
                      A                      A                      A
 Frequencies --   3110.4780              3119.2690              3781.8315
 Red. masses --      1.1009                 1.0923                 1.0651
 Frc consts  --      6.2756                 6.2619                 8.9756
 IR Inten    --     14.3562                41.1883                27.7249

 - Thermochemistry -
 -------------------
 Temperature   298.150 Kelvin.  Pressure   1.00000 Atm.
 Atom     1 has atomic number  6 and mass  12.00000

 Molecular mass:   126.06808 amu.
 Principal axes and moments of inertia in atomic units:
                           1         2         3
     Eigenvalues --   771.311651065.829541237.59473
           X            0.99879   0.04757   0.01268
           Y           -0.04617   0.99451  -0.09389
           Z           -0.01708   0.09319   0.99550
 This molecule is an asymmetric top.
 Rotational symmetry number  1.
 Warning -- assumption of classical behavior for rotation
           may cause significant error
 Rotational temperatures (Kelvin)      0.11229     0.08126     0.06999
 Rotational constants (GHZ):           2.33983     1.69327     1.45827
 Zero-point vibrational energy     411385.8 (Joules/Mol)
                                   98.32357 (Kcal/Mol)
 Warning -- explicit consideration of  12 degrees of freedom as
           vibrations may cause significant error
 Vibrational temperatures:    241.34   252.92   294.73   311.43   327.02
          (Kelvin)            376.09   404.68   523.92   639.83   713.52
                              803.43   857.08   944.48  1000.79  1070.49
                             1123.42  1189.38  1225.14  1305.34  1371.79
                             1446.73  1462.34  1501.15  1573.08  1608.07
                             1619.84  1641.42  1671.17  1703.17  1787.96
                             1872.75  1895.11  1988.01  2014.76  2032.57
                             2047.61  2118.42  2141.77  2147.29  2150.92
                             2193.01  4356.92  4366.59  4387.53  4448.83
                             4462.67  4467.23  4468.42  4475.28  4487.93
                             5441.21

 Zero-point correction=                           0.156689 (Hartree/Particle)
 Thermal correction to Energy=                    0.165425
 Thermal correction to Enthalpy=                  0.166369
 Thermal correction to Gibbs Free Energy=         0.124113
 Sum of electronic and zero-point Energies=           -422.951286
 Sum of electronic and thermal Energies=              -422.942549
 Sum of electronic and thermal Enthalpies=            -422.941605
 Sum of electronic and thermal Free Energies=         -422.983862

                     E (Thermal)             CV                S
                      KCal/Mol        Cal/Mol-Kelvin    Cal/Mol-Kelvin
 Total                  103.806             34.071             88.937
 Electronic               0.000              0.000              0.000
 Translational            0.889              2.981             40.409
 Rotational               0.889              2.981             28.411
 Vibrational            102.028             28.109             20.117
 Vibration     1          0.624              1.882              2.461
 Vibration     2          0.628              1.872              2.373
 Vibration     3          0.640              1.833              2.089
 Vibration     4          0.645              1.816              1.989
 Vibration     5          0.651              1.799              1.900
 Vibration     6          0.669              1.743              1.652
 Vibration     7          0.681              1.708              1.526
 Vibration     8          0.738              1.546              1.104
 Vibration     9          0.804              1.373              0.812
 Vibration    10          0.851              1.259              0.668
 Vibration    11          0.914              1.121              0.527
 Vibration    12          0.953              1.041              0.457

 Normal termination of Gaussian 09 at Mon Jan 27 18:45:04 2020.
