 Gaussian 09, Revision D.01,
 Gaussian 09:  ES64L-G09RevD.01 24-Apr-2013

 -----------------------------
 # b3lyp 6-31G(2df,p) opt Freq
 -----------------------------

 -----
 titel
 -----
 Symbolic Z-matrix:
 Charge =  0 Multiplicity = 1

 SCF Done:  E(RB3LYP) =  -423.148974729     A.U. after   14 cycles
 Optimization completed.
    -- Stationary point found.
 Normal termination of Gaussian 09 at Tue Jan 28 00:01:55 2020.

 ----------------------------------------------------------------------
 #N Geom=AllCheck Guess=TCheck SCRF=Check GenChk RB3LYP/6-31G(2df,p) Fr
 eq
 ----------------------------------------------------------------------

 Structure from the checkpoint file:  "/scratch/puck/g09_57659bba-0e5f-4d26-a12b-7587f705bf01/Gau-131055.chk"
 -----
 titel
 -----
 Charge =  0 Multiplicity = 1

                         Standard orientation:
 ---------------------------------------------------------------------
 Center     Atomic      Atomic             Coordinates (Angstroms)
 Number     Number       Type             X           Y           Z
 ---------------------------------------------------------------------
      1          8           0       -2.356886   -0.992057    0.000009
      2          6           0       -0.958097   -0.971449    0.000004
      3          6           0       -0.158874   -0.120621    1.044351
      4          6           0       -0.698459    1.303216    0.785652
      5          6           0       -0.698467    1.303211   -0.785648
      6          6           0       -0.158878   -0.120626   -1.044345
      7          6           0        0.960804   -0.188810    0.000002
      8          6           0        2.244136   -0.875957   -0.000003
      9          8           0        2.153017    0.565413   -0.000007
     10          1           0       -2.685059   -0.087398   -0.000102
     11          1           0       -0.638153   -2.015207    0.000006
     12          1           0       -0.023168   -0.441173    2.076303
     13          1           0       -1.691986    1.458479    1.218656
     14          1           0       -0.035816    2.066611    1.198422
     15          1           0       -1.691996    1.458480   -1.218648
     16          1           0       -0.035826    2.066601   -1.198429
     17          1           0       -0.023174   -0.441181   -2.076297
     18          1           0        2.631574   -1.312918    0.919426
     19          1           0        2.631564   -1.312925   -0.919433
 ---------------------------------------------------------------------

 SCF Done:  E(RB3LYP) =  -423.148974729     A.U. after    1 cycles

 The electronic state is 1-A.
 Alpha  occ. eigenvalues --  -19.15147 -19.14315 -10.24199 -10.23759 -10.23541
 Alpha  occ. eigenvalues --  -10.19119 -10.19118 -10.18954 -10.18937  -1.07279
 Alpha  occ. eigenvalues --   -1.02848  -0.88262  -0.73208  -0.70039  -0.66301
 Alpha  occ. eigenvalues --   -0.62487  -0.56728  -0.55123  -0.51444  -0.49821
 Alpha  occ. eigenvalues --   -0.48151  -0.47961  -0.41438  -0.40654  -0.39770
 Alpha  occ. eigenvalues --   -0.38437  -0.36060  -0.34479  -0.34380  -0.32527
 Alpha  occ. eigenvalues --   -0.31588  -0.30083  -0.27264  -0.24790
 Alpha virt. eigenvalues --    0.05807   0.09166   0.10380   0.12408   0.13001
 Alpha virt. eigenvalues --    0.14551   0.14625   0.14824   0.15238   0.17193
 Alpha virt. eigenvalues --    0.18001   0.18646   0.18847   0.20639   0.20985

 Mulliken charges:
               1
     1  O   -0.450450
     2  C    0.174442
     3  C   -0.182216
     4  C   -0.239499
     5  C   -0.239506
     6  C   -0.182216
     7  C    0.547279
     8  C   -0.310170
     9  O   -0.301501
    10  H    0.285918
    11  H    0.093103
    12  H    0.069949
    13  H    0.093684
    14  H    0.119660
    15  H    0.093681
    16  H    0.119661
    17  H    0.069949
    18  H    0.119116
    19  H    0.119116
 Sum of Mulliken charges =   0.00000

 Dipole moment (field-independent basis, Debye):
    X=             -0.1755    Y=             -0.0821    Z=             -0.0001  Tot=              0.1938
 Quadrupole moment (field-independent basis, Debye-Ang):
   XX=            -56.4765   YY=            -53.4676   ZZ=            -51.8089
   XY=             -8.4692   XZ=              0.0005   YZ=              0.0000

  Exact polarizability:  82.603  -7.286  72.075   0.000   0.000  67.846
 Approx polarizability: 116.053  -4.356 109.693   0.000   0.000 100.630

                      1                      2                      3
                      A                      A                      A
 Frequencies --    149.2868               204.0322               254.5491
 Red. masses --      4.6149                 1.2579                 3.6941
 Frc consts  --      0.0606                 0.0309                 0.1410
 IR Inten    --      5.5452                40.8090                 0.4065

                      4                      5                      6
                      A                      A                      A
 Frequencies --    264.4548               274.8096               287.4434
 Red. masses --      1.9533                 2.5175                 3.1465
 Frc consts  --      0.0805                 0.1120                 0.1532
 IR Inten    --     18.4142                 0.9521                31.1401

                      7                      8                      9
                      A                      A                      A
 Frequencies --    464.2966               476.4955               575.8692
 Red. masses --      5.1294                 2.6578                 5.1527
 Frc consts  --      0.6515                 0.3555                 1.0068
 IR Inten    --      2.0509                 0.7145                 6.6080

                     10                     11                     12
                      A                      A                      A
 Frequencies --    650.9317               720.3716               782.2005
 Red. masses --      2.5844                 4.6608                 3.0483
 Frc consts  --      0.6452                 1.4250                 1.0989
 IR Inten    --      0.5235                 0.9951                 1.0262

                     13                     14                     15
                      A                      A                      A
 Frequencies --    786.4548               848.6534               869.4251
 Red. masses --      2.7296                 1.3727                 1.9251
 Frc consts  --      0.9947                 0.5825                 0.8574
 IR Inten    --     15.4666                 1.9393                 5.3683

                     16                     17                     18
                      A                      A                      A
 Frequencies --    887.3405               901.2616               959.0708
 Red. masses --      5.2349                 3.4193                 1.3887
 Frc consts  --      2.4285                 1.6364                 0.7526
 IR Inten    --     22.0949                14.6871                 0.0437

                     19                     20                     21
                      A                      A                      A
 Frequencies --    963.3157               991.8420              1010.3873
 Red. masses --      3.5943                 1.3055                 2.0598
 Frc consts  --      1.9652                 0.7567                 1.2389
 IR Inten    --     29.9932                 1.4802                 8.0193

                     22                     23                     24
                      A                      A                      A
 Frequencies --   1028.1248              1096.6711              1114.8552
 Red. masses --      4.2087                 1.5374                 1.2478
 Frc consts  --      2.6211                 1.0894                 0.9137
 IR Inten    --     11.3758                59.7084                 2.5513

                     25                     26                     27
                      A                      A                      A
 Frequencies --   1131.1480              1149.0015              1167.7790
 Red. masses --      1.6484                 1.5524                 1.5707
 Frc consts  --      1.2426                 1.2075                 1.2620
 IR Inten    --      0.0554                45.6045                 0.3686

                     28                     29                     30
                      A                      A                      A
 Frequencies --   1171.8322              1189.4730              1193.0001
 Red. masses --      1.6374                 2.6177                 1.5602
 Frc consts  --      1.3248                 2.1821                 1.3083
 IR Inten    --     40.0572                 3.1494                 2.3599

                     31                     32                     33
                      A                      A                      A
 Frequencies --   1249.9230              1250.6415              1262.5221
 Red. masses --      1.1573                 1.6092                 1.4714
 Frc consts  --      1.0652                 1.4829                 1.3819
 IR Inten    --      0.1750                23.9088                 0.2371

                     34                     35                     36
                      A                      A                      A
 Frequencies --   1302.6095              1314.5552              1324.9107
 Red. masses --      1.5932                 1.5967                 1.5703
 Frc consts  --      1.5928                 1.6257                 1.6241
 IR Inten    --     14.1124                 0.1281                 9.7426

                     37                     38                     39
                      A                      A                      A
 Frequencies --   1442.0684              1462.7529              1497.1004
 Red. masses --      1.3021                 1.5937                 1.0771
 Frc consts  --      1.5954                 2.0090                 1.4224
 IR Inten    --     85.4565                 0.2098                 0.6078

                     40                     41                     42
                      A                      A                      A
 Frequencies --   1513.8201              1552.3665              3045.0470
 Red. masses --      1.1045                 2.0502                 1.0661
 Frc consts  --      1.4913                 2.9109                 5.8243
 IR Inten    --      4.7105                 7.5911                23.3271

                     43                     44                     45
                      A                      A                      A
 Frequencies --   3056.7991              3081.9990              3099.5447
 Red. masses --      1.0646                 1.0509                 1.0994
 Frc consts  --      5.8611                 5.8812                 6.2230
 IR Inten    --     55.5119                27.0990                 1.2928

                     46                     47                     48
                      A                      A                      A
 Frequencies --   3100.4822              3115.6331              3127.7040
 Red. masses --      1.0862                 1.1008                 1.0889
 Frc consts  --      6.1522                 6.2960                 6.2763
 IR Inten    --     21.8201                30.2821                54.3041

                     49                     50                     51
                      A                      A                      A
 Frequencies --   3132.1870              3167.6579              3823.6752
 Red. masses --      1.0925                 1.1191                 1.0651
 Frc consts  --      6.3146                 6.6163                 9.1753
 IR Inten    --      5.6734                21.3442                12.7088

 - Thermochemistry -
 -------------------
 Temperature   298.150 Kelvin.  Pressure   1.00000 Atm.
 Atom     1 has atomic number  8 and mass  15.99491

 Molecular mass:   126.06808 amu.
 Principal axes and moments of inertia in atomic units:
                           1         2         3
     Eigenvalues --   572.989971225.189941389.13837
           X            0.99838  -0.05687   0.00000
           Y            0.05687   0.99838   0.00000
           Z            0.00000   0.00000   1.00000
 This molecule is an asymmetric top.
 Rotational symmetry number  1.
 Warning -- assumption of classical behavior for rotation
           may cause significant error
 Rotational temperatures (Kelvin)      0.15116     0.07069     0.06235
 Rotational constants (GHZ):           3.14969     1.47303     1.29918
 Zero-point vibrational energy     421614.1 (Joules/Mol)
                                  100.76819 (Kcal/Mol)
 Warning -- explicit consideration of   9 degrees of freedom as
           vibrations may cause significant error
 Vibrational temperatures:    214.79   293.56   366.24   380.49   395.39
          (Kelvin)            413.57   668.02   685.57   828.55   936.54
                             1036.45  1125.41  1131.53  1221.02  1250.91
                             1276.68  1296.71  1379.89  1385.99  1427.04
                             1453.72  1479.24  1577.86  1604.03  1627.47
                             1653.15  1680.17  1686.00  1711.38  1716.46
                             1798.36  1799.39  1816.49  1874.16  1891.35
                             1906.25  2074.81  2104.57  2153.99  2178.05
                             2233.51  4381.14  4398.05  4434.30  4459.55
                             4460.90  4482.70  4500.06  4506.51  4557.55
                             5501.41

 Zero-point correction=                           0.160584 (Hartree/Particle)
 Thermal correction to Energy=                    0.168214
 Thermal correction to Enthalpy=                  0.169158
 Thermal correction to Gibbs Free Energy=         0.128891
 Sum of electronic and zero-point Energies=           -422.988390
 Sum of electronic and thermal Energies=              -422.980761
 Sum of electronic and thermal Enthalpies=            -422.979817
 Sum of electronic and thermal Free Energies=         -423.020084

                     E (Thermal)             CV                S
                      KCal/Mol        Cal/Mol-Kelvin    Cal/Mol-Kelvin
 Total                  105.556             30.716             84.749
 Electronic               0.000              0.000              0.000
 Translational            0.889              2.981             40.409
 Rotational               0.889              2.981             28.369
 Vibrational            103.778             24.754             15.972
 Vibration     1          0.618              1.903              2.681
 Vibration     2          0.640              1.834              2.096
 Vibration     3          0.665              1.755              1.699
 Vibration     4          0.671              1.738              1.632
 Vibration     5          0.677              1.720              1.566
 Vibration     6          0.685              1.697              1.489
 Vibration     7          0.822              1.329              0.754
 Vibration     8          0.833              1.302              0.720
 Vibration     9          0.932              1.083              0.493

 Optimization completed.
    -- Stationary point found.
 Normal termination of Gaussian 09 at Tue Jan 28 00:45:39 2020.
