 Gaussian 09, Revision D.01,
 Gaussian 09:  ES64L-G09RevD.01 24-Apr-2013

 -----------------------------
 # b3lyp 6-31G(2df,p) opt Freq
 -----------------------------

 -----
 titel
 -----
 Symbolic Z-matrix:
 Charge =  0 Multiplicity = 1

 SCF Done:  E(RB3LYP) =  -423.143944043     A.U. after   12 cycles
 Optimization completed.
    -- Stationary point found.
 Normal termination of Gaussian 09 at Mon Jan 27 17:52:48 2020.

 ----------------------------------------------------------------------
 #N Geom=AllCheck Guess=TCheck SCRF=Check GenChk RB3LYP/6-31G(2df,p) Fr
 eq
 ----------------------------------------------------------------------

 Structure from the checkpoint file:  "/scratch/puck/g09_25bef319-e677-43b1-bd8a-b801a8db2aad/Gau-16608.chk"
 -----
 titel
 -----
 Charge =  0 Multiplicity = 1

                         Standard orientation:
 ---------------------------------------------------------------------
 Center     Atomic      Atomic             Coordinates (Angstroms)
 Number     Number       Type             X           Y           Z
 ---------------------------------------------------------------------
      1          6           0        2.132462   -1.087248   -0.543459
      2          6           0        1.095774   -0.228246    0.134900
      3          6           0        1.462632    1.049850    0.848196
      4          6           0        0.654339    1.096778   -0.425567
      5          8           0       -0.713863    1.381932   -0.297374
      6          6           0       -1.522783    0.297008   -0.665784
      7          6           0       -2.338173   -0.339158    0.428971
      8          6           0       -1.096181   -1.021714   -0.082688
      9          8           0        0.041112   -0.953199    0.734807
     10          1           0        1.682606   -1.690076   -1.340021
     11          1           0        2.919460   -0.470765   -0.988319
     12          1           0        2.598157   -1.767395    0.177188
     13          1           0        0.923522    1.264508    1.763436
     14          1           0        2.493908    1.384998    0.818418
     15          1           0        1.110875    1.477124   -1.338063
     16          1           0       -1.920447    0.349129   -1.677316
     17          1           0       -2.264878    0.118353    1.408669
     18          1           0       -3.303220   -0.763952    0.175589
     19          1           0       -1.186390   -1.935404   -0.666453
 ---------------------------------------------------------------------

 SCF Done:  E(RB3LYP) =  -423.143944043     A.U. after    1 cycles

 The electronic state is 1-A.
 Alpha  occ. eigenvalues --  -19.15115 -19.14992 -10.24009 -10.23563 -10.23532
 Alpha  occ. eigenvalues --  -10.23337 -10.18553 -10.18255 -10.18181  -1.06996
 Alpha  occ. eigenvalues --   -1.02317  -0.87109  -0.81413  -0.72088  -0.64092
 Alpha  occ. eigenvalues --   -0.60543  -0.59470  -0.53734  -0.53270  -0.51024
 Alpha  occ. eigenvalues --   -0.47490  -0.45316  -0.42331  -0.41441  -0.40695
 Alpha  occ. eigenvalues --   -0.39639  -0.38457  -0.37750  -0.35665  -0.29732
 Alpha  occ. eigenvalues --   -0.29213  -0.28587  -0.25120  -0.23707
 Alpha virt. eigenvalues --    0.08072   0.09854   0.10425   0.11872   0.12955
 Alpha virt. eigenvalues --    0.14072   0.14457   0.15770   0.16187   0.16789
 Alpha virt. eigenvalues --    0.17808   0.19509   0.20586   0.20972   0.23110

 Mulliken charges:
               1
     1  C   -0.458696
     2  C    0.400258
     3  C   -0.358231
     4  C    0.035993
     5  O   -0.255486
     6  C    0.074161
     7  C   -0.325859
     8  C    0.057759
     9  O   -0.290382
    10  H    0.119161
    11  H    0.116529
    12  H    0.129197
    13  H    0.127919
    14  H    0.110644
    15  H    0.088783
    16  H    0.091144
    17  H    0.132156
    18  H    0.113540
    19  H    0.091410
 Sum of Mulliken charges =   0.00000

 Dipole moment (field-independent basis, Debye):
    X=              0.4418    Y=             -0.6366    Z=             -1.2972  Tot=              1.5110
 Quadrupole moment (field-independent basis, Debye-Ang):
   XX=            -48.5028   YY=            -56.0185   ZZ=            -52.2425
   XY=              2.8356   XZ=              0.1272   YZ=              2.0645

  Exact polarizability:  89.087   4.015  69.313   0.464   2.610  66.192
 Approx polarizability: 114.829   3.933 104.964   1.765   0.198 101.346

                      1                      2                      3
                      A                      A                      A
 Frequencies --    138.9358               198.9536               217.1476
 Red. masses --      3.2721                 2.6907                 1.0794
 Frc consts  --      0.0372                 0.0628                 0.0300
 IR Inten    --      1.5480                 0.4070                 0.0442

                      4                      5                      6
                      A                      A                      A
 Frequencies --    273.6865               345.2761               385.8248
 Red. masses --      2.7872                 2.6135                 3.3183
 Frc consts  --      0.1230                 0.1836                 0.2910
 IR Inten    --      3.1261                 0.4316                 6.7906

                      7                      8                      9
                      A                      A                      A
 Frequencies --    462.9596               468.4627               508.7840
 Red. masses --      2.1244                 4.3852                 3.9711
 Frc consts  --      0.2683                 0.5670                 0.6057
 IR Inten    --      0.2670                 3.2807                 1.8268

                     10                     11                     12
                      A                      A                      A
 Frequencies --    537.1807               668.8306               767.3255
 Red. masses --      3.8439                 2.9797                 2.1722
 Frc consts  --      0.6535                 0.7853                 0.7535
 IR Inten    --      0.4753                 3.5986                10.2741

                     13                     14                     15
                      A                      A                      A
 Frequencies --    807.3114               818.1193               845.2018
 Red. masses --      1.8993                 1.8379                 1.8372
 Frc consts  --      0.7293                 0.7248                 0.7733
 IR Inten    --      5.3525                 8.7514                 9.1558

                     16                     17                     18
                      A                      A                      A
 Frequencies --    847.6945               919.9276               942.6849
 Red. masses --      4.1762                 2.0973                 1.7103
 Frc consts  --      1.7681                 1.0458                 0.8955
 IR Inten    --     20.9613                15.7661                21.9863

                     19                     20                     21
                      A                      A                      A
 Frequencies --    960.9871              1025.1683              1027.3007
 Red. masses --      1.9768                 1.6697                 1.8779
 Frc consts  --      1.0756                 1.0339                 1.1677
 IR Inten    --      7.8852                12.5662                 5.2878

                     22                     23                     24
                      A                      A                      A
 Frequencies --   1039.1445              1074.0752              1086.3110
 Red. masses --      1.3390                 1.9488                 2.7726
 Frc consts  --      0.8519                 1.3246                 1.9277
 IR Inten    --     10.6787                17.6181                 8.1645

                     25                     26                     27
                      A                      A                      A
 Frequencies --   1104.1932              1118.9186              1128.8577
 Red. masses --      1.7472                 1.3520                 1.8050
 Frc consts  --      1.2551                 0.9973                 1.3552
 IR Inten    --      7.0739                 0.7178                 7.3506

                     28                     29                     30
                      A                      A                      A
 Frequencies --   1140.6384              1157.1654              1178.7642
 Red. masses --      2.0826                 2.0703                 3.3903
 Frc consts  --      1.5964                 1.6333                 2.7755
 IR Inten    --      5.6379                35.1967                19.7744

                     31                     32                     33
                      A                      A                      A
 Frequencies --   1229.0907              1249.1745              1288.3369
 Red. masses --      1.9152                 3.2203                 1.3890
 Frc consts  --      1.7046                 2.9606                 1.3583
 IR Inten    --     39.1673               104.6015                 5.1998

                     34                     35                     36
                      A                      A                      A
 Frequencies --   1356.2555              1385.2923              1400.9009
 Red. masses --      1.5715                 1.5020                 1.3601
 Frc consts  --      1.7031                 1.6983                 1.5727
 IR Inten    --     20.2876                25.9356                 1.7834

                     37                     38                     39
                      A                      A                      A
 Frequencies --   1419.7802              1458.2051              1472.4186
 Red. masses --      1.4196                 1.3816                 1.4998
 Frc consts  --      1.6860                 1.7309                 1.9158
 IR Inten    --      2.7261                21.3930                 7.6859

                     40                     41                     42
                      A                      A                      A
 Frequencies --   1482.2512              1500.1229              3031.0428
 Red. masses --      1.0525                 1.1261                 1.0353
 Frc consts  --      1.3625                 1.4930                 5.6042
 IR Inten    --      3.0592                 1.5773                22.4150

                     43                     44                     45
                      A                      A                      A
 Frequencies --   3097.4999              3107.3666              3110.9937
 Red. masses --      1.1011                 1.0936                 1.0945
 Frc consts  --      6.2247                 6.2216                 6.2412
 IR Inten    --     20.1000                 6.2599                31.9045

                     46                     47                     48
                      A                      A                      A
 Frequencies --   3115.1795              3124.5994              3136.9663
 Red. masses --      1.0874                 1.0872                 1.0558
 Frc consts  --      6.2175                 6.2537                 6.1214
 IR Inten    --     28.9766                49.7388                11.4712

                     49                     50                     51
                      A                      A                      A
 Frequencies --   3141.0225              3233.4110              3236.6167
 Red. masses --      1.0587                 1.1170                 1.1171
 Frc consts  --      6.1539                 6.8804                 6.8951
 IR Inten    --     12.1797                 5.6767                 5.1225

 - Thermochemistry -
 -------------------
 Temperature   298.150 Kelvin.  Pressure   1.00000 Atm.
 Atom     1 has atomic number  6 and mass  12.00000

 Molecular mass:   126.06808 amu.
 Principal axes and moments of inertia in atomic units:
                           1         2         3
     Eigenvalues --   588.880491104.736831367.51196
           X            0.99990   0.00974  -0.01006
           Y           -0.00911   0.99807   0.06143
           Z            0.01064  -0.06134   0.99806
 This molecule is an asymmetric top.
 Rotational symmetry number  1.
 Warning -- assumption of classical behavior for rotation
           may cause significant error
 Rotational temperatures (Kelvin)      0.14708     0.07840     0.06334
 Rotational constants (GHZ):           3.06470     1.63364     1.31973
 Zero-point vibrational energy     417331.4 (Joules/Mol)
                                   99.74459 (Kcal/Mol)
 Warning -- explicit consideration of  10 degrees of freedom as
           vibrations may cause significant error
 Vibrational temperatures:    199.90   286.25   312.43   393.77   496.77
          (Kelvin)            555.12   666.09   674.01   732.03   772.88
                              962.30  1104.01  1161.54  1177.09  1216.06
                             1219.64  1323.57  1356.31  1382.64  1474.99
                             1478.05  1495.10  1545.35  1562.96  1588.69
                             1609.87  1624.17  1641.12  1664.90  1695.98
                             1768.39  1797.28  1853.63  1951.35  1993.12
                             2015.58  2042.74  2098.03  2118.48  2132.63
                             2158.34  4360.99  4456.61  4470.80  4476.02
                             4482.04  4495.60  4513.39  4519.23  4652.15
                             4656.76

 Zero-point correction=                           0.158953 (Hartree/Particle)
 Thermal correction to Energy=                    0.166616
 Thermal correction to Enthalpy=                  0.167560
 Thermal correction to Gibbs Free Energy=         0.127306
 Sum of electronic and zero-point Energies=           -422.984991
 Sum of electronic and thermal Energies=              -422.977328
 Sum of electronic and thermal Enthalpies=            -422.976384
 Sum of electronic and thermal Free Energies=         -423.016638

                     E (Thermal)             CV                S
                      KCal/Mol        Cal/Mol-Kelvin    Cal/Mol-Kelvin
 Total                  104.553             31.146             84.722
 Electronic               0.000              0.000              0.000
 Translational            0.889              2.981             40.409
 Rotational               0.889              2.981             28.277
 Vibrational            102.775             25.185             16.036
 Vibration     1          0.615              1.914              2.818
 Vibration     2          0.637              1.841              2.143
 Vibration     3          0.646              1.815              1.983
 Vibration     4          0.676              1.722              1.573
 Vibration     5          0.724              1.585              1.188
 Vibration     6          0.755              1.500              1.016
 Vibration     7          0.821              1.332              0.758
 Vibration     8          0.826              1.320              0.742
 Vibration     9          0.864              1.231              0.637
 Vibration    10          0.892              1.168              0.571

 Normal termination of Gaussian 09 at Mon Jan 27 19:50:29 2020.
