 Gaussian 09, Revision D.01,
 Gaussian 09:  ES64L-G09RevD.01 24-Apr-2013

 -----------------------------
 # b3lyp 6-31G(2df,p) opt Freq
 -----------------------------

 -----
 titel
 -----
 Symbolic Z-matrix:
 Charge =  0 Multiplicity = 1

 SCF Done:  E(RB3LYP) =  -423.144243253     A.U. after   14 cycles
 Optimization completed.
    -- Stationary point found.
 Normal termination of Gaussian 09 at Mon Jan 27 22:52:18 2020.

 ----------------------------------------------------------------------
 #N Geom=AllCheck Guess=TCheck SCRF=Check GenChk RB3LYP/6-31G(2df,p) Fr
 eq
 ----------------------------------------------------------------------

 Structure from the checkpoint file:  "/scratch/puck/g09_8512ed2f-06bc-4769-8bc6-7f9d734bbc5e/Gau-183091.chk"
 -----
 titel
 -----
 Charge =  0 Multiplicity = 1

                         Standard orientation:
 ---------------------------------------------------------------------
 Center     Atomic      Atomic             Coordinates (Angstroms)
 Number     Number       Type             X           Y           Z
 ---------------------------------------------------------------------
      1          6           0       -0.345048    2.142504   -0.059709
      2          6           0       -0.254434    0.652639    0.120133
      3          6           0       -1.363369   -0.354945    0.519401
      4          8           0       -2.409492   -0.604392   -0.393302
      5          6           0       -0.130934   -1.246209    0.335002
      6          6           0        0.727324   -0.150028    1.051450
      7          6           0        2.082260   -0.142776    0.354954
      8          8           0        1.683146   -0.311727   -1.014432
      9          6           0        0.272498   -0.402314   -0.909429
     10          1           0       -1.125387    2.399561   -0.785287
     11          1           0       -0.580549    2.650356    0.882545
     12          1           0        0.599403    2.550031   -0.436025
     13          1           0       -1.737503   -0.265890    1.548506
     14          1           0       -3.082552    0.072372   -0.272988
     15          1           0       -0.055977   -2.325826    0.462473
     16          1           0        0.683737   -0.031967    2.134962
     17          1           0        2.629556    0.800658    0.476785
     18          1           0        2.735043   -0.968826    0.664353
     19          1           0       -0.184781   -0.544744   -1.884261
 ---------------------------------------------------------------------

 SCF Done:  E(RB3LYP) =  -423.144243253     A.U. after    1 cycles

 The electronic state is 1-A.
 Alpha  occ. eigenvalues --  -19.13858 -19.13126 -10.23469 -10.22872 -10.22276
 Alpha  occ. eigenvalues --  -10.19771 -10.19654 -10.19176 -10.18022  -1.04178
 Alpha  occ. eigenvalues --   -1.02114  -0.89017  -0.73217  -0.72620  -0.64968
 Alpha  occ. eigenvalues --   -0.60184  -0.59135  -0.54778  -0.50763  -0.48178
 Alpha  occ. eigenvalues --   -0.46827  -0.45609  -0.41959  -0.41201  -0.40249
 Alpha  occ. eigenvalues --   -0.38403  -0.35081  -0.34755  -0.33765  -0.32291
 Alpha  occ. eigenvalues --   -0.30357  -0.29730  -0.26005  -0.23259
 Alpha virt. eigenvalues --    0.07163   0.10681   0.12199   0.12800   0.13037
 Alpha virt. eigenvalues --    0.14026   0.14414   0.15612   0.15992   0.16974
 Alpha virt. eigenvalues --    0.17122   0.18308   0.18725   0.20490   0.21833

 Mulliken charges:
               1
     1  C   -0.537061
     2  C    0.263434
     3  C    0.078453
     4  O   -0.446512
     5  C   -0.120491
     6  C   -0.109012
     7  C   -0.110676
     8  O   -0.284691
     9  C    0.108998
    10  H    0.119440
    11  H    0.116382
    12  H    0.132843
    13  H    0.061282
    14  H    0.283574
    15  H    0.075107
    16  H    0.068936
    17  H    0.100242
    18  H    0.101954
    19  H    0.097796
 Sum of Mulliken charges =   0.00000

 Dipole moment (field-independent basis, Debye):
    X=             -0.9674    Y=              1.3996    Z=              1.9324  Tot=              2.5746
 Quadrupole moment (field-independent basis, Debye-Ang):
   XX=            -51.7212   YY=            -52.9856   ZZ=            -53.7195
   XY=             -3.2021   XZ=              2.1591   YZ=             -1.0385

  Exact polarizability:  83.128  -1.465  73.642   3.003  -0.557  67.147
 Approx polarizability: 115.732  -0.922 106.419   3.505   0.867 106.802

                      1                      2                      3
                      A                      A                      A
 Frequencies --    176.9394               191.3441               206.1067
 Red. masses --      1.0624                 2.7459                 3.4549
 Frc consts  --      0.0196                 0.0592                 0.0865
 IR Inten    --      0.5919                 0.9602                 2.5182

                      4                      5                      6
                      A                      A                      A
 Frequencies --    246.1294               253.1162               269.1424
 Red. masses --      2.7829                 1.8425                 1.5579
 Frc consts  --      0.0993                 0.0695                 0.0665
 IR Inten    --      3.5991                31.0511                73.6546

                      7                      8                      9
                      A                      A                      A
 Frequencies --    392.4322               501.5959               528.3581
 Red. masses --      2.8111                 2.7852                 5.5455
 Frc consts  --      0.2551                 0.4129                 0.9121
 IR Inten    --      6.4104                 4.2463                 6.2691

                     10                     11                     12
                      A                      A                      A
 Frequencies --    648.4914               716.2130               743.4311
 Red. masses --      3.3007                 3.8812                 4.7534
 Frc consts  --      0.8178                 1.1730                 1.5479
 IR Inten    --      2.4533                 7.9707                 2.7802

                     13                     14                     15
                      A                      A                      A
 Frequencies --    772.0478               812.8597               877.3479
 Red. masses --      3.3509                 2.7867                 2.4652
 Frc consts  --      1.1768                 1.0849                 1.1180
 IR Inten    --      2.4558                 3.0122                12.5882

                     16                     17                     18
                      A                      A                      A
 Frequencies --    920.2508               944.1041               963.5372
 Red. masses --      2.3514                 2.1388                 2.0290
 Frc consts  --      1.1732                 1.1232                 1.1098
 IR Inten    --     31.6242                11.3324                 4.4012

                     19                     20                     21
                      A                      A                      A
 Frequencies --    982.0380               994.3260              1008.2088
 Red. masses --      2.5160                 1.4653                 2.1518
 Frc consts  --      1.4296                 0.8535                 1.2887
 IR Inten    --     22.7304                10.3960                 8.6560

                     22                     23                     24
                      A                      A                      A
 Frequencies --   1052.2437              1077.6065              1101.1116
 Red. masses --      1.5413                 5.5174                 1.9243
 Frc consts  --      1.0054                 3.7749                 1.3746
 IR Inten    --      2.9804                39.5352                24.5891

                     25                     26                     27
                      A                      A                      A
 Frequencies --   1119.0591              1141.2209              1164.9168
 Red. masses --      2.3348                 1.7687                 1.6011
 Frc consts  --      1.7227                 1.3572                 1.2801
 IR Inten    --     77.7456                 6.6201                 1.8964

                     28                     29                     30
                      A                      A                      A
 Frequencies --   1190.6185              1193.5223              1221.5117
 Red. masses --      1.6729                 1.3257                 1.4920
 Frc consts  --      1.3972                 1.1126                 1.3117
 IR Inten    --     18.2027                19.0329                 8.5087

                     31                     32                     33
                      A                      A                      A
 Frequencies --   1234.3867              1272.7168              1298.2377
 Red. masses --      1.7013                 1.6063                 1.6184
 Frc consts  --      1.5273                 1.5330                 1.6071
 IR Inten    --     53.5432                11.4008                13.3343

                     34                     35                     36
                      A                      A                      A
 Frequencies --   1308.2994              1347.6841              1389.0439
 Red. masses --      1.6672                 2.0061                 1.5463
 Frc consts  --      1.6813                 2.1467                 1.7578
 IR Inten    --     12.8142                22.5681                13.0900

                     37                     38                     39
                      A                      A                      A
 Frequencies --   1406.5153              1446.5578              1487.9151
 Red. masses --      1.4659                 1.5779                 1.0492
 Frc consts  --      1.7086                 1.9454                 1.3685
 IR Inten    --      3.8312                 8.4522                 4.8540

                     40                     41                     42
                      A                      A                      A
 Frequencies --   1491.2549              1525.3588              3008.4174
 Red. masses --      1.0482                 1.0957                 1.0844
 Frc consts  --      1.3734                 1.5020                 5.7823
 IR Inten    --      6.1856                 0.6182                62.8772

                     43                     44                     45
                      A                      A                      A
 Frequencies --   3013.9280              3023.2618              3049.6566
 Red. masses --      1.0556                 1.0357                 1.1096
 Frc consts  --      5.6498                 5.5775                 6.0801
 IR Inten    --     71.1829                28.4647                38.3313

                     46                     47                     48
                      A                      A                      A
 Frequencies --   3086.6005              3094.5418              3110.2964
 Red. masses --      1.1008                 1.1002                 1.0871
 Frc consts  --      6.1789                 6.2077                 6.1962
 IR Inten    --     20.2072                16.7984                34.9550

                     49                     50                     51
                      A                      A                      A
 Frequencies --   3121.8509              3173.3330              3822.8234
 Red. masses --      1.0926                 1.0914                 1.0662
 Frc consts  --      6.2739                 6.4755                 9.1803
 IR Inten    --     45.8664                17.1970                24.5808

 - Thermochemistry -
 -------------------
 Temperature   298.150 Kelvin.  Pressure   1.00000 Atm.
 Atom     1 has atomic number  6 and mass  12.00000

 Molecular mass:   126.06808 amu.
 Principal axes and moments of inertia in atomic units:
                           1         2         3
     Eigenvalues --   636.824261118.893151316.88657
           X            0.99966  -0.02005   0.01656
           Y            0.02046   0.99947  -0.02533
           Z           -0.01604   0.02566   0.99954
 This molecule is an asymmetric top.
 Rotational symmetry number  1.
 Warning -- assumption of classical behavior for rotation
           may cause significant error
 Rotational temperatures (Kelvin)      0.13601     0.07741     0.06577
 Rotational constants (GHZ):           2.83397     1.61297     1.37046
 Zero-point vibrational energy     419425.8 (Joules/Mol)
                                  100.24516 (Kcal/Mol)
 Warning -- explicit consideration of   9 degrees of freedom as
           vibrations may cause significant error
 Vibrational temperatures:    254.58   275.30   296.54   354.12   364.18
          (Kelvin)            387.24   564.62   721.68   760.19   933.03
                             1030.47  1069.63  1110.80  1169.52  1262.31
                             1324.03  1358.35  1386.31  1412.93  1430.61
                             1450.59  1513.94  1550.43  1584.25  1610.07
                             1641.96  1676.05  1713.03  1717.21  1757.48
                             1776.00  1831.15  1867.87  1882.35  1939.01
                             1998.52  2023.66  2081.27  2140.78  2145.58
                             2194.65  4328.44  4336.36  4349.79  4387.77
                             4440.92  4452.35  4475.02  4491.64  4565.71
                             5500.18

 Zero-point correction=                           0.159751 (Hartree/Particle)
 Thermal correction to Energy=                    0.167584
 Thermal correction to Enthalpy=                  0.168528
 Thermal correction to Gibbs Free Energy=         0.127878
 Sum of electronic and zero-point Energies=           -422.984492
 Sum of electronic and thermal Energies=              -422.976659
 Sum of electronic and thermal Enthalpies=            -422.975715
 Sum of electronic and thermal Free Energies=         -423.016365

                     E (Thermal)             CV                S
                      KCal/Mol        Cal/Mol-Kelvin    Cal/Mol-Kelvin
 Total                  105.160             31.060             85.555
 Electronic               0.000              0.000              0.000
 Translational            0.889              2.981             40.409
 Rotational               0.889              2.981             28.330
 Vibrational            103.383             25.098             16.816
 Vibration     1          0.628              1.871              2.360
 Vibration     2          0.634              1.852              2.215
 Vibration     3          0.641              1.831              2.078
 Vibration     4          0.661              1.769              1.758
 Vibration     5          0.664              1.758              1.709
 Vibration     6          0.674              1.730              1.602
 Vibration     7          0.760              1.486              0.991
 Vibration     8          0.857              1.246              0.654
 Vibration     9          0.883              1.187              0.591

 Normal termination of Gaussian 09 at Mon Jan 27 23:39:38 2020.
