 Gaussian 09, Revision D.01,
 Gaussian 09:  ES64L-G09RevD.01 24-Apr-2013

 -----------------------------
 # b3lyp 6-31G(2df,p) opt Freq
 -----------------------------

 -----
 titel
 -----
 Symbolic Z-matrix:
 Charge =  0 Multiplicity = 1

 SCF Done:  E(RB3LYP) =  -423.183436688     A.U. after   14 cycles
 Optimization completed.
    -- Stationary point found.
 Normal termination of Gaussian 09 at Mon Jan 27 16:13:42 2020.

 ----------------------------------------------------------------------
 #N Geom=AllCheck Guess=TCheck SCRF=Check GenChk RB3LYP/6-31G(2df,p) Fr
 eq
 ----------------------------------------------------------------------

 Structure from the checkpoint file:  "/scratch/puck/g09_47eee1c2-9d08-4491-b7d3-418e78c0357b/Gau-56907.chk"
 -----
 titel
 -----
 Charge =  0 Multiplicity = 1

                         Standard orientation:
 ---------------------------------------------------------------------
 Center     Atomic      Atomic             Coordinates (Angstroms)
 Number     Number       Type             X           Y           Z
 ---------------------------------------------------------------------
      1          6           0       -1.831839   -0.042088    1.208547
      2          6           0       -0.981551   -0.191452   -0.047502
      3          8           0       -1.661258    0.294849   -1.191593
      4          6           0       -0.316857   -1.608232   -0.224555
      5          6           0        1.055357   -0.939978   -0.008500
      6          8           0        2.179072   -1.346766    0.104535
      7          6           0        0.432374    0.419063    0.034564
      8          6           0        0.936304    1.642015    0.764671
      9          6           0        0.943957    1.623843   -0.727655
     10          1           0       -2.745149   -0.645395    1.132819
     11          1           0       -1.288711   -0.373591    2.098489
     12          1           0       -2.124772    1.002686    1.351542
     13          1           0       -2.544973   -0.088353   -1.201109
     14          1           0       -0.584781   -2.384325    0.497709
     15          1           0       -0.436528   -1.996014   -1.240181
     16          1           0        0.196193    2.253863    1.269937
     17          1           0        1.878658    1.529693    1.290745
     18          1           0        0.189596    2.192520   -1.258939
     19          1           0        1.891489    1.505223   -1.241966
 ---------------------------------------------------------------------

 SCF Done:  E(RB3LYP) =  -423.183436688     A.U. after    1 cycles

 The electronic state is 1-A.
 Alpha  occ. eigenvalues --  -19.14535 -19.12675 -10.26145 -10.25034 -10.19975
 Alpha  occ. eigenvalues --  -10.19852 -10.19734 -10.18765 -10.18536  -1.03679
 Alpha  occ. eigenvalues --   -1.02895  -0.87768  -0.80801  -0.72572  -0.63595
 Alpha  occ. eigenvalues --   -0.61064  -0.59400  -0.51253  -0.49804  -0.49752
 Alpha  occ. eigenvalues --   -0.46196  -0.44522  -0.43099  -0.42073  -0.41431
 Alpha  occ. eigenvalues --   -0.38079  -0.37559  -0.36013  -0.35690  -0.34375
 Alpha  occ. eigenvalues --   -0.30843  -0.29206  -0.27062  -0.23438
 Alpha virt. eigenvalues --   -0.01747   0.06357   0.10029   0.10395   0.11971
 Alpha virt. eigenvalues --    0.13157   0.13538   0.15483   0.15982   0.17152
 Alpha virt. eigenvalues --    0.17582   0.18964   0.19988   0.21434   0.22740

 Mulliken charges:
               1
     1  C   -0.453041
     2  C    0.292379
     3  O   -0.473410
     4  C   -0.423356
     5  C    0.356566
     6  O   -0.321865
     7  C    0.222042
     8  C   -0.328215
     9  C   -0.296911
    10  H    0.110216
    11  H    0.126186
    12  H    0.125076
    13  H    0.278283
    14  H    0.120946
    15  H    0.132882
    16  H    0.122844
    17  H    0.135069
    18  H    0.140372
    19  H    0.133936
 Sum of Mulliken charges =   0.00000

 Dipole moment (field-independent basis, Debye):
    X=             -3.2186    Y=              0.7534    Z=              0.5724  Tot=              3.3548
 Quadrupole moment (field-independent basis, Debye-Ang):
   XX=            -54.5377   YY=            -53.6278   ZZ=            -52.7822
   XY=              6.4250   XZ=             -0.5680   YZ=              1.3838

  Exact polarizability:  82.301   2.687  82.173   0.237   0.511  66.313
 Approx polarizability: 119.304  -1.715 119.157   3.744  -1.217  99.570

                      1                      2                      3
                      A                      A                      A
 Frequencies --     54.3804               161.1034               196.3680
 Red. masses --      3.7187                 3.5483                 3.5290
 Frc consts  --      0.0065                 0.0543                 0.0802
 IR Inten    --      3.2068                 0.6867                 1.2702

                      4                      5                      6
                      A                      A                      A
 Frequencies --    200.5959               264.3237               287.5203
 Red. masses --      2.2610                 1.1233                 1.1087
 Frc consts  --      0.0536                 0.0462                 0.0540
 IR Inten    --      1.4042                 0.1396                72.5136

                      7                      8                      9
                      A                      A                      A
 Frequencies --    313.5061               333.0858               373.8867
 Red. masses --      2.2959                 3.0363                 3.5819
 Frc consts  --      0.1330                 0.1985                 0.2950
 IR Inten    --     10.0635                 9.8606                13.4983

                     10                     11                     12
                      A                      A                      A
 Frequencies --    458.8660               522.8737               570.0582
 Red. masses --      3.9759                 2.0017                 2.8158
 Frc consts  --      0.4932                 0.3224                 0.5391
 IR Inten    --      6.0783                 1.6352                 2.1901

                     13                     14                     15
                      A                      A                      A
 Frequencies --    601.1592               633.2987               758.3504
 Red. masses --      4.2513                 4.2192                 1.5459
 Frc consts  --      0.9052                 0.9970                 0.5238
 IR Inten    --      1.9241                 0.7691                 0.3535

                     16                     17                     18
                      A                      A                      A
 Frequencies --    805.9784               822.2600               866.9325
 Red. masses --      1.5727                 2.2497                 2.2938
 Frc consts  --      0.6019                 0.8962                 1.0157
 IR Inten    --      0.8164                 3.0228                 5.9977

                     19                     20                     21
                      A                      A                      A
 Frequencies --    908.1607               949.7970               964.8034
 Red. masses --      2.8107                 1.2246                 2.1399
 Frc consts  --      1.3658                 0.6509                 1.1736
 IR Inten    --      3.6698                 4.7525                27.0825

                     22                     23                     24
                      A                      A                      A
 Frequencies --    994.5090              1033.8572              1058.5416
 Red. masses --      3.6362                 2.4567                 1.3934
 Frc consts  --      2.1189                 1.5471                 0.9199
 IR Inten    --     10.9017                56.4353                 3.0152

                     25                     26                     27
                      A                      A                      A
 Frequencies --   1068.7889              1089.3616              1110.9231
 Red. masses --      1.5132                 1.5675                 1.7145
 Frc consts  --      1.0184                 1.0960                 1.2467
 IR Inten    --     12.7630                18.0392                63.2486

                     28                     29                     30
                      A                      A                      A
 Frequencies --   1168.3129              1184.9532              1198.1426
 Red. masses --      2.4149                 1.5971                 1.3156
 Frc consts  --      1.9420                 1.3213                 1.1127
 IR Inten    --     20.5995                16.7895                 3.1590

                     31                     32                     33
                      A                      A                      A
 Frequencies --   1235.8122              1252.5344              1336.0775
 Red. masses --      2.7570                 2.1264                 2.6279
 Frc consts  --      2.4808                 1.9655                 2.7639
 IR Inten    --     22.9709                75.7637                39.2489

                     34                     35                     36
                      A                      A                      A
 Frequencies --   1394.0460              1407.1076              1430.9357
 Red. masses --      1.8243                 1.2941                 1.2024
 Frc consts  --      2.0888                 1.5097                 1.4505
 IR Inten    --     60.5790                 9.9772                 2.2544

                     37                     38                     39
                      A                      A                      A
 Frequencies --   1457.2090              1485.5834              1493.9399
 Red. masses --      1.0888                 1.2118                 1.1921
 Frc consts  --      1.3622                 1.5757                 1.5676
 IR Inten    --      3.2908                 5.5249                 3.4611

                     40                     41                     42
                      A                      A                      A
 Frequencies --   1495.6041              1877.3545              3024.2337
 Red. masses --      1.0858                12.5983                 1.0384
 Frc consts  --      1.4310                26.1611                 5.5954
 IR Inten    --      1.4470               266.7637                20.7283

                     43                     44                     45
                      A                      A                      A
 Frequencies --   3058.6251              3091.6130              3114.1268
 Red. masses --      1.0581                 1.0972                 1.1024
 Frc consts  --      5.8322                 6.1788                 6.2989
 IR Inten    --      7.1910                21.7454                12.6709

                     46                     47                     48
                      A                      A                      A
 Frequencies --   3119.9780              3129.6492              3139.2802
 Red. masses --      1.1061                 1.0530                 1.0538
 Frc consts  --      6.3439                 6.0767                 6.1187
 IR Inten    --     11.3795                11.0731                 8.3856

                     49                     50                     51
                      A                      A                      A
 Frequencies --   3215.6634              3236.1108              3806.2819
 Red. masses --      1.1182                 1.1169                 1.0659
 Frc consts  --      6.8127                 6.8917                 9.0985
 IR Inten    --      1.7243                 3.4260                15.8105

 - Thermochemistry -
 -------------------
 Temperature   298.150 Kelvin.  Pressure   1.00000 Atm.
 Atom     1 has atomic number  6 and mass  12.00000

 Molecular mass:   126.06808 amu.
 Principal axes and moments of inertia in atomic units:
                           1         2         3
     Eigenvalues --   838.713961109.015531437.29350
           X            0.99224   0.12033  -0.03148
           Y           -0.11997   0.99269   0.01299
           Z            0.03282  -0.00911   0.99942
 This molecule is an asymmetric top.
 Rotational symmetry number  1.
 Warning -- assumption of classical behavior for rotation
           may cause significant error
 Rotational temperatures (Kelvin)      0.10327     0.07810     0.06026
 Rotational constants (GHZ):           2.15180     1.62734     1.25565
 Zero-point vibrational energy     411255.0 (Joules/Mol)
                                   98.29230 (Kcal/Mol)
 Warning -- explicit consideration of  13 degrees of freedom as
           vibrations may cause significant error
 Vibrational temperatures:     78.24   231.79   282.53   288.61   380.30
          (Kelvin)            413.68   451.06   479.24   537.94   660.21
                              752.30   820.19   864.93   911.17  1091.10
                             1159.62  1183.05  1247.32  1306.64  1366.54
                             1388.14  1430.87  1487.49  1523.00  1537.75
                             1567.35  1598.37  1680.94  1704.88  1723.86
                             1778.06  1802.12  1922.32  2005.72  2024.51
                             2058.79  2096.60  2137.42  2149.44  2151.84
                             2701.09  4351.19  4400.67  4448.14  4480.53
                             4488.95  4502.86  4516.72  4626.62  4656.04
                             5476.38

 Zero-point correction=                           0.156639 (Hartree/Particle)
 Thermal correction to Energy=                    0.165766
 Thermal correction to Enthalpy=                  0.166710
 Thermal correction to Gibbs Free Energy=         0.122999
 Sum of electronic and zero-point Energies=           -423.026798
 Sum of electronic and thermal Energies=              -423.017671
 Sum of electronic and thermal Enthalpies=            -423.016727
 Sum of electronic and thermal Free Energies=         -423.060438

                     E (Thermal)             CV                S
                      KCal/Mol        Cal/Mol-Kelvin    Cal/Mol-Kelvin
 Total                  104.020             34.913             91.997
 Electronic               0.000              0.000              0.000
 Translational            0.889              2.981             40.409
 Rotational               0.889              2.981             28.682
 Vibrational            102.242             28.952             22.907
 Vibration     1          0.596              1.976              4.651
 Vibration     2          0.622              1.890              2.537
 Vibration     3          0.636              1.845              2.167
 Vibration     4          0.638              1.839              2.128
 Vibration     5          0.671              1.738              1.633
 Vibration     6          0.685              1.697              1.489
 Vibration     7          0.701              1.648              1.344
 Vibration     8          0.715              1.609              1.245
 Vibration     9          0.745              1.526              1.064
 Vibration    10          0.817              1.341              0.769
 Vibration    11          0.878              1.199              0.603
 Vibration    12          0.926              1.096              0.504
 Vibration    13          0.959              1.029              0.448

 Optimization completed.
    -- Stationary point found.
 Normal termination of Gaussian 09 at Mon Jan 27 16:57:18 2020.
