 Gaussian 09, Revision D.01,
 Gaussian 09:  ES64L-G09RevD.01 24-Apr-2013

 -----------------------------
 # b3lyp 6-31G(2df,p) opt Freq
 -----------------------------

 -----
 titel
 -----
 Symbolic Z-matrix:
 Charge =  0 Multiplicity = 1

 SCF Done:  E(RB3LYP) =  -423.151088305     A.U. after   14 cycles
 Optimization completed.
    -- Stationary point found.
 Normal termination of Gaussian 09 at Mon Jan 27 18:05:50 2020.

 ----------------------------------------------------------------------
 #N Geom=AllCheck Guess=TCheck SCRF=Check GenChk RB3LYP/6-31G(2df,p) Fr
 eq
 ----------------------------------------------------------------------

 Structure from the checkpoint file:  "/scratch/puck/g09_0601f0ee-e43a-473e-8e88-6c1a57fb40a6/Gau-89106.chk"
 -----
 titel
 -----
 Charge =  0 Multiplicity = 1

                         Standard orientation:
 ---------------------------------------------------------------------
 Center     Atomic      Atomic             Coordinates (Angstroms)
 Number     Number       Type             X           Y           Z
 ---------------------------------------------------------------------
      1          6           0       -2.191885    0.419333   -0.447591
      2          6           0       -0.857380   -0.147680   -0.065929
      3          6           0       -0.334946   -1.474198   -0.658729
      4          6           0        1.087035   -1.231561   -0.132015
      5          8           0        1.475782   -0.044355   -0.886094
      6          6           0        0.546221    0.661950   -0.054328
      7          6           0        0.606653    2.156358   -0.071389
      8          6           0        0.714221   -0.311113    1.117288
      9          8           0       -0.684404   -0.410632    1.368265
     10          1           0       -2.225099    0.613653   -1.524219
     11          1           0       -2.994625   -0.284735   -0.204131
     12          1           0       -2.389931    1.355810    0.081680
     13          1           0       -0.858008   -2.326237   -0.219249
     14          1           0       -0.340170   -1.529212   -1.749126
     15          1           0        1.835551   -2.020980   -0.131385
     16          1           0        1.620412    2.504417    0.146453
     17          1           0        0.313341    2.547607   -1.051337
     18          1           0       -0.072906    2.567111    0.681109
     19          1           0        1.360891   -0.226072    1.989001
 ---------------------------------------------------------------------

 SCF Done:  E(RB3LYP) =  -423.151088305     A.U. after    1 cycles

 The electronic state is 1-A.
 Alpha  occ. eigenvalues --  -19.13676 -19.13571 -10.24033 -10.23903 -10.23581
 Alpha  occ. eigenvalues --  -10.23327 -10.18495 -10.18386 -10.18123  -1.07888
 Alpha  occ. eigenvalues --   -1.01773  -0.77740  -0.76067  -0.73729  -0.67591
 Alpha  occ. eigenvalues --   -0.64284  -0.57275  -0.50434  -0.50237  -0.49395
 Alpha  occ. eigenvalues --   -0.46683  -0.43555  -0.42548  -0.40914  -0.40566
 Alpha  occ. eigenvalues --   -0.40055  -0.37426  -0.36609  -0.35855  -0.33746
 Alpha  occ. eigenvalues --   -0.30986  -0.29944  -0.25209  -0.23654
 Alpha virt. eigenvalues --    0.07920   0.08963   0.11225   0.12192   0.12958
 Alpha virt. eigenvalues --    0.13849   0.14321   0.15025   0.15689   0.16838
 Alpha virt. eigenvalues --    0.17167   0.18098   0.18592   0.19935   0.21436

 Mulliken charges:
               1
     1  C   -0.508715
     2  C    0.341562
     3  C   -0.242205
     4  C    0.019531
     5  O   -0.329289
     6  C    0.380414
     7  C   -0.523733
     8  C    0.018988
     9  O   -0.332612
    10  H    0.127511
    11  H    0.133149
    12  H    0.127484
    13  H    0.106887
    14  H    0.107056
    15  H    0.083213
    16  H    0.133014
    17  H    0.131438
    18  H    0.135913
    19  H    0.090396
 Sum of Mulliken charges =   0.00000

 Dipole moment (field-independent basis, Debye):
    X=             -0.3937    Y=              0.2666    Z=             -0.2253  Tot=              0.5261
 Quadrupole moment (field-independent basis, Debye-Ang):
   XX=            -53.5621   YY=            -49.5237   ZZ=            -55.6664
   XY=             -1.2916   XZ=              5.2046   YZ=              0.8933

  Exact polarizability:  77.415  -1.167  78.475   3.760   1.253  66.398
 Approx polarizability: 112.173  -0.894 108.359  -0.719   0.169 106.744

                      1                      2                      3
                      A                      A                      A
 Frequencies --    176.8286               185.5965               206.5707
 Red. masses --      1.0892                 1.2420                 2.1599
 Frc consts  --      0.0201                 0.0252                 0.0543
 IR Inten    --      0.2327                 0.0650                 0.4480

                      4                      5                      6
                      A                      A                      A
 Frequencies --    221.0595               301.3943               335.2358
 Red. masses --      1.9358                 2.9222                 2.5471
 Frc consts  --      0.0557                 0.1564                 0.1687
 IR Inten    --      0.1066                 1.7988                 2.2079

                      7                      8                      9
                      A                      A                      A
 Frequencies --    466.9908               524.0446               530.4677
 Red. masses --      1.8550                 4.3685                 5.0149
 Frc consts  --      0.2383                 0.7068                 0.8314
 IR Inten    --      1.2260                 8.9190                11.4418

                     10                     11                     12
                      A                      A                      A
 Frequencies --    613.7314               646.1825               705.3313
 Red. masses --      4.0189                 3.0484                 4.7737
 Frc consts  --      0.8919                 0.7500                 1.3992
 IR Inten    --      0.6154                 0.8040                 2.7475

                     13                     14                     15
                      A                      A                      A
 Frequencies --    764.0678               797.1418               839.4590
 Red. masses --      4.1907                 3.1240                 3.8658
 Frc consts  --      1.4415                 1.1696                 1.6051
 IR Inten    --      1.9940                18.0176                16.4311

                     16                     17                     18
                      A                      A                      A
 Frequencies --    865.9971               880.2342               909.8316
 Red. masses --      2.0389                 2.2093                 2.6273
 Frc consts  --      0.9009                 1.0086                 1.2814
 IR Inten    --     12.3056                 1.2513                 6.0290

                     19                     20                     21
                      A                      A                      A
 Frequencies --    938.9414               950.9916               985.5952
 Red. masses --      3.1354                 2.0992                 1.7802
 Frc consts  --      1.6286                 1.1185                 1.0189
 IR Inten    --     23.3990                25.4247                 5.2839

                     22                     23                     24
                      A                      A                      A
 Frequencies --   1020.9392              1054.7475              1100.2206
 Red. masses --      3.0441                 1.4686                 1.6646
 Frc consts  --      1.8694                 0.9626                 1.1872
 IR Inten    --     33.1351                11.9647                 8.7153

                     25                     26                     27
                      A                      A                      A
 Frequencies --   1133.7131              1139.1090              1163.0563
 Red. masses --      2.0036                 1.6638                 2.2030
 Frc consts  --      1.5173                 1.2720                 1.7558
 IR Inten    --     31.2334                 8.2970                11.4688

                     28                     29                     30
                      A                      A                      A
 Frequencies --   1172.2564              1229.1273              1250.9026
 Red. masses --      1.7426                 1.8584                 1.7608
 Frc consts  --      1.4109                 1.6542                 1.6233
 IR Inten    --      0.8298                 4.9508                10.3169

                     31                     32                     33
                      A                      A                      A
 Frequencies --   1272.0163              1298.9853              1338.8193
 Red. masses --      1.7308                 1.7479                 2.5851
 Frc consts  --      1.6500                 1.7377                 2.7301
 IR Inten    --     28.9699                 6.9152                 8.1312

                     34                     35                     36
                      A                      A                      A
 Frequencies --   1366.0097              1415.4801              1417.8169
 Red. masses --      2.0228                 1.5031                 1.8875
 Frc consts  --      2.2238                 1.7743                 2.2355
 IR Inten    --      2.4227                 9.3887                13.2222

                     37                     38                     39
                      A                      A                      A
 Frequencies --   1462.3649              1476.6840              1477.6691
 Red. masses --      1.1341                 1.0545                 1.0502
 Frc consts  --      1.4289                 1.3548                 1.3510
 IR Inten    --      3.5373                 4.9704                 2.0114

                     40                     41                     42
                      A                      A                      A
 Frequencies --   1492.7026              1494.4068              3036.8641
 Red. masses --      1.0576                 1.0483                 1.0353
 Frc consts  --      1.3885                 1.3794                 5.6255
 IR Inten    --      5.4780                 4.8271                13.1995

                     43                     44                     45
                      A                      A                      A
 Frequencies --   3039.4219              3074.6457              3105.2305
 Red. masses --      1.0354                 1.0573                 1.1007
 Frc consts  --      5.6355                 5.8888                 6.2530
 IR Inten    --     18.9993                17.4499                13.8435

                     46                     47                     48
                      A                      A                      A
 Frequencies --   3107.6106              3114.6564              3119.9185
 Red. masses --      1.1005                 1.1014                 1.1013
 Frc consts  --      6.2617                 6.2955                 6.3158
 IR Inten    --     10.4365                13.4405                13.6841

                     49                     50                     51
                      A                      A                      A
 Frequencies --   3136.1258              3137.6164              3150.4937
 Red. masses --      1.0939                 1.1063                 1.0933
 Frc consts  --      6.3387                 6.4168                 6.3937
 IR Inten    --     28.6770                10.0084                44.7731

 - Thermochemistry -
 -------------------
 Temperature   298.150 Kelvin.  Pressure   1.00000 Atm.
 Atom     1 has atomic number  6 and mass  12.00000

 Molecular mass:   126.06808 amu.
 Principal axes and moments of inertia in atomic units:
                           1         2         3
     Eigenvalues --   790.32449 869.684531117.26204
           X            0.99645  -0.03726   0.07550
           Y            0.03567   0.99911   0.02236
           Z           -0.07627  -0.01959   0.99689
 This molecule is an asymmetric top.
 Rotational symmetry number  1.
 Warning -- assumption of classical behavior for rotation
           may cause significant error
 Rotational temperatures (Kelvin)      0.10959     0.09959     0.07752
 Rotational constants (GHZ):           2.28354     2.07517     1.61532
 Zero-point vibrational energy     416571.4 (Joules/Mol)
                                   99.56296 (Kcal/Mol)
 Warning -- explicit consideration of  10 degrees of freedom as
           vibrations may cause significant error
 Vibrational temperatures:    254.42   267.03   297.21   318.05   433.64
          (Kelvin)            482.33   671.89   753.98   763.22   883.02
                              929.71  1014.81  1099.32  1146.91  1207.79
                             1245.98  1266.46  1309.04  1350.93  1368.26
                             1418.05  1468.90  1517.54  1582.97  1631.16
                             1638.92  1673.38  1686.61  1768.44  1799.77
                             1830.15  1868.95  1926.26  1965.38  2036.56
                             2039.92  2104.01  2124.62  2126.03  2147.66
                             2150.12  4369.36  4373.04  4423.72  4467.73
                             4471.15  4481.29  4488.86  4512.18  4514.32
                             4532.85

 Zero-point correction=                           0.158664 (Hartree/Particle)
 Thermal correction to Energy=                    0.166431
 Thermal correction to Enthalpy=                  0.167375
 Thermal correction to Gibbs Free Energy=         0.127000
 Sum of electronic and zero-point Energies=           -422.992425
 Sum of electronic and thermal Energies=              -422.984658
 Sum of electronic and thermal Enthalpies=            -422.983714
 Sum of electronic and thermal Free Energies=         -423.024088

                     E (Thermal)             CV                S
                      KCal/Mol        Cal/Mol-Kelvin    Cal/Mol-Kelvin
 Total                  104.437             31.294             84.975
 Electronic               0.000              0.000              0.000
 Translational            0.889              2.981             40.409
 Rotational               0.889              2.981             28.131
 Vibrational            102.659             25.333             16.435
 Vibration     1          0.628              1.871              2.362
 Vibration     2          0.632              1.860              2.271
 Vibration     3          0.641              1.831              2.074
 Vibration     4          0.648              1.809              1.950
 Vibration     5          0.693              1.671              1.409
 Vibration     6          0.716              1.605              1.235
 Vibration     7          0.824              1.323              0.746
 Vibration     8          0.879              1.197              0.601
 Vibration     9          0.885              1.183              0.586
 Vibration    10          0.973              1.003              0.427

 Optimization completed.
    -- Stationary point found.
 Normal termination of Gaussian 09 at Mon Jan 27 18:52:24 2020.
