 Gaussian 09, Revision D.01,
 Gaussian 09:  ES64L-G09RevD.01 24-Apr-2013

 -----------------------------
 # b3lyp 6-31G(2df,p) opt Freq
 -----------------------------

 -----
 titel
 -----
 Symbolic Z-matrix:
 Charge =  0 Multiplicity = 1

 SCF Done:  E(RB3LYP) =  -423.202660673     A.U. after   14 cycles
 SCF Done:  E(RB3LYP) =  -423.202660527     A.U. after    7 cycles
 SCF Done:  E(RB3LYP) =  -423.202660693     A.U. after    7 cycles
 Optimization completed.
    -- Stationary point found.
 Normal termination of Gaussian 09 at Mon Jan 27 14:06:40 2020.

 ----------------------------------------------------------------------
 #N Geom=AllCheck Guess=TCheck SCRF=Check GenChk RB3LYP/6-31G(2df,p) Fr
 eq
 ----------------------------------------------------------------------

 Structure from the checkpoint file:  "/scratch/puck/g09_4df2dd73-1f87-4c02-86b3-3491ce90e892/Gau-160116.chk"
 -----
 titel
 -----
 Charge =  0 Multiplicity = 1

                         Standard orientation:
 ---------------------------------------------------------------------
 Center     Atomic      Atomic             Coordinates (Angstroms)
 Number     Number       Type             X           Y           Z
 ---------------------------------------------------------------------
      1          6           0       -4.678921    0.528147    0.000201
      2          6           0       -3.330631   -0.021345   -0.000023
      3          6           0       -2.220096   -0.485829   -0.000225
      4          6           0       -0.860206   -1.011787   -0.000117
      5          6           0        0.179667    0.110084   -0.000078
      6          8           0        1.471568   -0.520388    0.000007
      7          6           0        2.533742    0.315101   -0.000011
      8          6           0        3.825532   -0.466617    0.000197
      9          8           0        2.436241    1.515473   -0.000129
     10          1           0       -5.240626    0.206853   -0.883862
     11          1           0       -5.240277    0.207015    0.884545
     12          1           0       -4.660560    1.623561    0.000097
     13          1           0       -0.694696   -1.648106    0.878032
     14          1           0       -0.694585   -1.648139   -0.878221
     15          1           0        0.080372    0.746920   -0.883421
     16          1           0        0.080270    0.746951    0.883233
     17          1           0        4.667314    0.224583   -0.000648
     18          1           0        3.873186   -1.112616    0.881430
     19          1           0        3.872609   -1.114224   -0.879873
 ---------------------------------------------------------------------

 SCF Done:  E(RB3LYP) =  -423.202660693     A.U. after    1 cycles

 The electronic state is 1-A.
 Alpha  occ. eigenvalues --  -19.18002 -19.12268 -10.30547 -10.24131 -10.21020
 Alpha  occ. eigenvalues --  -10.20374 -10.19401 -10.17474 -10.17033  -1.09893
 Alpha  occ. eigenvalues --   -1.01153  -0.80671  -0.76964  -0.74659  -0.69133
 Alpha  occ. eigenvalues --   -0.64108  -0.56913  -0.49815  -0.49554  -0.47210
 Alpha  occ. eigenvalues --   -0.46678  -0.44992  -0.43398  -0.42620  -0.42587
 Alpha  occ. eigenvalues --   -0.41003  -0.39963  -0.39654  -0.35865  -0.35310
 Alpha  occ. eigenvalues --   -0.29933  -0.26880  -0.25222  -0.25005
 Alpha virt. eigenvalues --    0.01636   0.05449   0.06102   0.10133   0.11029
 Alpha virt. eigenvalues --    0.11683   0.13740   0.14495   0.14814   0.17043
 Alpha virt. eigenvalues --    0.17682   0.17915   0.18309   0.20856   0.21866

 Mulliken charges:
               1
     1  C   -0.496803
     2  C    0.085692
     3  C    0.030945
     4  C   -0.356723
     5  C   -0.051329
     6  O   -0.238620
     7  C    0.425131
     8  C   -0.478687
     9  O   -0.346033
    10  H    0.148273
    11  H    0.148272
    12  H    0.149806
    13  H    0.135285
    14  H    0.135278
    15  H    0.131019
    16  H    0.131013
    17  H    0.148625
    18  H    0.149439
    19  H    0.149418
 Sum of Mulliken charges =   0.00000

 Dipole moment (field-independent basis, Debye):
    X=             -0.7310    Y=             -1.6453    Z=              0.0007  Tot=              1.8004
 Quadrupole moment (field-independent basis, Debye-Ang):
   XX=            -42.8337   YY=            -56.9564   ZZ=            -51.7999
   XY=             -7.8351   XZ=              0.0002   YZ=              0.0004

  Exact polarizability: 120.485 -10.107  69.969  -0.002   0.000  56.054
 Approx polarizability: 145.462 -17.670 112.338  -0.007   0.001  83.588

                      1                      2                      3
                      A                      A                      A
 Frequencies --     12.8100                35.3865                46.0370
 Red. masses --      1.0334                 1.9395                 2.6711
 Frc consts  --      0.0001                 0.0014                 0.0033
 IR Inten    --      0.0404                 1.0127                 0.9694

                      4                      5                      6
                      A                      A                      A
 Frequencies --     59.8207                63.7435               172.6773
 Red. masses --      1.4751                 4.0302                 4.2919
 Frc consts  --      0.0031                 0.0096                 0.0754
 IR Inten    --      0.1232                 1.1504                 1.1412

                      7                      8                      9
                      A                      A                      A
 Frequencies --    176.0410               230.0797               277.9580
 Red. masses --      2.6739                 2.9294                 4.1724
 Frc consts  --      0.0488                 0.0914                 0.1899
 IR Inten    --      0.1785                12.1356                 3.6379

                     10                     11                     12
                      A                      A                      A
 Frequencies --    324.3241               392.1534               417.2945
 Red. masses --      4.7913                 3.9816                 3.6425
 Frc consts  --      0.2969                 0.3608                 0.3737
 IR Inten    --     16.1842                 0.0557                 1.1059

                     13                     14                     15
                      A                      A                      A
 Frequencies --    509.1674               606.5601               648.4124
 Red. masses --      5.0131                 2.5926                 4.6557
 Frc consts  --      0.7657                 0.5620                 1.1533
 IR Inten    --      9.0243                 4.8443                 4.9341

                     16                     17                     18
                      A                      A                      A
 Frequencies --    770.1002               783.6388               920.3102
 Red. masses --      3.9541                 1.1526                 5.1625
 Frc consts  --      1.3816                 0.4170                 2.5762
 IR Inten    --      1.2948                 0.1503                12.6680

                     19                     20                     21
                      A                      A                      A
 Frequencies --    980.8704              1050.6474              1052.7540
 Red. masses --      2.2868                 1.4182                 1.4391
 Frc consts  --      1.2963                 0.9223                 0.9397
 IR Inten    --      0.8636                 0.7484                 1.2391

                     22                     23                     24
                      A                      A                      A
 Frequencies --   1064.3599              1067.9435              1076.9848
 Red. masses --      1.8016                 3.4211                 3.5536
 Frc consts  --      1.2025                 2.2989                 2.4285
 IR Inten    --      5.3460               125.4804                26.2152

                     25                     26                     27
                      A                      A                      A
 Frequencies --   1085.6599              1168.9318              1229.4309
 Red. masses --      1.5819                 3.1271                 1.1821
 Frc consts  --      1.0985                 2.5175                 1.0527
 IR Inten    --      2.0106                 0.3463                 1.6097

                     28                     29                     30
                      A                      A                      A
 Frequencies --   1265.5029              1294.4751              1312.1724
 Red. masses --      3.6050                 1.0857                 1.5332
 Frc consts  --      3.4015                 1.0718                 1.5553
 IR Inten    --    492.2075                 0.3074                 0.7658

                     31                     32                     33
                      A                      A                      A
 Frequencies --   1389.4940              1411.9599              1415.2647
 Red. masses --      1.3021                 1.5651                 1.2601
 Frc consts  --      1.4811                 1.8384                 1.4871
 IR Inten    --     30.2662                25.2185                 6.9362

                     34                     35                     36
                      A                      A                      A
 Frequencies --   1469.5145              1476.2131              1478.3061
 Red. masses --      1.0520                 1.0465                 1.0396
 Frc consts  --      1.3384                 1.3436                 1.3386
 IR Inten    --     11.7086                 6.3766                 5.3325

                     37                     38                     39
                      A                      A                      A
 Frequencies --   1478.9546              1479.0840              1514.4675
 Red. masses --      1.0594                 1.0645                 1.0860
 Frc consts  --      1.3653                 1.3720                 1.4676
 IR Inten    --      1.2120                 6.1596                 4.8585

                     40                     41                     42
                      A                      A                      A
 Frequencies --   1827.4215              2377.6619              3026.0396
 Red. masses --     11.2314                11.8225                 1.0580
 Frc consts  --     22.0984                39.3786                 5.7083
 IR Inten    --    217.3985                 1.4362                16.0995

                     43                     44                     45
                      A                      A                      A
 Frequencies --   3027.4609              3057.2322              3057.3995
 Red. masses --      1.0348                 1.0365                 1.1018
 Frc consts  --      5.5882                 5.7079                 6.0684
 IR Inten    --     33.1933                 1.7164                 5.6186

                     46                     47                     48
                      A                      A                      A
 Frequencies --   3063.3881              3088.0720              3088.7437
 Red. masses --      1.0564                 1.1003                 1.1001
 Frc consts  --      5.8407                 6.1819                 6.1836
 IR Inten    --     16.2917                10.5449                10.1230

                     49                     50                     51
                      A                      A                      A
 Frequencies --   3113.6400              3121.8650              3169.6856
 Red. masses --      1.1094                 1.0993                 1.1027
 Frc consts  --      6.3370                 6.3123                 6.5275
 IR Inten    --     21.9990                 5.5240                 7.4331

 - Thermochemistry -
 -------------------
 Temperature   298.150 Kelvin.  Pressure   1.00000 Atm.
 Atom     1 has atomic number  6 and mass  12.00000

 Molecular mass:   126.06808 amu.
 Principal axes and moments of inertia in atomic units:
                           1         2         3
     Eigenvalues --   290.611563511.310963757.16903
           X            0.99987  -0.01632   0.00000
           Y            0.01632   0.99987   0.00000
           Z            0.00000   0.00000   1.00000
 This molecule is an asymmetric top.
 Rotational symmetry number  1.
 Rotational temperatures (Kelvin)      0.29804     0.02467     0.02305
 Rotational constants (GHZ):           6.21015     0.51398     0.48035
 Zero-point vibrational energy     408094.8 (Joules/Mol)
                                   97.53699 (Kcal/Mol)
 Warning -- explicit consideration of  14 degrees of freedom as
           vibrations may cause significant error
 Vibrational temperatures:     18.43    50.91    66.24    86.07    91.71
          (Kelvin)            248.44   253.28   331.03   399.92   466.63
                              564.22   600.39   732.58   872.70   932.92
                             1108.00  1127.48  1324.12  1411.25  1511.65
                             1514.68  1531.37  1536.53  1549.54  1562.02
                             1681.83  1768.87  1820.77  1862.46  1887.92
                             1999.17  2031.49  2036.25  2114.30  2123.94
                             2126.95  2127.88  2128.07  2178.98  2629.25
                             3420.92  4353.79  4355.84  4398.67  4398.91
                             4407.53  4443.04  4444.01  4479.83  4491.66
                             4560.46

 Zero-point correction=                           0.155435 (Hartree/Particle)
 Thermal correction to Energy=                    0.166745
 Thermal correction to Enthalpy=                  0.167689
 Thermal correction to Gibbs Free Energy=         0.114862
 Sum of electronic and zero-point Energies=           -423.047226
 Sum of electronic and thermal Energies=              -423.035916
 Sum of electronic and thermal Enthalpies=            -423.034971
 Sum of electronic and thermal Free Energies=         -423.087799

                     E (Thermal)             CV                S
                      KCal/Mol        Cal/Mol-Kelvin    Cal/Mol-Kelvin
 Total                  104.634             36.637            111.184
 Electronic               0.000              0.000              0.000
 Translational            0.889              2.981             40.409
 Rotational               0.889              2.981             29.729
 Vibrational            102.857             30.676             41.047
 Vibration     1          0.593              1.987              7.519
 Vibration     2          0.594              1.982              5.502
 Vibration     3          0.595              1.979              4.981
 Vibration     4          0.597              1.973              4.463
 Vibration     5          0.597              1.972              4.338
 Vibration     6          0.626              1.876              2.406
 Vibration     7          0.628              1.872              2.370
 Vibration     8          0.652              1.795              1.878
 Vibration     9          0.679              1.714              1.546
 Vibration    10          0.709              1.627              1.288
 Vibration    11          0.760              1.487              0.992
 Vibration    12          0.780              1.433              0.901
 Vibration    13          0.864              1.230              0.636
 Vibration    14          0.965              1.018              0.439

 Normal termination of Gaussian 09 at Mon Jan 27 14:36:50 2020.
