 Gaussian 09, Revision D.01,
 Gaussian 09:  ES64L-G09RevD.01 24-Apr-2013

 -----------------------------
 # b3lyp 6-31G(2df,p) opt Freq
 -----------------------------

 -----
 titel
 -----
 Symbolic Z-matrix:
 Charge =  0 Multiplicity = 1

 SCF Done:  E(RB3LYP) =  -423.152914701     A.U. after   13 cycles
 SCF Done:  E(RB3LYP) =  -423.152914979     A.U. after    6 cycles
 Optimization completed.
    -- Stationary point found.
 Normal termination of Gaussian 09 at Mon Jan 27 11:24:26 2020.

 ----------------------------------------------------------------------
 #N Geom=AllCheck Guess=TCheck SCRF=Check GenChk RB3LYP/6-31G(2df,p) Fr
 eq
 ----------------------------------------------------------------------

 Structure from the checkpoint file:  "/scratch/puck/g09_173157ca-283a-4da4-99ed-0a325f4709d3/Gau-164695.chk"
 -----
 titel
 -----
 Charge =  0 Multiplicity = 1

                         Standard orientation:
 ---------------------------------------------------------------------
 Center     Atomic      Atomic             Coordinates (Angstroms)
 Number     Number       Type             X           Y           Z
 ---------------------------------------------------------------------
      1          6           0       -2.103969   -0.524180    0.015984
      2          6           0       -1.064119    0.189668   -0.861657
      3          6           0       -0.344033    1.540321   -0.739152
      4          6           0        0.722544    1.210022    0.348072
      5          6           0       -0.136052    0.448396    1.357669
      6          6           0       -0.659223   -0.593276    0.367727
      7          8           0        0.286684   -1.616088    0.202451
      8          6           0        1.370783   -1.008513   -0.507720
      9          8           0        1.748966    0.286290   -0.068116
     10          1           0       -2.753012    0.012441    0.702706
     11          1           0       -2.579816   -1.364092   -0.480395
     12          1           0       -0.948144   -0.314774   -1.814391
     13          1           0        0.104865    1.828674   -1.693185
     14          1           0       -0.965740    2.377407   -0.399479
     15          1           0        1.269478    2.081765    0.716830
     16          1           0        0.442057   -0.012357    2.159202
     17          1           0       -0.925795    1.074962    1.782346
     18          1           0        2.243781   -1.648213   -0.357865
     19          1           0        1.111543   -0.972068   -1.575997
 ---------------------------------------------------------------------

 SCF Done:  E(RB3LYP) =  -423.152914979     A.U. after    1 cycles

 The electronic state is 1-A.
 Alpha  occ. eigenvalues --  -19.14845 -19.14168 -10.27298 -10.23708 -10.23507
 Alpha  occ. eigenvalues --  -10.20160 -10.18989 -10.18719 -10.17930  -1.06948
 Alpha  occ. eigenvalues --   -1.00148  -0.87773  -0.77094  -0.71616  -0.67478
 Alpha  occ. eigenvalues --   -0.61594  -0.57900  -0.53718  -0.51215  -0.50155
 Alpha  occ. eigenvalues --   -0.47561  -0.45460  -0.44309  -0.42073  -0.41136
 Alpha  occ. eigenvalues --   -0.38234  -0.36906  -0.36063  -0.34097  -0.32968
 Alpha  occ. eigenvalues --   -0.32150  -0.26298  -0.25585  -0.24279
 Alpha virt. eigenvalues --    0.07934   0.09482   0.10162   0.12009   0.12461
 Alpha virt. eigenvalues --    0.14078   0.15279   0.15742   0.16162   0.16791
 Alpha virt. eigenvalues --    0.17804   0.18736   0.20746   0.20826   0.21926

 Mulliken charges:
               1
     1  C   -0.391289
     2  C   -0.080046
     3  C   -0.264389
     4  C    0.127751
     5  C   -0.270417
     6  C    0.411967
     7  O   -0.305713
     8  C    0.028428
     9  O   -0.294227
    10  H    0.116008
    11  H    0.125656
    12  H    0.100428
    13  H    0.108391
    14  H    0.103095
    15  H    0.073486
    16  H    0.111950
    17  H    0.094152
    18  H    0.117278
    19  H    0.087493
 Sum of Mulliken charges =   0.00000

 Dipole moment (field-independent basis, Debye):
    X=             -1.0901    Y=              0.9918    Z=             -0.3811  Tot=              1.5223
 Quadrupole moment (field-independent basis, Debye-Ang):
   XX=            -53.9394   YY=            -53.9287   ZZ=            -51.6313
   XY=             -1.0103   XZ=             -0.9786   YZ=              2.4173

  Exact polarizability:  79.275  -0.270  73.375  -1.154   2.133  68.341
 Approx polarizability: 113.731  -0.482 109.185  -1.658   0.345 103.981

                      1                      2                      3
                      A                      A                      A
 Frequencies --    212.7720               316.4761               349.5413
 Red. masses --      3.0377                 2.3513                 2.9223
 Frc consts  --      0.0810                 0.1388                 0.2104
 IR Inten    --      1.6641                 2.0099                 1.6756

                      4                      5                      6
                      A                      A                      A
 Frequencies --    387.2324               418.3684               443.5741
 Red. masses --      2.8022                 2.6256                 3.3130
 Frc consts  --      0.2476                 0.2708                 0.3841
 IR Inten    --      3.6834                 9.4729                 1.4575

                      7                      8                      9
                      A                      A                      A
 Frequencies --    497.8073               607.8471               615.8789
 Red. masses --      2.2905                 5.2089                 3.5094
 Frc consts  --      0.3344                 1.1339                 0.7843
 IR Inten    --      4.5642                 0.5491                15.8466

                     10                     11                     12
                      A                      A                      A
 Frequencies --    745.6680               760.0762               804.1383
 Red. masses --      3.2425                 4.0857                 4.3070
 Frc consts  --      1.0622                 1.3907                 1.6409
 IR Inten    --      1.1491                 5.0993                 7.6516

                     13                     14                     15
                      A                      A                      A
 Frequencies --    845.5382               863.6207               895.0866
 Red. masses --      2.3615                 2.1262                 2.6248
 Frc consts  --      0.9947                 0.9343                 1.2390
 IR Inten    --      7.7954                 2.1788                 3.9402

                     16                     17                     18
                      A                      A                      A
 Frequencies --    907.0279               946.7331               963.2274
 Red. masses --      1.6192                 2.1058                 2.6914
 Frc consts  --      0.7849                 1.1121                 1.4712
 IR Inten    --      3.4487                10.2096                70.2398

                     19                     20                     21
                      A                      A                      A
 Frequencies --    986.2517              1010.2483              1030.0415
 Red. masses --      3.0596                 1.9058                 1.8529
 Frc consts  --      1.7534                 1.1460                 1.1583
 IR Inten    --     15.8141                 9.1986                23.7856

                     22                     23                     24
                      A                      A                      A
 Frequencies --   1063.4075              1072.1837              1092.0242
 Red. masses --      1.6660                 2.5850                 1.3218
 Frc consts  --      1.1100                 1.7509                 0.9287
 IR Inten    --     34.1170                44.3453                 5.6263

                     25                     26                     27
                      A                      A                      A
 Frequencies --   1123.2788              1156.5739              1168.4686
 Red. masses --      2.1898                 1.4703                 1.9082
 Frc consts  --      1.6279                 1.1588                 1.5350
 IR Inten    --     14.8814                 3.0649                44.4493

                     28                     29                     30
                      A                      A                      A
 Frequencies --   1207.9170              1241.4939              1244.0977
 Red. masses --      1.3183                 2.1537                 1.7319
 Frc consts  --      1.1333                 1.9558                 1.5794
 IR Inten    --     12.5415                48.3826                 5.4397

                     31                     32                     33
                      A                      A                      A
 Frequencies --   1285.8003              1300.3325              1310.6244
 Red. masses --      1.1410                 1.5600                 1.5524
 Frc consts  --      1.1115                 1.5542                 1.5711
 IR Inten    --      3.1782                16.8686                20.2403

                     34                     35                     36
                      A                      A                      A
 Frequencies --   1333.4351              1371.7571              1391.3222
 Red. masses --      1.7792                 1.3033                 1.7259
 Frc consts  --      1.8639                 1.4449                 1.9685
 IR Inten    --      4.6548                20.1327                13.5983

                     37                     38                     39
                      A                      A                      A
 Frequencies --   1445.4908              1471.7040              1477.4753
 Red. masses --      1.2446                 1.0978                 1.2619
 Frc consts  --      1.5321                 1.4010                 1.6230
 IR Inten    --      6.3040                 3.1030                 3.5488

                     40                     41                     42
                      A                      A                      A
 Frequencies --   1491.6855              1528.0986              2988.4978
 Red. masses --      1.1729                 1.1107                 1.0682
 Frc consts  --      1.5377                 1.5281                 5.6210
 IR Inten    --     11.9584                 0.9643                72.9563

                     43                     44                     45
                      A                      A                      A
 Frequencies --   3035.7771              3060.5611              3084.2055
 Red. masses --      1.0658                 1.0641                 1.0874
 Frc consts  --      5.7873                 5.8725                 6.0945
 IR Inten    --     30.5242                18.0098                66.9791

                     46                     47                     48
                      A                      A                      A
 Frequencies --   3099.5980              3102.4881              3116.1806
 Red. masses --      1.0983                 1.0968                 1.0555
 Frc consts  --      6.2168                 6.2199                 6.0391
 IR Inten    --     18.0304                40.5054                17.4931

                     49                     50                     51
                      A                      A                      A
 Frequencies --   3135.0650              3168.5987              3205.9543
 Red. masses --      1.1026                 1.0893                 1.1146
 Frc consts  --      6.3849                 6.4439                 6.7498
 IR Inten    --     16.1367                 7.8995                10.3800

 - Thermochemistry -
 -------------------
 Temperature   298.150 Kelvin.  Pressure   1.00000 Atm.
 Atom     1 has atomic number  6 and mass  12.00000

 Molecular mass:   126.06808 amu.
 Principal axes and moments of inertia in atomic units:
                           1         2         3
     Eigenvalues --   694.42416 858.244171106.16600
           X            0.99943  -0.03217  -0.00984
           Y            0.03252   0.99874   0.03834
           Z            0.00859  -0.03864   0.99922
 This molecule is an asymmetric top.
 Rotational symmetry number  1.
 Warning -- assumption of classical behavior for rotation
           may cause significant error
 Rotational temperatures (Kelvin)      0.12473     0.10092     0.07830
 Rotational constants (GHZ):           2.59890     2.10283     1.63153
 Zero-point vibrational energy     426954.7 (Joules/Mol)
                                  102.04462 (Kcal/Mol)
 Warning -- explicit consideration of   9 degrees of freedom as
           vibrations may cause significant error
 Vibrational temperatures:    306.13   455.34   502.91   557.14   601.94
          (Kelvin)            638.20   716.23   874.56   886.11  1072.85
                             1093.58  1156.97  1216.54  1242.56  1287.83
                             1305.01  1362.14  1385.87  1418.99  1453.52
                             1482.00  1530.00  1542.63  1571.18  1616.15
                             1664.05  1681.16  1737.92  1786.23  1789.98
                             1849.98  1870.89  1885.69  1918.51  1973.65
                             2001.80  2079.74  2117.45  2125.75  2146.20
                             2198.59  4299.78  4367.80  4403.46  4437.48
                             4459.62  4463.78  4483.48  4510.65  4558.90
                             4612.65

 Zero-point correction=                           0.162618 (Hartree/Particle)
 Thermal correction to Energy=                    0.169138
 Thermal correction to Enthalpy=                  0.170083
 Thermal correction to Gibbs Free Energy=         0.132243
 Sum of electronic and zero-point Energies=           -422.990297
 Sum of electronic and thermal Energies=              -422.983777
 Sum of electronic and thermal Enthalpies=            -422.982832
 Sum of electronic and thermal Free Energies=         -423.020672

                     E (Thermal)             CV                S
                      KCal/Mol        Cal/Mol-Kelvin    Cal/Mol-Kelvin
 Total                  106.136             28.158             79.641
 Electronic               0.000              0.000              0.000
 Translational            0.889              2.981             40.409
 Rotational               0.889              2.981             27.980
 Vibrational            104.359             22.196             11.252
 Vibration     1          0.644              1.821              2.020
 Vibration     2          0.703              1.642              1.328
 Vibration     3          0.727              1.576              1.168
 Vibration     4          0.756              1.497              1.011
 Vibration     5          0.781              1.430              0.898
 Vibration     6          0.803              1.375              0.815
 Vibration     7          0.853              1.255              0.664
 Vibration     8          0.967              1.015              0.436
 Vibration     9          0.975              0.998              0.423

 Optimization completed.
    -- Stationary point found.
 Normal termination of Gaussian 09 at Mon Jan 27 12:13:51 2020.
