 Gaussian 09, Revision D.01,
 Gaussian 09:  ES64L-G09RevD.01 24-Apr-2013

 -----------------------------
 # b3lyp 6-31G(2df,p) opt Freq
 -----------------------------

 -----
 titel
 -----
 Symbolic Z-matrix:
 Charge =  0 Multiplicity = 1

 SCF Done:  E(RB3LYP) =  -423.123934806     A.U. after   13 cycles
 Optimization completed.
    -- Stationary point found.
 Normal termination of Gaussian 09 at Tue Jan 28 04:04:15 2020.

 ----------------------------------------------------------------------
 #N Geom=AllCheck Guess=TCheck SCRF=Check GenChk RB3LYP/6-31G(2df,p) Fr
 eq
 ----------------------------------------------------------------------

 Structure from the checkpoint file:  "/scratch/puck/g09_1d62530e-8a77-4499-b8e3-17ac152eac5c/Gau-91253.chk"
 -----
 titel
 -----
 Charge =  0 Multiplicity = 1

                         Standard orientation:
 ---------------------------------------------------------------------
 Center     Atomic      Atomic             Coordinates (Angstroms)
 Number     Number       Type             X           Y           Z
 ---------------------------------------------------------------------
      1          6           0        1.892849    1.581715   -0.102314
      2          6           0        1.414815    0.261146    0.486182
      3          6           0        1.878769   -1.039084   -0.205960
      4          8           0        0.516883   -1.458964   -0.425659
      5          6           0       -0.007722   -0.252679    0.139254
      6          6           0       -1.113433   -0.342100    1.249227
      7          6           0       -1.989197    0.553853    0.366544
      8          8           0       -2.181985   -0.157836   -0.856188
      9          6           0       -0.973405    0.596912   -0.702316
     10          1           0        2.959643    1.727410    0.098080
     11          1           0        1.754771    1.609764   -1.188280
     12          1           0        1.356239    2.433245    0.329184
     13          1           0        1.592114    0.245106    1.565438
     14          1           0        2.417281   -0.888627   -1.151053
     15          1           0        2.435092   -1.753992    0.411220
     16          1           0       -1.519111   -1.340233    1.426170
     17          1           0       -0.794784    0.111239    2.191893
     18          1           0       -2.734495    1.288014    0.647184
     19          1           0       -0.761993    1.343903   -1.458757
 ---------------------------------------------------------------------

 SCF Done:  E(RB3LYP) =  -423.123934806     A.U. after    1 cycles

 The electronic state is 1-A.
 Alpha  occ. eigenvalues --  -19.15041 -19.13204 -10.24306 -10.23897 -10.23255
 Alpha  occ. eigenvalues --  -10.22913 -10.19922 -10.18801 -10.18664  -1.07959
 Alpha  occ. eigenvalues --   -1.03763  -0.80099  -0.77304  -0.67931  -0.66275
 Alpha  occ. eigenvalues --   -0.63781  -0.59010  -0.53870  -0.51230  -0.47101
 Alpha  occ. eigenvalues --   -0.46941  -0.46283  -0.42910  -0.42068  -0.40563
 Alpha  occ. eigenvalues --   -0.39567  -0.36896  -0.36688  -0.35786  -0.31542
 Alpha  occ. eigenvalues --   -0.29756  -0.29505  -0.26593  -0.23532
 Alpha virt. eigenvalues --    0.06796   0.08169   0.09770   0.10805   0.11929
 Alpha virt. eigenvalues --    0.13735   0.13994   0.14547   0.15130   0.15362
 Alpha virt. eigenvalues --    0.17308   0.17468   0.18888   0.19157   0.20025

 Mulliken charges:
               1
     1  C   -0.411063
     2  C   -0.120075
     3  C   -0.086074
     4  O   -0.311652
     5  C    0.442541
     6  C   -0.338371
     7  C    0.032162
     8  O   -0.240519
     9  C   -0.049815
    10  H    0.121024
    11  H    0.122769
    12  H    0.121311
    13  H    0.083002
    14  H    0.099063
    15  H    0.102990
    16  H    0.122361
    17  H    0.103761
    18  H    0.105718
    19  H    0.100868
 Sum of Mulliken charges =   0.00000

 Dipole moment (field-independent basis, Debye):
    X=              1.8446    Y=              2.3865    Z=              1.7256  Tot=              3.4749
 Quadrupole moment (field-independent basis, Debye-Ang):
   XX=            -52.4726   YY=            -54.6517   ZZ=            -52.5676
   XY=             -2.4405   XZ=             -3.2145   YZ=             -2.0508

  Exact polarizability:  85.853  -2.978  68.875  -3.959  -2.340  69.069
 Approx polarizability: 114.969  -1.540 100.443  -3.608   0.552 108.021

                      1                      2                      3
                      A                      A                      A
 Frequencies --     48.0504               119.3240               188.1017
 Red. masses --      2.6289                 3.8776                 3.6048
 Frc consts  --      0.0036                 0.0325                 0.0751
 IR Inten    --      2.3885                 0.3287                 0.3570

                      4                      5                      6
                      A                      A                      A
 Frequencies --    229.7200               260.7300               353.9048
 Red. masses --      1.3376                 1.8854                 2.8219
 Frc consts  --      0.0416                 0.0755                 0.2082
 IR Inten    --      0.0937                 0.2821                 0.3099

                      7                      8                      9
                      A                      A                      A
 Frequencies --    405.8499               466.9199               472.9664
 Red. masses --      2.2569                 3.5643                 2.8793
 Frc consts  --      0.2190                 0.4578                 0.3795
 IR Inten    --      1.9049                 0.4543                 2.1753

                     10                     11                     12
                      A                      A                      A
 Frequencies --    581.1977               745.7446               794.4445
 Red. masses --      4.8316                 3.1998                 4.3635
 Frc consts  --      0.9616                 1.0484                 1.6226
 IR Inten    --     14.4744                 2.0064                 1.5807

                     13                     14                     15
                      A                      A                      A
 Frequencies --    828.0099               859.1269               890.6335
 Red. masses --      2.7347                 1.7734                 2.7925
 Frc consts  --      1.1046                 0.7712                 1.3051
 IR Inten    --      7.5833                34.0920                 8.1714

                     16                     17                     18
                      A                      A                      A
 Frequencies --    901.3363               915.2243               947.4017
 Red. masses --      2.2504                 1.2637                 1.8555
 Frc consts  --      1.0772                 0.6237                 0.9812
 IR Inten    --      0.9692                 1.2580                10.3578

                     19                     20                     21
                      A                      A                      A
 Frequencies --    958.5134               996.2401              1025.2017
 Red. masses --      2.4298                 1.9586                 5.0876
 Frc consts  --      1.3153                 1.1453                 3.1505
 IR Inten    --     10.1494                25.6746                75.7794

                     22                     23                     24
                      A                      A                      A
 Frequencies --   1038.4481              1079.3248              1099.5007
 Red. masses --      1.5774                 2.7994                 2.2063
 Frc consts  --      1.0022                 1.9214                 1.5715
 IR Inten    --      8.0030                25.9652                20.2231

                     25                     26                     27
                      A                      A                      A
 Frequencies --   1130.2667              1152.7267              1162.9413
 Red. masses --      1.8381                 1.5933                 1.5726
 Frc consts  --      1.3835                 1.2474                 1.2531
 IR Inten    --      1.6014                 8.8940                16.0513

                     28                     29                     30
                      A                      A                      A
 Frequencies --   1187.7540              1193.7061              1221.3290
 Red. masses --      1.5620                 1.8123                 1.4472
 Frc consts  --      1.2983                 1.5215                 1.2719
 IR Inten    --     10.9337                 0.1963                11.6288

                     31                     32                     33
                      A                      A                      A
 Frequencies --   1248.7447              1278.5860              1300.7038
 Red. masses --      1.5840                 1.5635                 2.4209
 Frc consts  --      1.4553                 1.5060                 2.4131
 IR Inten    --      1.5246                 0.6133                23.5368

                     34                     35                     36
                      A                      A                      A
 Frequencies --   1342.3161              1373.9268              1384.1053
 Red. masses --      1.3434                 2.5961                 1.9718
 Frc consts  --      1.4262                 2.8874                 2.2256
 IR Inten    --      4.3162                10.8927                 7.0833

                     37                     38                     39
                      A                      A                      A
 Frequencies --   1412.4897              1459.4293              1496.2984
 Red. masses --      1.2514                 1.1219                 1.0481
 Frc consts  --      1.4711                 1.4080                 1.3826
 IR Inten    --      2.7204                 2.6174                 4.9905

                     40                     41                     42
                      A                      A                      A
 Frequencies --   1499.1338              1527.6907              3009.7146
 Red. masses --      1.0483                 1.1033                 1.0573
 Frc consts  --      1.3881                 1.5171                 5.6430
 IR Inten    --      4.8333                 2.0961                77.5973

                     43                     44                     45
                      A                      A                      A
 Frequencies --   3030.6938              3050.7392              3062.6706
 Red. masses --      1.0353                 1.0985                 1.0633
 Frc consts  --      5.6029                 6.0237                 5.8765
 IR Inten    --     19.9289                13.2407                 4.9449

                     46                     47                     48
                      A                      A                      A
 Frequencies --   3067.2152              3098.1957              3102.7504
 Red. masses --      1.0906                 1.1012                 1.1011
 Frc consts  --      6.0454                 6.2276                 6.2458
 IR Inten    --     54.1031                24.9038                33.1427

                     49                     50                     51
                      A                      A                      A
 Frequencies --   3127.7561              3180.4091              3199.5151
 Red. masses --      1.1077                 1.0886                 1.0995
 Frc consts  --      6.3847                 6.4878                 6.6316
 IR Inten    --     12.0604                15.2883                19.0096

 - Thermochemistry -
 -------------------
 Temperature   298.150 Kelvin.  Pressure   1.00000 Atm.
 Atom     1 has atomic number  6 and mass  12.00000

 Molecular mass:   126.06808 amu.
 Principal axes and moments of inertia in atomic units:
                           1         2         3
     Eigenvalues --   601.378921292.105241470.55342
           X            0.99969   0.01310  -0.02123
           Y           -0.01434   0.99812  -0.05963
           Z            0.02041   0.05992   0.99799
 This molecule is an asymmetric top.
 Rotational symmetry number  1.
 Warning -- assumption of classical behavior for rotation
           may cause significant error
 Rotational temperatures (Kelvin)      0.14403     0.06703     0.05890
 Rotational constants (GHZ):           3.00101     1.39674     1.22725
 Zero-point vibrational energy     415748.5 (Joules/Mol)
                                   99.36628 (Kcal/Mol)
 Warning -- explicit consideration of  10 degrees of freedom as
           vibrations may cause significant error
 Vibrational temperatures:     69.13   171.68   270.64   330.52   375.13
          (Kelvin)            509.19   583.93   671.79   680.49   836.21
                             1072.96  1143.03  1191.32  1236.09  1281.42
                             1296.82  1316.80  1363.10  1379.09  1433.37
                             1475.03  1494.09  1552.91  1581.93  1626.20
                             1658.51  1673.21  1708.91  1717.47  1757.22
                             1796.66  1839.60  1871.42  1931.29  1976.77
                             1991.42  2032.26  2099.79  2152.84  2156.92
                             2198.00  4330.30  4360.49  4389.33  4406.49
                             4413.03  4457.61  4464.16  4500.14  4575.89
                             4603.38

 Zero-point correction=                           0.158350 (Hartree/Particle)
 Thermal correction to Energy=                    0.166528
 Thermal correction to Enthalpy=                  0.167472
 Thermal correction to Gibbs Free Energy=         0.125128
 Sum of electronic and zero-point Energies=           -422.965585
 Sum of electronic and thermal Energies=              -422.957407
 Sum of electronic and thermal Enthalpies=            -422.956463
 Sum of electronic and thermal Free Energies=         -422.998807

                     E (Thermal)             CV                S
                      KCal/Mol        Cal/Mol-Kelvin    Cal/Mol-Kelvin
 Total                  104.498             31.152             89.120
 Electronic               0.000              0.000              0.000
 Translational            0.889              2.981             40.409
 Rotational               0.889              2.981             28.526
 Vibrational            102.720             25.190             20.186
 Vibration     1          0.595              1.978              4.896
 Vibration     2          0.609              1.933              3.111
 Vibration     3          0.633              1.856              2.246
 Vibration     4          0.652              1.796              1.881
 Vibration     5          0.669              1.745              1.657
 Vibration     6          0.730              1.567              1.149
 Vibration     7          0.771              1.458              0.941
 Vibration     8          0.824              1.323              0.746
 Vibration     9          0.830              1.310              0.729
 Vibration    10          0.938              1.072              0.483

 Optimization completed.
    -- Stationary point found.
 Normal termination of Gaussian 09 at Tue Jan 28 04:45:43 2020.
