 Gaussian 09, Revision D.01,
 Gaussian 09:  ES64L-G09RevD.01 24-Apr-2013

 -----------------------------
 # b3lyp 6-31G(2df,p) opt Freq
 -----------------------------

 -----
 titel
 -----
 Symbolic Z-matrix:
 Charge =  0 Multiplicity = 1

 SCF Done:  E(RB3LYP) =  -423.174792897     A.U. after   13 cycles
 Optimization completed.
    -- Stationary point found.
 Normal termination of Gaussian 09 at Tue Jan 28 03:55:17 2020.

 ----------------------------------------------------------------------
 #N Geom=AllCheck Guess=TCheck SCRF=Check GenChk RB3LYP/6-31G(2df,p) Fr
 eq
 ----------------------------------------------------------------------

 Structure from the checkpoint file:  "/scratch/puck/g09_98aea5c4-485f-484c-8e16-6da24e91e28d/Gau-115528.chk"
 -----
 titel
 -----
 Charge =  0 Multiplicity = 1

                         Standard orientation:
 ---------------------------------------------------------------------
 Center     Atomic      Atomic             Coordinates (Angstroms)
 Number     Number       Type             X           Y           Z
 ---------------------------------------------------------------------
      1          8           0        2.837353   -0.504919   -0.321633
      2          6           0        1.617312   -0.158312    0.325412
      3          6           0        0.493203   -1.149573   -0.018828
      4          6           0       -0.843188   -0.735870    0.600131
      5          8           0       -1.979190   -1.117128   -0.216653
      6          6           0       -2.248212    0.254274   -0.573182
      7          6           0       -1.189216    0.764318    0.439469
      8          6           0       -0.075374    1.659946    0.002944
      9          6           0        1.194819    1.254346   -0.009854
     10          1           0        2.679671   -0.469458   -1.271963
     11          1           0        1.858649   -0.227104    1.395086
     12          1           0        0.370514   -1.153604   -1.108912
     13          1           0        0.776320   -2.162194    0.282745
     14          1           0       -0.945138   -1.130956    1.617579
     15          1           0       -2.013470    0.461062   -1.625920
     16          1           0       -3.289126    0.533210   -0.375755
     17          1           0       -1.672064    1.172212    1.333551
     18          1           0       -0.327746    2.684713   -0.261956
     19          1           0        2.001028    1.933719   -0.274720
 ---------------------------------------------------------------------

 SCF Done:  E(RB3LYP) =  -423.174792897     A.U. after    1 cycles

 The electronic state is 1-A.
 Alpha  occ. eigenvalues --  -19.13642 -19.13120 -10.23778 -10.23524 -10.23140
 Alpha  occ. eigenvalues --  -10.19835 -10.19073 -10.18460 -10.18128  -1.03648
 Alpha  occ. eigenvalues --   -1.01912  -0.82278  -0.75615  -0.72617  -0.67659
 Alpha  occ. eigenvalues --   -0.62095  -0.58016  -0.53381  -0.50544  -0.49872
 Alpha  occ. eigenvalues --   -0.46971  -0.44654  -0.44265  -0.42597  -0.41107
 Alpha  occ. eigenvalues --   -0.38837  -0.37077  -0.35243  -0.34052  -0.31744
 Alpha  occ. eigenvalues --   -0.30351  -0.27335  -0.25571  -0.24160
 Alpha virt. eigenvalues --    0.00563   0.07851   0.08711   0.09096   0.11460
 Alpha virt. eigenvalues --    0.12369   0.13582   0.14680   0.15970   0.16798
 Alpha virt. eigenvalues --    0.17801   0.19059   0.20094   0.22315   0.23330

 Mulliken charges:
               1
     1  O   -0.432456
     2  C    0.081428
     3  C   -0.247773
     4  C    0.104555
     5  O   -0.290959
     6  C   -0.089041
     7  C   -0.094847
     8  C   -0.083929
     9  C   -0.098191
    10  H    0.276583
    11  H    0.101313
    12  H    0.098536
    13  H    0.108948
    14  H    0.079766
    15  H    0.097177
    16  H    0.104475
    17  H    0.093490
    18  H    0.093130
    19  H    0.097796
 Sum of Mulliken charges =   0.00000

 Dipole moment (field-independent basis, Debye):
    X=             -0.5267    Y=              1.7064    Z=             -0.2318  Tot=              1.8009
 Quadrupole moment (field-independent basis, Debye-Ang):
   XX=            -59.6617   YY=            -54.1492   ZZ=            -49.6611
   XY=             -3.0454   XZ=             -2.8431   YZ=             -1.0746

  Exact polarizability:  93.213  -4.966  72.871  -0.167  -3.168  62.462
 Approx polarizability: 133.578  -9.177 105.238   0.441  -4.062  97.476

                      1                      2                      3
                      A                      A                      A
 Frequencies --     85.0433               125.5466               233.8751
 Red. masses --      2.9879                 3.4534                 2.5709
 Frc consts  --      0.0127                 0.0321                 0.0829
 IR Inten    --      0.5286                 5.7862                 6.4477

                      4                      5                      6
                      A                      A                      A
 Frequencies --    294.4526               341.8163               380.0532
 Red. masses --      1.6668                 2.0654                 2.3775
 Frc consts  --      0.0851                 0.1422                 0.2023
 IR Inten    --     22.6668                62.6581                 2.8903

                      7                      8                      9
                      A                      A                      A
 Frequencies --    417.6454               427.2261               518.1763
 Red. masses --      4.1456                 4.5618                 3.9989
 Frc consts  --      0.4260                 0.4906                 0.6326
 IR Inten    --      9.5312                 0.9369                 1.1181

                     10                     11                     12
                      A                      A                      A
 Frequencies --    586.1133               707.7827               730.2187
 Red. masses --      2.8116                 2.6188                 2.5008
 Frc consts  --      0.5691                 0.7729                 0.7857
 IR Inten    --      0.2575                 4.7163                 0.6800

                     13                     14                     15
                      A                      A                      A
 Frequencies --    768.4976               824.7684               886.5933
 Red. masses --      1.6028                 2.9030                 2.3041
 Frc consts  --      0.5577                 1.1635                 1.0671
 IR Inten    --     27.6747                 4.5364                 8.8832

                     16                     17                     18
                      A                      A                      A
 Frequencies --    944.1872               952.9057              1002.1732
 Red. masses --      2.0782                 2.8610                 1.4126
 Frc consts  --      1.0916                 1.5306                 0.8359
 IR Inten    --      6.9670                30.8080                14.5447

                     19                     20                     21
                      A                      A                      A
 Frequencies --   1008.0158              1023.2329              1059.1937
 Red. masses --      2.3885                 4.5229                 3.1216
 Frc consts  --      1.4299                 2.7901                 2.0634
 IR Inten    --     36.2987                52.8509                11.0653

                     22                     23                     24
                      A                      A                      A
 Frequencies --   1063.2153              1084.1323              1091.9691
 Red. masses --      1.9133                 2.9051                 2.6983
 Frc consts  --      1.2743                 2.0117                 1.8956
 IR Inten    --     65.8326                11.8676                30.2902

                     25                     26                     27
                      A                      A                      A
 Frequencies --   1135.4002              1151.8311              1164.2614
 Red. masses --      1.4320                 1.6947                 1.1284
 Frc consts  --      1.0876                 1.3247                 0.9012
 IR Inten    --      0.4566                 0.8668                 2.1040

                     28                     29                     30
                      A                      A                      A
 Frequencies --   1220.4939              1235.6210              1266.0157
 Red. masses --      1.1950                 1.3178                 1.3475
 Frc consts  --      1.0488                 1.1854                 1.2725
 IR Inten    --      1.3603                17.6534                 2.2746

                     31                     32                     33
                      A                      A                      A
 Frequencies --   1283.1923              1311.4858              1334.9406
 Red. masses --      1.3781                 1.3524                 1.4003
 Frc consts  --      1.3369                 1.3705                 1.4702
 IR Inten    --      2.3893                 1.9383                 6.3474

                     34                     35                     36
                      A                      A                      A
 Frequencies --   1348.5610              1370.6799              1382.3047
 Red. masses --      1.4406                 1.7044                 1.4429
 Frc consts  --      1.5436                 1.8867                 1.6244
 IR Inten    --      4.6786                10.1314                 8.2692

                     37                     38                     39
                      A                      A                      A
 Frequencies --   1403.3151              1427.7112              1491.2085
 Red. masses --      1.4820                 1.3105                 1.0909
 Frc consts  --      1.7195                 1.5739                 1.4292
 IR Inten    --     12.5540                54.0156                 3.3039

                     40                     41                     42
                      A                      A                      A
 Frequencies --   1525.3982              1707.4307              3008.3289
 Red. masses --      1.0974                 7.3705                 1.0592
 Frc consts  --      1.5044                12.6599                 5.6477
 IR Inten    --      1.4891                 3.5765                77.2489

                     43                     44                     45
                      A                      A                      A
 Frequencies --   3012.9687              3028.1708              3036.1021
 Red. masses --      1.0820                 1.0839                 1.0650
 Frc consts  --      5.7871                 5.8562                 5.7838
 IR Inten    --     13.7773                13.0308                29.3353

                     46                     47                     48
                      A                      A                      A
 Frequencies --   3046.6793              3067.0983              3093.9342
 Red. masses --      1.0883                 1.1031                 1.1014
 Frc consts  --      5.9520                 6.1140                 6.2119
 IR Inten    --     15.3324                71.2604                37.6007

                     49                     50                     51
                      A                      A                      A
 Frequencies --   3141.8308              3170.5576              3795.3291
 Red. masses --      1.0846                 1.0961                 1.0659
 Frc consts  --      6.3081                 6.4916                 9.0465
 IR Inten    --     10.6841                19.4498                12.6591

 - Thermochemistry -
 -------------------
 Temperature   298.150 Kelvin.  Pressure   1.00000 Atm.
 Atom     1 has atomic number  8 and mass  15.99491

 Molecular mass:   126.06808 amu.
 Principal axes and moments of inertia in atomic units:
                           1         2         3
     Eigenvalues --   547.858261392.757641751.11718
           X            0.99983  -0.01838  -0.00193
           Y            0.01835   0.99972  -0.01478
           Z            0.00220   0.01474   0.99989
 This molecule is an asymmetric top.
 Rotational symmetry number  1.
 Warning -- assumption of classical behavior for rotation
           may cause significant error
 Rotational temperatures (Kelvin)      0.15810     0.06219     0.04946
 Rotational constants (GHZ):           3.29418     1.29580     1.03062
 Zero-point vibrational energy     422985.7 (Joules/Mol)
                                  101.09601 (Kcal/Mol)
 Warning -- explicit consideration of  10 degrees of freedom as
           vibrations may cause significant error
 Vibrational temperatures:    122.36   180.63   336.49   423.65   491.80
          (Kelvin)            546.81   600.90   614.68   745.54   843.29
                             1018.34  1050.62  1105.70  1186.66  1275.61
                             1358.47  1371.02  1441.90  1450.31  1472.20
                             1523.94  1529.73  1559.82  1571.10  1633.59
                             1657.23  1675.11  1756.02  1777.78  1821.51
                             1846.23  1886.93  1920.68  1940.28  1972.10
                             1988.83  2019.05  2054.16  2145.51  2194.71
                             2456.61  4328.31  4334.98  4356.86  4368.27
                             4383.49  4412.86  4451.48  4520.39  4561.72
                             5460.63

 Zero-point correction=                           0.161107 (Hartree/Particle)
 Thermal correction to Energy=                    0.168902
 Thermal correction to Enthalpy=                  0.169846
 Thermal correction to Gibbs Free Energy=         0.128679
 Sum of electronic and zero-point Energies=           -423.013686
 Sum of electronic and thermal Energies=              -423.005891
 Sum of electronic and thermal Enthalpies=            -423.004947
 Sum of electronic and thermal Free Energies=         -423.046114

                     E (Thermal)             CV                S
                      KCal/Mol        Cal/Mol-Kelvin    Cal/Mol-Kelvin
 Total                  105.988             30.570             86.645
 Electronic               0.000              0.000              0.000
 Translational            0.889              2.981             40.409
 Rotational               0.889              2.981             28.682
 Vibrational            104.210             24.608             17.555
 Vibration     1          0.601              1.960              3.771
 Vibration     2          0.610              1.928              3.013
 Vibration     3          0.654              1.789              1.849
 Vibration     4          0.689              1.684              1.448
 Vibration     5          0.721              1.592              1.204
 Vibration     6          0.750              1.513              1.039
 Vibration     7          0.781              1.432              0.900
 Vibration     8          0.789              1.411              0.868
 Vibration     9          0.873              1.210              0.614
 Vibration    10          0.943              1.061              0.474

 Normal termination of Gaussian 09 at Tue Jan 28 04:42:23 2020.
