 Gaussian 09, Revision D.01,
 Gaussian 09:  ES64L-G09RevD.01 24-Apr-2013

 -----------------------------
 # b3lyp 6-31G(2df,p) opt Freq
 -----------------------------

 -----
 titel
 -----
 Symbolic Z-matrix:
 Charge =  0 Multiplicity = 1

 SCF Done:  E(RB3LYP) =  -423.152080793     A.U. after   14 cycles
 SCF Done:  E(RB3LYP) =  -423.152080691     A.U. after    7 cycles
 SCF Done:  E(RB3LYP) =  -423.152080696     A.U. after    7 cycles
 Optimization completed.
    -- Stationary point found.
 Normal termination of Gaussian 09 at Tue Jan 28 12:17:48 2020.

 ----------------------------------------------------------------------
 #N Geom=AllCheck Guess=TCheck SCRF=Check GenChk RB3LYP/6-31G(2df,p) Fr
 eq
 ----------------------------------------------------------------------

 Structure from the checkpoint file:  "/scratch/puck/g09_73cdd737-c2fb-4945-96a8-e670f8aa8adf/Gau-1497.chk"
 -----
 titel
 -----
 Charge =  0 Multiplicity = 1

                         Standard orientation:
 ---------------------------------------------------------------------
 Center     Atomic      Atomic             Coordinates (Angstroms)
 Number     Number       Type             X           Y           Z
 ---------------------------------------------------------------------
      1          6           0        3.112043   -0.414664    0.135988
      2          8           0        1.839346   -0.001643   -0.309193
      3          6           0        0.814548   -0.904137    0.033724
      4          6           0       -0.497610   -0.362189   -0.555886
      5          6           0       -1.626032   -1.186722   -0.141325
      6          6           0       -2.554124   -1.852845    0.233659
      7          6           0       -0.756917    1.119478   -0.159711
      8          6           0       -0.642720    1.469001    1.308778
      9          8           0       -1.041679    1.925891   -1.007000
     10          1           0        3.401880   -1.379879   -0.306565
     11          1           0        3.828459    0.348431   -0.175679
     12          1           0        3.148299   -0.513621    1.232060
     13          1           0        1.011981   -1.906829   -0.376218
     14          1           0        0.729033   -1.009122    1.127010
     15          1           0       -0.418944   -0.356535   -1.648007
     16          1           0       -3.380163   -2.443468    0.544681
     17          1           0       -1.165957    0.736147    1.930042
     18          1           0        0.415237    1.455716    1.592618
     19          1           0       -1.046289    2.467637    1.478236
 ---------------------------------------------------------------------

 SCF Done:  E(RB3LYP) =  -423.152080696     A.U. after    1 cycles

 The electronic state is 1-A.
 Alpha  occ. eigenvalues --  -19.15589 -19.13035 -10.27455 -10.24642 -10.23540
 Alpha  occ. eigenvalues --  -10.22005 -10.19308 -10.18696 -10.18315  -1.05020
 Alpha  occ. eigenvalues --   -1.04199  -0.82241  -0.74361  -0.73577  -0.69272
 Alpha  occ. eigenvalues --   -0.63728  -0.55701  -0.52849  -0.50519  -0.49234
 Alpha  occ. eigenvalues --   -0.47993  -0.46075  -0.45374  -0.43196  -0.41680
 Alpha  occ. eigenvalues --   -0.39861  -0.39051  -0.37750  -0.35240  -0.33437
 Alpha  occ. eigenvalues --   -0.28987  -0.27618  -0.27051  -0.23957
 Alpha virt. eigenvalues --   -0.01563   0.04525   0.05358   0.07301   0.11349
 Alpha virt. eigenvalues --    0.12082   0.12294   0.13579   0.15357   0.15664
 Alpha virt. eigenvalues --    0.16095   0.16680   0.18441   0.19034   0.20903

 Mulliken charges:
               1
     1  C   -0.231650
     2  O   -0.233641
     3  C   -0.072725
     4  C   -0.266607
     5  C    0.296418
     6  C   -0.461074
     7  C    0.413048
     8  C   -0.488810
     9  O   -0.296139
    10  H    0.111274
    11  H    0.135876
    12  H    0.107734
    13  H    0.108536
    14  H    0.100926
    15  H    0.133233
    16  H    0.202571
    17  H    0.144730
    18  H    0.153634
    19  H    0.142667
 Sum of Mulliken charges =   0.00000

 Dipole moment (field-independent basis, Debye):
    X=              1.4933    Y=             -2.3556    Z=              2.3170  Tot=              3.6259
 Quadrupole moment (field-independent basis, Debye-Ang):
   XX=            -47.2912   YY=            -55.7211   ZZ=            -54.1628
   XY=              2.6239   XZ=             -2.0599   YZ=              3.5972

  Exact polarizability:  90.795   9.865  80.061  -2.938  -2.876  66.312
 Approx polarizability: 121.889  18.408 118.201  -7.387 -15.118 103.775

                      1                      2                      3
                      A                      A                      A
 Frequencies --     59.9096                77.9495               103.3670
 Red. masses --      4.9861                 3.0540                 2.1487
 Frc consts  --      0.0105                 0.0109                 0.0135
 IR Inten    --      3.3345                 0.2533                 3.9544

                      4                      5                      6
                      A                      A                      A
 Frequencies --    114.0710               131.9426               173.1926
 Red. masses --      3.5605                 3.9787                 1.0823
 Frc consts  --      0.0273                 0.0408                 0.0191
 IR Inten    --      0.8973                 0.2028                 0.0710

                      7                      8                      9
                      A                      A                      A
 Frequencies --    211.8724               259.0393               300.2706
 Red. masses --      1.4941                 1.9716                 3.3979
 Frc consts  --      0.0395                 0.0779                 0.1805
 IR Inten    --      3.1964                 1.2281                 2.8828

                     10                     11                     12
                      A                      A                      A
 Frequencies --    353.3389               398.7435               467.1818
 Red. masses --      3.8121                 5.3188                 7.2083
 Frc consts  --      0.2804                 0.4983                 0.9270
 IR Inten    --      3.5047                 0.7307                 3.7021

                     13                     14                     15
                      A                      A                      A
 Frequencies --    517.3166               564.3038               607.7691
 Red. masses --      3.2275                 3.3229                 2.7596
 Frc consts  --      0.5089                 0.6234                 0.6006
 IR Inten    --     13.6998                 2.5064                 8.9203

                     16                     17                     18
                      A                      A                      A
 Frequencies --    638.2631               644.1353               749.9024
 Red. masses --      1.2351                 1.2290                 3.1511
 Frc consts  --      0.2964                 0.3004                 1.0440
 IR Inten    --     44.0612                43.4677                 1.5371

                     19                     20                     21
                      A                      A                      A
 Frequencies --    932.6003               967.4817              1000.2798
 Red. masses --      1.6675                 4.1023                 2.4372
 Frc consts  --      0.8545                 2.2623                 1.4368
 IR Inten    --     12.4777                 7.2758                12.5887

                     22                     23                     24
                      A                      A                      A
 Frequencies --   1042.0336              1054.6871              1103.3056
 Red. masses --      2.1516                 2.0341                 2.6915
 Frc consts  --      1.3765                 1.3331                 1.9303
 IR Inten    --      2.2720                 1.4965                 1.0500

                     25                     26                     27
                      A                      A                      A
 Frequencies --   1160.3907              1180.3311              1200.6536
 Red. masses --      4.7689                 1.3520                 2.2405
 Frc consts  --      3.7833                 1.1097                 1.9030
 IR Inten    --    168.5173                 6.6832                76.1789

                     28                     29                     30
                      A                      A                      A
 Frequencies --   1230.1133              1249.2022              1283.7996
 Red. masses --      1.7110                 1.3587                 1.3835
 Frc consts  --      1.5254                 1.2492                 1.3434
 IR Inten    --     47.1713                13.9206                 0.9902

                     31                     32                     33
                      A                      A                      A
 Frequencies --   1314.5496              1376.5835              1409.3456
 Red. masses --      1.2330                 1.3219                 1.3451
 Frc consts  --      1.2554                 1.4759                 1.5741
 IR Inten    --      0.7974                40.4843                25.6690

                     34                     35                     36
                      A                      A                      A
 Frequencies --   1468.1934              1475.8849              1480.5920
 Red. masses --      1.0546                 1.0795                 1.1150
 Frc consts  --      1.3393                 1.3854                 1.4401
 IR Inten    --      9.8373                 1.6810                 3.8610

                     37                     38                     39
                      A                      A                      A
 Frequencies --   1485.2342              1502.6542              1528.2494
 Red. masses --      1.0469                 1.0587                 1.0876
 Frc consts  --      1.3607                 1.4084                 1.4966
 IR Inten    --      5.5470                10.1033                 1.6760

                     40                     41                     42
                      A                      A                      A
 Frequencies --   1830.6251              2232.5778              2969.9318
 Red. masses --     11.0847                 5.9475                 1.0461
 Frc consts  --     21.8863                17.4661                 5.4362
 IR Inten    --    181.3066                 2.1908                28.5526

                     43                     44                     45
                      A                      A                      A
 Frequencies --   2981.1183              3006.4646              3023.8423
 Red. masses --      1.0453                 1.1053                 1.1034
 Frc consts  --      5.4732                 5.8860                 5.9445
 IR Inten    --     62.0525                50.8274                45.1136

                     46                     47                     48
                      A                      A                      A
 Frequencies --   3045.5214              3065.0705              3113.5709
 Red. masses --      1.0357                 1.0837                 1.0982
 Frc consts  --      5.6598                 5.9985                 6.2727
 IR Inten    --      2.0089                 6.7516                 5.1095

                     49                     50                     51
                      A                      A                      A
 Frequencies --   3122.8444              3156.1074              3502.8613
 Red. masses --      1.0965                 1.1029                 1.1617
 Frc consts  --      6.3003                 6.4728                 8.3981
 IR Inten    --     23.3303                 8.6599                74.3748

 - Thermochemistry -
 -------------------
 Temperature   298.150 Kelvin.  Pressure   1.00000 Atm.
 Atom     1 has atomic number  6 and mass  12.00000

 Molecular mass:   126.06808 amu.
 Principal axes and moments of inertia in atomic units:
                           1         2         3
     Eigenvalues --   898.227191535.878832022.75166
           X            0.99992  -0.01196  -0.00471
           Y            0.01214   0.99902   0.04255
           Z            0.00420  -0.04261   0.99908
 This molecule is an asymmetric top.
 Rotational symmetry number  1.
 Warning -- assumption of classical behavior for rotation
           may cause significant error
 Rotational temperatures (Kelvin)      0.09643     0.05639     0.04282
 Rotational constants (GHZ):           2.00923     1.17505     0.89222
 Zero-point vibrational energy     405948.4 (Joules/Mol)
                                   97.02399 (Kcal/Mol)
 Warning -- explicit consideration of  15 degrees of freedom as
           vibrations may cause significant error
 Vibrational temperatures:     86.20   112.15   148.72   164.12   189.84
          (Kelvin)            249.19   304.84   372.70   432.02   508.38
                              573.70   672.17   744.30   811.91   874.44
                              918.32   926.77  1078.94  1341.80  1391.99
                             1439.18  1499.25  1517.46  1587.41  1669.54
                             1698.23  1727.47  1769.86  1797.32  1847.10
                             1891.34  1980.59  2027.73  2112.40  2123.47
                             2130.24  2136.92  2161.98  2198.81  2633.86
                             3212.18  4273.06  4289.16  4325.63  4350.63
                             4381.82  4409.95  4479.73  4493.07  4540.93
                             5039.83

 Zero-point correction=                           0.154618 (Hartree/Particle)
 Thermal correction to Energy=                    0.165396
 Thermal correction to Enthalpy=                  0.166340
 Thermal correction to Gibbs Free Energy=         0.118064
 Sum of electronic and zero-point Energies=           -422.997463
 Sum of electronic and thermal Energies=              -422.986685
 Sum of electronic and thermal Enthalpies=            -422.985740
 Sum of electronic and thermal Free Energies=         -423.034017

                     E (Thermal)             CV                S
                      KCal/Mol        Cal/Mol-Kelvin    Cal/Mol-Kelvin
 Total                  103.788             37.357            101.606
 Electronic               0.000              0.000              0.000
 Translational            0.889              2.981             40.409
 Rotational               0.889              2.981             29.413
 Vibrational            102.010             31.395             31.784
 Vibration     1          0.597              1.973              4.460
 Vibration     2          0.599              1.964              3.942
 Vibration     3          0.605              1.947              3.390
 Vibration     4          0.607              1.938              3.198
 Vibration     5          0.612              1.921              2.918
 Vibration     6          0.627              1.875              2.401
 Vibration     7          0.643              1.823              2.027
 Vibration     8          0.668              1.747              1.668
 Vibration     9          0.693              1.673              1.415
 Vibration    10          0.730              1.568              1.151
 Vibration    11          0.765              1.473              0.967
 Vibration    12          0.824              1.323              0.745
 Vibration    13          0.872              1.212              0.616
 Vibration    14          0.920              1.108              0.515
 Vibration    15          0.967              1.015              0.436

 Normal termination of Gaussian 09 at Tue Jan 28 12:59:01 2020.
