 Gaussian 09, Revision D.01,
 Gaussian 09:  ES64L-G09RevD.01 24-Apr-2013

 -----------------------------
 # b3lyp 6-31G(2df,p) opt Freq
 -----------------------------

 -----
 titel
 -----
 Symbolic Z-matrix:
 Charge =  0 Multiplicity = 1

 SCF Done:  E(RB3LYP) =  -423.190093708     A.U. after   14 cycles
 Optimization completed.
    -- Stationary point found.
 Normal termination of Gaussian 09 at Tue Jan 28 08:12:24 2020.

 ----------------------------------------------------------------------
 #N Geom=AllCheck Guess=TCheck SCRF=Check GenChk RB3LYP/6-31G(2df,p) Fr
 eq
 ----------------------------------------------------------------------

 Structure from the checkpoint file:  "/scratch/puck/g09_9aa7ee3f-a4aa-41fa-8512-7a2145917488/Gau-14435.chk"
 -----
 titel
 -----
 Charge =  0 Multiplicity = 1

                         Standard orientation:
 ---------------------------------------------------------------------
 Center     Atomic      Atomic             Coordinates (Angstroms)
 Number     Number       Type             X           Y           Z
 ---------------------------------------------------------------------
      1          8           0       -2.162558   -1.327843   -0.257791
      2          6           0       -1.467585   -0.282303    0.386967
      3          6           0       -1.486488    1.075140   -0.385248
      4          8           0       -0.291160    1.778838   -0.046060
      5          6           0        0.662199    0.849951    0.495776
      6          6           0        1.981003    0.646759   -0.276063
      7          6           0        2.246731   -0.884120   -0.152381
      8          6           0        0.849489   -1.454233    0.025721
      9          6           0        0.004539   -0.497786    0.393227
     10          1           0       -3.105240   -1.187484   -0.128185
     11          1           0       -1.846703   -0.125459    1.410320
     12          1           0       -1.525327    0.841819   -1.459557
     13          1           0       -2.342573    1.709718   -0.130551
     14          1           0        0.861216    1.156425    1.534696
     15          1           0        1.805841    0.908655   -1.324425
     16          1           0        2.805094    1.261476    0.094902
     17          1           0        2.754775   -1.295791   -1.031207
     18          1           0        2.891650   -1.110015    0.708383
     19          1           0        0.591689   -2.487750   -0.171570
 ---------------------------------------------------------------------

 SCF Done:  E(RB3LYP) =  -423.190093708     A.U. after    1 cycles

 The electronic state is 1-A.
 Alpha  occ. eigenvalues --  -19.14556 -19.13132 -10.24132 -10.22417 -10.22409
 Alpha  occ. eigenvalues --  -10.18591 -10.18097 -10.17840 -10.17690  -1.03476
 Alpha  occ. eigenvalues --   -1.01915  -0.83799  -0.75961  -0.70415  -0.68583
 Alpha  occ. eigenvalues --   -0.60851  -0.57487  -0.53112  -0.51904  -0.49495
 Alpha  occ. eigenvalues --   -0.47615  -0.43432  -0.43028  -0.41848  -0.39206
 Alpha  occ. eigenvalues --   -0.37177  -0.35991  -0.35082  -0.34335  -0.33648
 Alpha  occ. eigenvalues --   -0.31437  -0.26968  -0.24529  -0.23749
 Alpha virt. eigenvalues --    0.01414   0.06185   0.10243   0.11727   0.12440
 Alpha virt. eigenvalues --    0.13789   0.14784   0.15758   0.16772   0.17495
 Alpha virt. eigenvalues --    0.18989   0.19556   0.21523   0.21982   0.23081

 Mulliken charges:
               1
     1  O   -0.426435
     2  C   -0.028420
     3  C   -0.101742
     4  O   -0.283806
     5  C    0.082612
     6  C   -0.241315
     7  C   -0.253159
     8  C   -0.214220
     9  C    0.292279
    10  H    0.289028
    11  H    0.080751
    12  H    0.101609
    13  H    0.095474
    14  H    0.075607
    15  H    0.113856
    16  H    0.095577
    17  H    0.106703
    18  H    0.108857
    19  H    0.106743
 Sum of Mulliken charges =   0.00000

 Dipole moment (field-independent basis, Debye):
    X=             -0.8618    Y=             -0.6030    Z=              0.6412  Tot=              1.2318
 Quadrupole moment (field-independent basis, Debye-Ang):
   XX=            -43.5344   YY=            -58.5049   ZZ=            -52.8753
   XY=             -1.0018   XZ=             -1.1290   YZ=              0.1445

  Exact polarizability:  95.316  -6.752  76.683  -1.428   3.631  60.368
 Approx polarizability: 126.628 -13.323 116.981  -3.715   9.333  94.750

                      1                      2                      3
                      A                      A                      A
 Frequencies --    111.9112               120.2423               167.3723
 Red. masses --      2.9472                 2.5507                 3.4082
 Frc consts  --      0.0217                 0.0217                 0.0563
 IR Inten    --      1.2551                 7.9840                 1.5573

                      4                      5                      6
                      A                      A                      A
 Frequencies --    249.6193               270.2222               348.6750
 Red. masses --      1.0556                 3.0749                 3.2045
 Frc consts  --      0.0388                 0.1323                 0.2295
 IR Inten    --     97.7155                 2.5559                 3.0670

                      7                      8                      9
                      A                      A                      A
 Frequencies --    415.9438               515.6774               563.1473
 Red. masses --      3.2297                 5.1713                 2.4756
 Frc consts  --      0.3292                 0.8102                 0.4626
 IR Inten    --      6.3319                 5.9606                 2.2110

                     10                     11                     12
                      A                      A                      A
 Frequencies --    609.5398               669.3236               693.7830
 Red. masses --      4.5972                 2.8374                 4.2698
 Frc consts  --      1.0063                 0.7489                 1.2109
 IR Inten    --      4.9061                 6.2192                 5.0016

                     13                     14                     15
                      A                      A                      A
 Frequencies --    835.4127               842.4930               881.5670
 Red. masses --      1.4364                 3.0975                 1.3858
 Frc consts  --      0.5906                 1.2954                 0.6345
 IR Inten    --     10.9441                 4.2153                 4.5509

                     16                     17                     18
                      A                      A                      A
 Frequencies --    912.3424               937.1866               962.2106
 Red. masses --      2.5153                 2.5652                 2.4197
 Frc consts  --      1.2336                 1.3275                 1.3199
 IR Inten    --      6.7879                13.3355                 5.6366

                     19                     20                     21
                      A                      A                      A
 Frequencies --    990.2688              1009.9478              1055.9588
 Red. masses --      2.6586                 3.1177                 2.1256
 Frc consts  --      1.5361                 1.8736                 1.3964
 IR Inten    --      4.0012                 5.7894                 5.6513

                     22                     23                     24
                      A                      A                      A
 Frequencies --   1057.7114              1089.3081              1116.5074
 Red. masses --      3.3999                 3.8254                 2.3568
 Frc consts  --      2.2410                 2.6744                 1.7310
 IR Inten    --     65.5380               107.0588                15.4249

                     25                     26                     27
                      A                      A                      A
 Frequencies --   1162.8560              1173.4739              1214.2727
 Red. masses --      1.4747                 1.8081                 1.1502
 Frc consts  --      1.1749                 1.4669                 0.9992
 IR Inten    --     11.9685                15.8464                 5.3449

                     28                     29                     30
                      A                      A                      A
 Frequencies --   1218.9663              1226.4030              1271.9009
 Red. masses --      1.1474                 1.5708                 1.3398
 Frc consts  --      1.0045                 1.3920                 1.2770
 IR Inten    --     53.4502                 9.9302                 8.2414

                     31                     32                     33
                      A                      A                      A
 Frequencies --   1283.6067              1309.3224              1320.6243
 Red. masses --      1.2980                 1.3298                 1.4685
 Frc consts  --      1.2600                 1.3432                 1.5090
 IR Inten    --      1.0396                 7.9715                 3.6812

                     34                     35                     36
                      A                      A                      A
 Frequencies --   1349.0734              1357.2325              1373.2510
 Red. masses --      1.3887                 1.8849                 1.2452
 Frc consts  --      1.4891                 2.0457                 1.3835
 IR Inten    --     12.6849                11.0935                 9.2644

                     37                     38                     39
                      A                      A                      A
 Frequencies --   1447.0711              1483.1965              1498.0309
 Red. masses --      1.5844                 1.0852                 1.0966
 Frc consts  --      1.9548                 1.4066                 1.4499
 IR Inten    --      9.5447                 1.3239                 1.2973

                     40                     41                     42
                      A                      A                      A
 Frequencies --   1519.1991              1753.7208              2961.0087
 Red. masses --      1.0874                 8.4656                 1.0816
 Frc consts  --      1.4786                15.3402                 5.5872
 IR Inten    --      1.8594                 1.7149                25.8741

                     43                     44                     45
                      A                      A                      A
 Frequencies --   2972.0054              2996.9102              3011.1247
 Red. masses --      1.0829                 1.0633                 1.0687
 Frc consts  --      5.6353                 5.6270                 5.7089
 IR Inten    --     73.4830                60.2777                43.6575

                     46                     47                     48
                      A                      A                      A
 Frequencies --   3053.5907              3064.6138              3065.2232
 Red. masses --      1.0696                 1.1007                 1.0835
 Frc consts  --      5.8764                 6.0910                 5.9977
 IR Inten    --     16.0110                69.4258                25.4151

                     49                     50                     51
                      A                      A                      A
 Frequencies --   3108.7952              3208.5934              3828.9214
 Red. masses --      1.1055                 1.0946                 1.0664
 Frc consts  --      6.2952                 6.6393                 9.2114
 IR Inten    --     36.8764                 6.9353                26.3358

 - Thermochemistry -
 -------------------
 Temperature   298.150 Kelvin.  Pressure   1.00000 Atm.
 Atom     1 has atomic number  8 and mass  15.99491

 Molecular mass:   126.06808 amu.
 Principal axes and moments of inertia in atomic units:
                           1         2         3
     Eigenvalues --   655.798231143.359341651.92247
           X            0.99968  -0.02500  -0.00493
           Y            0.02501   0.99969   0.00147
           Z            0.00489  -0.00159   0.99999
 This molecule is an asymmetric top.
 Rotational symmetry number  1.
 Warning -- assumption of classical behavior for rotation
           may cause significant error
 Rotational temperatures (Kelvin)      0.13207     0.07575     0.05243
 Rotational constants (GHZ):           2.75198     1.57845     1.09251
 Zero-point vibrational energy     422636.8 (Joules/Mol)
                                  101.01263 (Kcal/Mol)
 Warning -- explicit consideration of  10 degrees of freedom as
           vibrations may cause significant error
 Vibrational temperatures:    161.02   173.00   240.81   359.15   388.79
          (Kelvin)            501.66   598.45   741.94   810.24   876.99
                              963.01   998.20  1201.97  1212.16  1268.38
                             1312.66  1348.40  1384.40  1424.77  1453.09
                             1519.29  1521.81  1567.27  1606.40  1673.09
                             1688.37  1747.07  1753.82  1764.52  1829.98
                             1846.82  1883.82  1900.08  1941.01  1952.75
                             1975.80  2082.01  2133.99  2155.33  2185.79
                             2523.21  4260.23  4276.05  4311.88  4332.33
                             4393.43  4409.29  4410.17  4472.86  4616.44
                             5508.96

 Zero-point correction=                           0.160974 (Hartree/Particle)
 Thermal correction to Energy=                    0.168917
 Thermal correction to Enthalpy=                  0.169861
 Thermal correction to Gibbs Free Energy=         0.128424
 Sum of electronic and zero-point Energies=           -423.029120
 Sum of electronic and thermal Energies=              -423.021177
 Sum of electronic and thermal Enthalpies=            -423.020233
 Sum of electronic and thermal Free Energies=         -423.061670

                     E (Thermal)             CV                S
                      KCal/Mol        Cal/Mol-Kelvin    Cal/Mol-Kelvin
 Total                  105.997             30.636             87.212
 Electronic               0.000              0.000              0.000
 Translational            0.889              2.981             40.409
 Rotational               0.889              2.981             28.606
 Vibrational            104.220             24.675             18.197
 Vibration     1          0.607              1.940              3.235
 Vibration     2          0.609              1.932              3.096
 Vibration     3          0.624              1.883              2.465
 Vibration     4          0.662              1.763              1.733
 Vibration     5          0.674              1.728              1.595
 Vibration     6          0.726              1.578              1.172
 Vibration     7          0.779              1.436              0.906
 Vibration     8          0.871              1.215              0.620
 Vibration     9          0.919              1.111              0.518
 Vibration    10          0.969              1.012              0.434

 Optimization completed.
    -- Stationary point found.
 Normal termination of Gaussian 09 at Tue Jan 28 09:01:03 2020.
