 Gaussian 09, Revision D.01,
 Gaussian 09:  ES64L-G09RevD.01 24-Apr-2013

 -----------------------------
 # b3lyp 6-31G(2df,p) opt Freq
 -----------------------------

 -----
 titel
 -----
 Symbolic Z-matrix:
 Charge =  0 Multiplicity = 1

 SCF Done:  E(RB3LYP) =  -423.187617165     A.U. after   14 cycles
 Optimization completed.
    -- Stationary point found.
 Normal termination of Gaussian 09 at Mon Jan 27 22:55:04 2020.

 ----------------------------------------------------------------------
 #N Geom=AllCheck Guess=TCheck SCRF=Check GenChk RB3LYP/6-31G(2df,p) Fr
 eq
 ----------------------------------------------------------------------

 Structure from the checkpoint file:  "/scratch/puck/g09_3317c071-81af-45ba-aaa3-fc2648425339/Gau-75172.chk"
 -----
 titel
 -----
 Charge =  0 Multiplicity = 1

                         Standard orientation:
 ---------------------------------------------------------------------
 Center     Atomic      Atomic             Coordinates (Angstroms)
 Number     Number       Type             X           Y           Z
 ---------------------------------------------------------------------
      1          6           0        1.972918   -1.464092   -0.196010
      2          6           0        0.539443   -1.044686    0.104616
      3          6           0        0.266916    0.098771    1.139432
      4          6           0       -1.269824    0.042690    1.242252
      5          6           0       -1.573675   -0.072140   -0.275267
      6          8           0       -2.641045   -0.172202   -0.815512
      7          6           0       -0.175854   -0.033658   -0.879225
      8          6           0        0.425031    1.129335   -0.025834
      9          8           0        1.725583    1.477441   -0.433812
     10          1           0        2.617844   -0.614387   -0.411726
     11          1           0        2.385306   -2.010547    0.660535
     12          1           0        1.994864   -2.142937   -1.055604
     13          1           0       -0.050591   -1.949046    0.297613
     14          1           0        0.838550    0.190441    2.064554
     15          1           0       -1.646464   -0.825031    1.791711
     16          1           0       -1.730913    0.941533    1.664790
     17          1           0       -0.089564   -0.073132   -1.962862
     18          1           0       -0.199069    2.031814    0.057552
     19          1           0        2.094011    2.072059    0.228243
 ---------------------------------------------------------------------

 SCF Done:  E(RB3LYP) =  -423.187617165     A.U. after    1 cycles

 The electronic state is 1-A.
 Alpha  occ. eigenvalues --  -19.15406 -19.12818 -10.26643 -10.24906 -10.20352
 Alpha  occ. eigenvalues --  -10.20104 -10.19677 -10.19371 -10.17359  -1.04156
 Alpha  occ. eigenvalues --   -1.03697  -0.89344  -0.74646  -0.71095  -0.66827
 Alpha  occ. eigenvalues --   -0.63154  -0.55906  -0.53413  -0.51378  -0.49637
 Alpha  occ. eigenvalues --   -0.45909  -0.43558  -0.42140  -0.40837  -0.40351
 Alpha  occ. eigenvalues --   -0.39581  -0.37690  -0.36765  -0.35493  -0.35102
 Alpha  occ. eigenvalues --   -0.30947  -0.30552  -0.26947  -0.23408
 Alpha virt. eigenvalues --   -0.00733   0.06689   0.09471   0.11118   0.11722
 Alpha virt. eigenvalues --    0.12794   0.14526   0.14875   0.16473   0.17237
 Alpha virt. eigenvalues --    0.17311   0.18621   0.19441   0.20295   0.22426

 Mulliken charges:
               1
     1  C   -0.442467
     2  C    0.037849
     3  C   -0.094719
     4  C   -0.348164
     5  C    0.426062
     6  O   -0.334508
     7  C   -0.157210
     8  C    0.143973
     9  O   -0.438351
    10  H    0.145269
    11  H    0.110269
    12  H    0.116975
    13  H    0.075815
    14  H    0.064073
    15  H    0.128592
    16  H    0.122608
    17  H    0.085193
    18  H    0.072915
    19  H    0.285826
 Sum of Mulliken charges =   0.00000

 Dipole moment (field-independent basis, Debye):
    X=              2.4264    Y=              0.7711    Z=              2.4755  Tot=              3.5511
 Quadrupole moment (field-independent basis, Debye-Ang):
   XX=            -62.0202   YY=            -49.0409   ZZ=            -53.0875
   XY=              0.7150   XZ=             -1.4619   YZ=              2.1958

  Exact polarizability:  85.993  -1.577  70.852   0.584   1.714  70.637
 Approx polarizability: 123.657   1.318 103.714   5.656   1.994 108.629

                      1                      2                      3
                      A                      A                      A
 Frequencies --    126.9204               199.7419               248.7597
 Red. masses --      5.3275                 1.0409                 2.4304
 Frc consts  --      0.0506                 0.0245                 0.0886
 IR Inten    --      1.3780                 4.7470                 4.1879

                      4                      5                      6
                      A                      A                      A
 Frequencies --    258.2391               277.7335               297.0440
 Red. masses --      2.4165                 1.4682                 3.4622
 Frc consts  --      0.0949                 0.0667                 0.1800
 IR Inten    --      2.5721                82.6875                 4.4430

                      7                      8                      9
                      A                      A                      A
 Frequencies --    314.6958               428.9664               461.6039
 Red. masses --      2.5853                 3.0769                 4.2277
 Frc consts  --      0.1509                 0.3336                 0.5308
 IR Inten    --     17.1804                 4.0526                 5.6018

                     10                     11                     12
                      A                      A                      A
 Frequencies --    544.9644               596.3834               602.1950
 Red. masses --      5.6646                 3.2411                 3.1851
 Frc consts  --      0.9912                 0.6792                 0.6805
 IR Inten    --     14.5197                 2.6474                 6.3100

                     13                     14                     15
                      A                      A                      A
 Frequencies --    775.4891               785.5629               807.6389
 Red. masses --      2.4453                 2.4516                 2.7027
 Frc consts  --      0.8664                 0.8914                 1.0387
 IR Inten    --      2.0418                 7.6971                 1.4911

                     16                     17                     18
                      A                      A                      A
 Frequencies --    878.9368               913.8072               949.3146
 Red. masses --      2.9966                 2.5372                 2.5404
 Frc consts  --      1.3639                 1.2483                 1.3489
 IR Inten    --     11.7678                 6.8088                 4.2576

                     19                     20                     21
                      A                      A                      A
 Frequencies --    951.3812               985.1092              1050.0127
 Red. masses --      2.2722                 1.9244                 1.7685
 Frc consts  --      1.2118                 1.1003                 1.1488
 IR Inten    --     17.3401                 0.4061                 7.0441

                     22                     23                     24
                      A                      A                      A
 Frequencies --   1059.4741              1079.0301              1104.3993
 Red. masses --      1.5751                 1.5789                 1.4278
 Frc consts  --      1.0417                 1.0831                 1.0261
 IR Inten    --      6.0020                 9.0188                13.0548

                     25                     26                     27
                      A                      A                      A
 Frequencies --   1117.0616              1154.1994              1166.0807
 Red. masses --      2.2000                 1.8985                 1.6644
 Frc consts  --      1.6174                 1.4901                 1.3334
 IR Inten    --     32.1102                16.3068                13.7538

                     28                     29                     30
                      A                      A                      A
 Frequencies --   1203.4744              1214.6261              1226.7784
 Red. masses --      2.1182                 1.4620                 2.1010
 Frc consts  --      1.8076                 1.2708                 1.8630
 IR Inten    --     19.0213                 5.9561                21.0971

                     31                     32                     33
                      A                      A                      A
 Frequencies --   1249.0115              1271.3821              1287.8617
 Red. masses --      1.4876                 1.7601                 1.5226
 Frc consts  --      1.3673                 1.6762                 1.4879
 IR Inten    --     19.9018                24.7659                 7.5874

                     34                     35                     36
                      A                      A                      A
 Frequencies --   1328.0945              1399.5989              1412.0454
 Red. masses --      1.4043                 1.2416                 1.3030
 Frc consts  --      1.4594                 1.4330                 1.5307
 IR Inten    --     33.1655                 3.2214                 8.2453

                     37                     38                     39
                      A                      A                      A
 Frequencies --   1449.1914              1463.8881              1494.0994
 Red. masses --      1.2646                 1.1406                 1.0468
 Frc consts  --      1.5648                 1.4402                 1.3768
 IR Inten    --      7.2182                 7.4863                 2.3441

                     40                     41                     42
                      A                      A                      A
 Frequencies --   1513.2539              1871.9699              2981.5138
 Red. masses --      1.0482                12.4728                 1.0844
 Frc consts  --      1.4142                25.7521                 5.6797
 IR Inten    --      2.0617               285.2643                70.1806

                     43                     44                     45
                      A                      A                      A
 Frequencies --   3020.0888              3034.2353              3054.2277
 Red. masses --      1.0801                 1.0463                 1.0597
 Frc consts  --      5.8042                 5.6753                 5.8241
 IR Inten    --     24.8359                45.7317                17.5840

                     46                     47                     48
                      A                      A                      A
 Frequencies --   3086.1486              3100.1490              3102.3692
 Red. masses --      1.0996                 1.0911                 1.1028
 Frc consts  --      6.1704                 6.1784                 6.2538
 IR Inten    --     21.7181                36.9627                13.3827

                     49                     50                     51
                      A                      A                      A
 Frequencies --   3150.9659              3169.7239              3806.8626
 Red. masses --      1.0912                 1.0950                 1.0661
 Frc consts  --      6.3830                 6.4820                 9.1029
 IR Inten    --     14.9661                 5.1971                27.2003

 - Thermochemistry -
 -------------------
 Temperature   298.150 Kelvin.  Pressure   1.00000 Atm.
 Atom     1 has atomic number  6 and mass  12.00000

 Molecular mass:   126.06808 amu.
 Principal axes and moments of inertia in atomic units:
                           1         2         3
     Eigenvalues --   667.310061299.262451435.72523
           X            0.99902  -0.03702  -0.02422
           Y            0.03819   0.99804   0.04967
           Z            0.02234  -0.05055   0.99847
 This molecule is an asymmetric top.
 Rotational symmetry number  1.
 Warning -- assumption of classical behavior for rotation
           may cause significant error
 Rotational temperatures (Kelvin)      0.12980     0.06666     0.06033
 Rotational constants (GHZ):           2.70450     1.38905     1.25702
 Zero-point vibrational energy     418850.3 (Joules/Mol)
                                  100.10763 (Kcal/Mol)
 Warning -- explicit consideration of  12 degrees of freedom as
           vibrations may cause significant error
 Vibrational temperatures:    182.61   287.38   357.91   371.55   399.60
          (Kelvin)            427.38   452.78   617.19   664.14   784.08
                              858.06   866.42  1115.75  1130.25  1162.01
                             1264.59  1314.76  1365.85  1368.82  1417.35
                             1510.73  1524.34  1552.48  1588.98  1607.20
                             1660.63  1677.73  1731.53  1747.57  1765.06
                             1797.05  1829.23  1852.94  1910.83  2013.71
                             2031.62  2085.06  2106.21  2149.67  2177.23
                             2693.34  4289.73  4345.23  4365.58  4394.35
                             4440.27  4460.42  4463.61  4533.53  4560.52
                             5477.22

 Zero-point correction=                           0.159532 (Hartree/Particle)
 Thermal correction to Energy=                    0.167686
 Thermal correction to Enthalpy=                  0.168631
 Thermal correction to Gibbs Free Energy=         0.127305
 Sum of electronic and zero-point Energies=           -423.028086
 Sum of electronic and thermal Energies=              -423.019931
 Sum of electronic and thermal Enthalpies=            -423.018987
 Sum of electronic and thermal Free Energies=         -423.060312

                     E (Thermal)             CV                S
                      KCal/Mol        Cal/Mol-Kelvin    Cal/Mol-Kelvin
 Total                  105.225             32.231             86.978
 Electronic               0.000              0.000              0.000
 Translational            0.889              2.981             40.409
 Rotational               0.889              2.981             28.611
 Vibrational            103.447             26.269             17.958
 Vibration     1          0.611              1.926              2.992
 Vibration     2          0.638              1.840              2.135
 Vibration     3          0.662              1.765              1.739
 Vibration     4          0.667              1.749              1.674
 Vibration     5          0.679              1.715              1.548
 Vibration     6          0.691              1.679              1.434
 Vibration     7          0.702              1.646              1.338
 Vibration     8          0.790              1.407              0.862
 Vibration     9          0.819              1.335              0.761
 Vibration    10          0.900              1.151              0.555
 Vibration    11          0.954              1.039              0.456
 Vibration    12          0.960              1.027              0.446

 Optimization completed.
    -- Stationary point found.
 Normal termination of Gaussian 09 at Mon Jan 27 23:40:57 2020.
