 Gaussian 09, Revision D.01,
 Gaussian 09:  ES64L-G09RevD.01 24-Apr-2013

 -----------------------------
 # b3lyp 6-31G(2df,p) opt Freq
 -----------------------------

 -----
 titel
 -----
 Symbolic Z-matrix:
 Charge =  0 Multiplicity = 1

 SCF Done:  E(RB3LYP) =  -423.140252384     A.U. after   13 cycles
 Optimization completed.
    -- Stationary point found.
 Normal termination of Gaussian 09 at Tue Jan 28 02:51:26 2020.

 ----------------------------------------------------------------------
 #N Geom=AllCheck Guess=TCheck SCRF=Check GenChk RB3LYP/6-31G(2df,p) Fr
 eq
 ----------------------------------------------------------------------

 Structure from the checkpoint file:  "/scratch/puck/g09_115c58b0-76c6-42a9-bd54-20b51f387c70/Gau-190051.chk"
 -----
 titel
 -----
 Charge =  0 Multiplicity = 1

                         Standard orientation:
 ---------------------------------------------------------------------
 Center     Atomic      Atomic             Coordinates (Angstroms)
 Number     Number       Type             X           Y           Z
 ---------------------------------------------------------------------
      1          6           0        2.713061   -0.578005    0.109884
      2          6           0        1.436113   -0.125430   -0.580112
      3          6           0        0.971003    1.373290   -0.407720
      4          6           0       -0.338896    0.844977    0.206129
      5          6           0       -1.806618    0.896069   -0.118626
      6          8           0       -2.227496   -0.475163   -0.097183
      7          6           0       -1.117358   -1.350439   -0.347188
      8          6           0        0.090319   -0.551738    0.060360
      9          8           0       -0.014220    0.053782    1.351457
     10          1           0        2.664855   -0.355095    1.179420
     11          1           0        2.866452   -1.656172   -0.008082
     12          1           0        3.586509   -0.066794   -0.308365
     13          1           0        1.446948   -0.392876   -1.641265
     14          1           0        1.568799    2.000630    0.257499
     15          1           0        0.828691    1.885896   -1.361489
     16          1           0       -2.429788    1.430377    0.604728
     17          1           0       -1.947988    1.352574   -1.111446
     18          1           0       -1.296316   -2.261435    0.231574
     19          1           0       -1.040183   -1.618407   -1.413132
 ---------------------------------------------------------------------

 SCF Done:  E(RB3LYP) =  -423.140252384     A.U. after    1 cycles

 The electronic state is 1-A.
 Alpha  occ. eigenvalues --  -19.15600 -19.13913 -10.23730 -10.23704 -10.23445
 Alpha  occ. eigenvalues --  -10.23158 -10.20727 -10.19888 -10.17699  -1.09334
 Alpha  occ. eigenvalues --   -1.01978  -0.81841  -0.75069  -0.72305  -0.68433
 Alpha  occ. eigenvalues --   -0.62376  -0.58286  -0.53169  -0.51845  -0.47855
 Alpha  occ. eigenvalues --   -0.46664  -0.44648  -0.43750  -0.41852  -0.40489
 Alpha  occ. eigenvalues --   -0.39879  -0.37370  -0.36198  -0.34802  -0.33054
 Alpha  occ. eigenvalues --   -0.32882  -0.27112  -0.26553  -0.24685
 Alpha virt. eigenvalues --    0.06655   0.08739   0.11211   0.11764   0.12348
 Alpha virt. eigenvalues --    0.13048   0.14116   0.14816   0.15630   0.15709
 Alpha virt. eigenvalues --    0.16120   0.17411   0.17888   0.19779   0.20670

 Mulliken charges:
               1
     1  C   -0.403923
     2  C   -0.046641
     3  C   -0.321376
     4  C    0.273323
     5  C   -0.157220
     6  O   -0.260972
     7  C   -0.160556
     8  C    0.261991
     9  O   -0.291123
    10  H    0.136340
    11  H    0.116582
    12  H    0.114110
    13  H    0.082358
    14  H    0.113689
    15  H    0.110946
    16  H    0.120785
    17  H    0.095857
    18  H    0.120434
    19  H    0.095397
 Sum of Mulliken charges =   0.00000

 Dipole moment (field-independent basis, Debye):
    X=              1.3768    Y=              0.5681    Z=             -2.0760  Tot=              2.5550
 Quadrupole moment (field-independent basis, Debye-Ang):
   XX=            -56.2538   YY=            -49.6080   ZZ=            -54.8458
   XY=             -1.8956   XZ=             -0.2602   YZ=              0.1243

  Exact polarizability:  83.094  -2.283  77.191  -0.841   0.020  63.604
 Approx polarizability: 107.486  -3.584 117.290  -2.364   0.547 104.252

                      1                      2                      3
                      A                      A                      A
 Frequencies --    132.8373               195.1195               225.1123
 Red. masses --      2.9138                 3.2519                 2.0068
 Frc consts  --      0.0303                 0.0729                 0.0599
 IR Inten    --      0.6075                 3.3718                 0.7261

                      4                      5                      6
                      A                      A                      A
 Frequencies --    234.0986               280.9525               313.7367
 Red. masses --      1.2749                 1.9971                 2.4993
 Frc consts  --      0.0412                 0.0929                 0.1449
 IR Inten    --      1.2963                 0.7992                 2.2475

                      7                      8                      9
                      A                      A                      A
 Frequencies --    420.4853               484.1747               536.1433
 Red. masses --      2.1238                 5.6421                 3.8891
 Frc consts  --      0.2212                 0.7793                 0.6587
 IR Inten    --      1.5673                 6.8632                 0.2686

                     10                     11                     12
                      A                      A                      A
 Frequencies --    650.5164               678.2514               718.2957
 Red. masses --      4.8596                 3.5458                 4.9749
 Frc consts  --      1.2116                 0.9610                 1.5123
 IR Inten    --      9.1591                 0.8268                 2.4406

                     13                     14                     15
                      A                      A                      A
 Frequencies --    828.8522               840.8540               878.9371
 Red. masses --      2.8461                 3.3219                 1.6982
 Frc consts  --      1.1520                 1.3838                 0.7730
 IR Inten    --      4.3524                32.1365                 7.1289

                     16                     17                     18
                      A                      A                      A
 Frequencies --    892.2065               908.7473               944.1954
 Red. masses --      3.9013                 4.9413                 3.1113
 Frc consts  --      1.8297                 2.4042                 1.6342
 IR Inten    --     27.0318                12.1958                 6.0896

                     19                     20                     21
                      A                      A                      A
 Frequencies --    998.5193              1015.7527              1049.5557
 Red. masses --      1.3684                 1.6208                 5.2679
 Frc consts  --      0.8038                 0.9853                 3.4190
 IR Inten    --      2.0257                 2.2852                64.3054

                     22                     23                     24
                      A                      A                      A
 Frequencies --   1075.0561              1093.0453              1122.7590
 Red. masses --      2.9114                 1.7525                 1.9538
 Frc consts  --      1.9825                 1.2336                 1.4511
 IR Inten    --      6.0672                 3.6597                 3.7292

                     25                     26                     27
                      A                      A                      A
 Frequencies --   1163.4721              1189.3767              1214.3234
 Red. masses --      1.6686                 2.0839                 1.1345
 Frc consts  --      1.3308                 1.7368                 0.9857
 IR Inten    --      1.0560                 0.4379                 8.6073

                     28                     29                     30
                      A                      A                      A
 Frequencies --   1220.0660              1234.5564              1258.1372
 Red. masses --      1.5150                 1.3002                 1.7964
 Frc consts  --      1.3287                 1.1676                 1.6754
 IR Inten    --      2.2242                 1.9348                17.6839

                     31                     32                     33
                      A                      A                      A
 Frequencies --   1275.2261              1344.9162              1354.2384
 Red. masses --      1.6314                 1.5469                 1.7197
 Frc consts  --      1.5631                 1.6485                 1.8582
 IR Inten    --      3.3072                 6.2535                 1.9862

                     34                     35                     36
                      A                      A                      A
 Frequencies --   1396.4700              1402.0464              1426.1105
 Red. masses --      1.7050                 1.4510                 2.6840
 Frc consts  --      1.9590                 1.6805                 3.2162
 IR Inten    --      4.5974                 9.3494                 7.4297

                     37                     38                     39
                      A                      A                      A
 Frequencies --   1474.1398              1491.7717              1501.6315
 Red. masses --      1.1665                 1.0466                 1.0869
 Frc consts  --      1.4935                 1.3722                 1.4440
 IR Inten    --      1.3874                 4.1636                 0.2187

                     40                     41                     42
                      A                      A                      A
 Frequencies --   1503.2994              1510.8323              2977.5587
 Red. masses --      1.0505                 1.0955                 1.0690
 Frc consts  --      1.3987                 1.4732                 5.5840
 IR Inten    --      2.8829                 1.5463                64.9180

                     43                     44                     45
                      A                      A                      A
 Frequencies --   2983.8465              3033.4838              3059.5854
 Red. masses --      1.0709                 1.0359                 1.0826
 Frc consts  --      5.6175                 5.6165                 5.9709
 IR Inten    --     55.4649                27.2254                18.4407

                     46                     47                     48
                      A                      A                      A
 Frequencies --   3068.7030              3078.0165              3080.7257
 Red. masses --      1.0605                 1.0916                 1.0940
 Frc consts  --      5.8839                 6.0935                 6.1174
 IR Inten    --     29.0055                29.4041                29.7057

                     49                     50                     51
                      A                      A                      A
 Frequencies --   3097.5261              3118.1203              3126.9251
 Red. masses --      1.1012                 1.1014                 1.1077
 Frc consts  --      6.2252                 6.3093                 6.3815
 IR Inten    --     23.5806                14.3649                23.7556

 - Thermochemistry -
 -------------------
 Temperature   298.150 Kelvin.  Pressure   1.00000 Atm.
 Atom     1 has atomic number  6 and mass  12.00000

 Molecular mass:   126.06808 amu.
 Principal axes and moments of inertia in atomic units:
                           1         2         3
     Eigenvalues --   514.176001259.879371435.30701
           X            0.99988  -0.01552   0.00251
           Y            0.01555   0.99978  -0.01380
           Z           -0.00229   0.01384   0.99990
 This molecule is an asymmetric top.
 Rotational symmetry number  1.
 Warning -- assumption of classical behavior for rotation
           may cause significant error
 Rotational temperatures (Kelvin)      0.16845     0.06875     0.06035
 Rotational constants (GHZ):           3.50997     1.43247     1.25739
 Zero-point vibrational energy     419310.9 (Joules/Mol)
                                  100.21771 (Kcal/Mol)
 Warning -- explicit consideration of   9 degrees of freedom as
           vibrations may cause significant error
 Vibrational temperatures:    191.12   280.73   323.89   336.82   404.23
          (Kelvin)            451.40   604.98   696.62   771.39   935.95
                              975.85  1033.47  1192.53  1209.80  1264.59
                             1283.68  1307.48  1358.48  1436.64  1461.44
                             1510.07  1546.76  1572.65  1615.40  1673.97
                             1711.25  1747.14  1755.40  1776.25  1810.18
                             1834.76  1935.03  1948.44  2009.21  2017.23
                             2051.85  2120.96  2146.32  2160.51  2162.91
                             2173.75  4284.04  4293.08  4364.50  4402.06
                             4415.17  4428.57  4432.47  4456.64  4486.27
                             4498.94

 Zero-point correction=                           0.159707 (Hartree/Particle)
 Thermal correction to Energy=                    0.167448
 Thermal correction to Enthalpy=                  0.168393
 Thermal correction to Gibbs Free Energy=         0.127825
 Sum of electronic and zero-point Energies=           -422.980545
 Sum of electronic and thermal Energies=              -422.972804
 Sum of electronic and thermal Enthalpies=            -422.971860
 Sum of electronic and thermal Free Energies=         -423.012427

                     E (Thermal)             CV                S
                      KCal/Mol        Cal/Mol-Kelvin    Cal/Mol-Kelvin
 Total                  105.076             30.511             85.381
 Electronic               0.000              0.000              0.000
 Translational            0.889              2.981             40.409
 Rotational               0.889              2.981             28.321
 Vibrational            103.298             24.549             16.651
 Vibration     1          0.613              1.921              2.905
 Vibration     2          0.636              1.847              2.179
 Vibration     3          0.650              1.803              1.918
 Vibration     4          0.654              1.789              1.847
 Vibration     5          0.681              1.709              1.528
 Vibration     6          0.702              1.647              1.343
 Vibration     7          0.783              1.426              0.890
 Vibration     8          0.840              1.285              0.699
 Vibration     9          0.891              1.170              0.574

 Optimization completed.
    -- Stationary point found.
 Normal termination of Gaussian 09 at Tue Jan 28 03:39:09 2020.
