 Gaussian 09, Revision D.01,
 Gaussian 09:  ES64L-G09RevD.01 24-Apr-2013

 -----------------------------
 # b3lyp 6-31G(2df,p) opt Freq
 -----------------------------

 -----
 titel
 -----
 Symbolic Z-matrix:
 Charge =  0 Multiplicity = 1

 SCF Done:  E(RB3LYP) =  -423.157981999     A.U. after   14 cycles
 Optimization completed.
    -- Stationary point found.
 Normal termination of Gaussian 09 at Mon Jan 27 23:03:13 2020.

 ----------------------------------------------------------------------
 #N Geom=AllCheck Guess=TCheck SCRF=Check GenChk RB3LYP/6-31G(2df,p) Fr
 eq
 ----------------------------------------------------------------------

 Structure from the checkpoint file:  "/scratch/puck/g09_85f3cf58-f9e5-4b23-b404-449d9eea7032/Gau-102366.chk"
 -----
 titel
 -----
 Charge =  0 Multiplicity = 1

                         Standard orientation:
 ---------------------------------------------------------------------
 Center     Atomic      Atomic             Coordinates (Angstroms)
 Number     Number       Type             X           Y           Z
 ---------------------------------------------------------------------
      1          6           0       -0.915834    2.122448   -0.540376
      2          6           0        0.005648    1.302433    0.357250
      3          6           0        1.314022    0.829030   -0.293530
      4          6           0        2.109255    0.011398    0.700700
      5          6           0        0.951964   -0.618983   -0.016472
      6          8           0        1.094339   -1.703349   -0.864963
      7          6           0       -0.391449   -0.215001    0.626098
      8          6           0       -1.586859   -0.698485   -0.152885
      9          8           0       -2.580141   -1.157223    0.354392
     10          1           0       -1.909758    2.235953   -0.095502
     11          1           0       -0.497525    3.124040   -0.685793
     12          1           0       -1.037011    1.672640   -1.530285
     13          1           0        0.162100    1.839951    1.299608
     14          1           0        1.775855    1.273081   -1.167164
     15          1           0        3.077749   -0.318423    0.337565
     16          1           0        2.069707    0.236286    1.764814
     17          1           0        1.356900   -2.469597   -0.342181
     18          1           0       -0.534825   -0.488656    1.675794
     19          1           0       -1.497261   -0.617736   -1.257001
 ---------------------------------------------------------------------

 SCF Done:  E(RB3LYP) =  -423.157981999     A.U. after    1 cycles

 The electronic state is 1-A.
 Alpha  occ. eigenvalues --  -19.15887 -19.13264 -10.26374 -10.25244 -10.20836
 Alpha  occ. eigenvalues --  -10.19865 -10.19548 -10.19545 -10.18446  -1.04576
 Alpha  occ. eigenvalues --   -1.03843  -0.90077  -0.77340  -0.72199  -0.63984
 Alpha  occ. eigenvalues --   -0.60845  -0.58809  -0.54168  -0.52806  -0.48274
 Alpha  occ. eigenvalues --   -0.46483  -0.44295  -0.43484  -0.42162  -0.40777
 Alpha  occ. eigenvalues --   -0.40109  -0.38025  -0.37314  -0.35042  -0.32966
 Alpha  occ. eigenvalues --   -0.31812  -0.27599  -0.26373  -0.23947
 Alpha virt. eigenvalues --   -0.02025   0.07159   0.09597   0.09967   0.11134
 Alpha virt. eigenvalues --    0.11531   0.13923   0.14293   0.15595   0.16023
 Alpha virt. eigenvalues --    0.16908   0.18238   0.19662   0.20967   0.22577

 Mulliken charges:
               1
     1  C   -0.421486
     2  C    0.014711
     3  C   -0.109066
     4  C   -0.360032
     5  C    0.396512
     6  O   -0.458524
     7  C   -0.197178
     8  C    0.165221
     9  O   -0.266400
    10  H    0.130016
    11  H    0.120199
    12  H    0.124304
    13  H    0.081616
    14  H    0.096444
    15  H    0.118202
    16  H    0.107955
    17  H    0.291021
    18  H    0.080250
    19  H    0.086236
 Sum of Mulliken charges =   0.00000

 Dipole moment (field-independent basis, Debye):
    X=              2.8278    Y=              0.9875    Z=              0.3798  Tot=              3.0193
 Quadrupole moment (field-independent basis, Debye-Ang):
   XX=            -59.6417   YY=            -50.2117   ZZ=            -53.8400
   XY=             -6.0650   XZ=              2.9364   YZ=             -1.4464

  Exact polarizability:  84.297   1.342  77.366   0.809  -2.022  67.147
 Approx polarizability: 117.874   7.378 111.665  -3.462  -3.206 105.626

                      1                      2                      3
                      A                      A                      A
 Frequencies --     59.4948                83.0338               198.6989
 Red. masses --      5.6639                 3.8966                 3.7294
 Frc consts  --      0.0118                 0.0158                 0.0868
 IR Inten    --      4.9724                 2.0149                 1.7467

                      4                      5                      6
                      A                      A                      A
 Frequencies --    237.3083               268.8057               289.0289
 Red. masses --      1.2410                 1.3323                 2.2350
 Frc consts  --      0.0412                 0.0567                 0.1100
 IR Inten    --      1.7799                69.0849                17.5018

                      7                      8                      9
                      A                      A                      A
 Frequencies --    297.3228               372.1126               410.1193
 Red. masses --      1.7865                 2.4333                 3.4594
 Frc consts  --      0.0930                 0.1985                 0.3428
 IR Inten    --      2.9790                11.0949                 1.4815

                     10                     11                     12
                      A                      A                      A
 Frequencies --    452.3562               468.1582               490.0004
 Red. masses --      2.9021                 3.3694                 3.8471
 Frc consts  --      0.3499                 0.4351                 0.5442
 IR Inten    --      7.5489                11.6970                12.3497

                     13                     14                     15
                      A                      A                      A
 Frequencies --    628.4830               743.0347               825.7944
 Red. masses --      3.4315                 2.4771                 2.6156
 Frc consts  --      0.7986                 0.8058                 1.0509
 IR Inten    --      0.2642                 3.0226                 1.5303

                     16                     17                     18
                      A                      A                      A
 Frequencies --    838.5068               902.2626               945.8034
 Red. masses --      2.3775                 2.7403                 1.6702
 Frc consts  --      0.9849                 1.3144                 0.8803
 IR Inten    --      3.2951                25.3199                 8.7594

                     19                     20                     21
                      A                      A                      A
 Frequencies --    952.0162               995.7881              1006.2629
 Red. masses --      1.5677                 1.4345                 1.3437
 Frc consts  --      0.8371                 0.8381                 0.8016
 IR Inten    --      3.5576                 8.1384                 3.0315

                     22                     23                     24
                      A                      A                      A
 Frequencies --   1016.8004              1040.9193              1079.9524
 Red. masses --      2.2214                 1.5481                 1.7346
 Frc consts  --      1.3532                 0.9883                 1.1920
 IR Inten    --     12.9976                 4.1301                11.1518

                     25                     26                     27
                      A                      A                      A
 Frequencies --   1099.1728              1129.6408              1154.4907
 Red. masses --      1.9668                 2.1004                 2.2696
 Frc consts  --      1.4000                 1.5792                 1.7823
 IR Inten    --      6.7608                14.3597                12.0192

                     28                     29                     30
                      A                      A                      A
 Frequencies --   1205.6819              1218.6782              1249.9278
 Red. masses --      1.4259                 1.6666                 2.0278
 Frc consts  --      1.2212                 1.4583                 1.8665
 IR Inten    --     27.7345                11.7238                65.2302

                     31                     32                     33
                      A                      A                      A
 Frequencies --   1279.5553              1284.3785              1314.3825
 Red. masses --      1.7333                 1.5371                 1.6308
 Frc consts  --      1.6721                 1.4940                 1.6599
 IR Inten    --     29.5648                 6.2443                35.0704

                     34                     35                     36
                      A                      A                      A
 Frequencies --   1366.3519              1396.3229              1411.9011
 Red. masses --      1.6356                 1.9917                 1.2611
 Frc consts  --      1.7991                 2.2879                 1.4812
 IR Inten    --     13.8093                21.0841                 4.2111

                     37                     38                     39
                      A                      A                      A
 Frequencies --   1437.3807              1491.1769              1496.1126
 Red. masses --      1.2133                 1.3096                 1.1168
 Frc consts  --      1.4770                 1.7157                 1.4728
 IR Inten    --      4.8232                 5.3194                12.4311

                     40                     41                     42
                      A                      A                      A
 Frequencies --   1503.9564              1821.4153              2902.0624
 Red. masses --      1.0603                10.0069                 1.0826
 Frc consts  --      1.4130                19.5600                 5.3720
 IR Inten    --      4.4061               187.3617                67.8709

                     43                     44                     45
                      A                      A                      A
 Frequencies --   3031.0750              3035.0603              3066.2154
 Red. masses --      1.0807                 1.0392                 1.0860
 Frc consts  --      5.8497                 5.6400                 6.0157
 IR Inten    --     22.6662                23.8128                27.7028

                     46                     47                     48
                      A                      A                      A
 Frequencies --   3100.0617              3100.4772              3109.9934
 Red. masses --      1.0571                 1.1011                 1.1014
 Frc consts  --      5.9856                 6.2362                 6.2765
 IR Inten    --     20.1972                19.9104                25.5212

                     49                     50                     51
                      A                      A                      A
 Frequencies --   3186.1601              3201.1668              3788.1201
 Red. masses --      1.0954                 1.1107                 1.0662
 Frc consts  --      6.5520                 6.7060                 9.0141
 IR Inten    --      7.1349                10.9380                27.6074

 - Thermochemistry -
 -------------------
 Temperature   298.150 Kelvin.  Pressure   1.00000 Atm.
 Atom     1 has atomic number  6 and mass  12.00000

 Molecular mass:   126.06808 amu.
 Principal axes and moments of inertia in atomic units:
                           1         2         3
     Eigenvalues --   838.277911158.226911679.04038
           X            0.99635  -0.08205   0.02370
           Y            0.08255   0.99637  -0.02080
           Z           -0.02190   0.02268   0.99950
 This molecule is an asymmetric top.
 Rotational symmetry number  1.
 Warning -- assumption of classical behavior for rotation
           may cause significant error
 Rotational temperatures (Kelvin)      0.10332     0.07478     0.05159
 Rotational constants (GHZ):           2.15292     1.55819     1.07486
 Zero-point vibrational energy     412609.9 (Joules/Mol)
                                   98.61612 (Kcal/Mol)
 Warning -- explicit consideration of  12 degrees of freedom as
           vibrations may cause significant error
 Vibrational temperatures:     85.60   119.47   285.88   341.43   386.75
          (Kelvin)            415.85   427.78   535.39   590.07   650.84
                              673.57   705.00   904.25  1069.06  1188.13
                             1206.42  1298.15  1360.80  1369.74  1432.72
                             1447.79  1462.95  1497.65  1553.81  1581.46
                             1625.30  1661.05  1734.71  1753.40  1798.37
                             1840.99  1847.93  1891.10  1965.87  2008.99
                             2031.41  2068.07  2145.47  2152.57  2163.86
                             2620.61  4175.42  4361.04  4366.77  4411.59
                             4460.29  4460.89  4474.58  4584.17  4605.76
                             5450.25

 Zero-point correction=                           0.157155 (Hartree/Particle)
 Thermal correction to Energy=                    0.166219
 Thermal correction to Enthalpy=                  0.167163
 Thermal correction to Gibbs Free Energy=         0.123181
 Sum of electronic and zero-point Energies=           -423.000827
 Sum of electronic and thermal Energies=              -422.991763
 Sum of electronic and thermal Enthalpies=            -422.990819
 Sum of electronic and thermal Free Energies=         -423.034801

                     E (Thermal)             CV                S
                      KCal/Mol        Cal/Mol-Kelvin    Cal/Mol-Kelvin
 Total                  104.304             34.054             92.567
 Electronic               0.000              0.000              0.000
 Translational            0.889              2.981             40.409
 Rotational               0.889              2.981             28.879
 Vibrational            102.526             28.092             23.279
 Vibration     1          0.597              1.974              4.474
 Vibration     2          0.600              1.961              3.818
 Vibration     3          0.637              1.842              2.145
 Vibration     4          0.656              1.784              1.823
 Vibration     5          0.673              1.731              1.604
 Vibration     6          0.686              1.694              1.480
 Vibration     7          0.691              1.679              1.432
 Vibration     8          0.744              1.529              1.071
 Vibration     9          0.774              1.448              0.926
 Vibration    10          0.811              1.356              0.789
 Vibration    11          0.825              1.321              0.743
 Vibration    12          0.846              1.272              0.684

 Normal termination of Gaussian 09 at Mon Jan 27 23:46:29 2020.
