 Gaussian 09, Revision D.01,
 Gaussian 09:  ES64L-G09RevD.01 24-Apr-2013

 -----------------------------
 # b3lyp 6-31G(2df,p) opt Freq
 -----------------------------

 -----
 titel
 -----
 Symbolic Z-matrix:
 Charge =  0 Multiplicity = 1

 SCF Done:  E(RB3LYP) =  -423.097648395     A.U. after   12 cycles
 Optimization completed.
    -- Stationary point found.
 Normal termination of Gaussian 09 at Mon Jan 27 22:12:34 2020.

 ----------------------------------------------------------------------
 #N Geom=AllCheck Guess=TCheck SCRF=Check GenChk RB3LYP/6-31G(2df,p) Fr
 eq
 ----------------------------------------------------------------------

 Structure from the checkpoint file:  "/scratch/puck/g09_ab50f5d1-9df2-4ada-b893-804612416c96/Gau-28860.chk"
 -----
 titel
 -----
 Charge =  0 Multiplicity = 1

                         Standard orientation:
 ---------------------------------------------------------------------
 Center     Atomic      Atomic             Coordinates (Angstroms)
 Number     Number       Type             X           Y           Z
 ---------------------------------------------------------------------
      1          6           0        1.852330    1.676475   -0.362712
      2          6           0        0.802742    0.710284    0.101134
      3          6           0        0.947752   -0.138416    1.356839
      4          6           0        0.732621   -0.797535    0.016379
      5          8           0        1.660128   -1.649607   -0.554318
      6          6           0       -0.734875   -0.730292   -0.496305
      7          6           0       -1.684400    0.010319    0.407512
      8          8           0       -3.026345    0.095642    0.020434
      9          6           0       -0.673574    0.798830   -0.387191
     10          1           0        1.786244    1.844320   -1.443890
     11          1           0        1.746173    2.649418    0.132378
     12          1           0        2.854812    1.296006   -0.145484
     13          1           0        1.981235   -0.210024    1.685929
     14          1           0        0.232542   -0.148550    2.172097
     15          1           0        1.667511   -2.472191   -0.051216
     16          1           0       -1.083410   -1.333235   -1.326858
     17          1           0       -1.646467   -0.071627    1.487264
     18          1           0       -3.066376    0.163096   -0.939790
     19          1           0       -0.998103    1.536511   -1.113285
 ---------------------------------------------------------------------

 SCF Done:  E(RB3LYP) =  -423.097648395     A.U. after    1 cycles

 The electronic state is 1-A.
 Alpha  occ. eigenvalues --  -19.14867 -19.14464 -10.23939 -10.23901 -10.19796
 Alpha  occ. eigenvalues --  -10.18848 -10.18652 -10.18416 -10.17857  -1.03524
 Alpha  occ. eigenvalues --   -1.02970  -0.90666  -0.79380  -0.71594  -0.64253
 Alpha  occ. eigenvalues --   -0.61423  -0.58262  -0.54506  -0.50798  -0.50222
 Alpha  occ. eigenvalues --   -0.47169  -0.43308  -0.41579  -0.41254  -0.40791
 Alpha  occ. eigenvalues --   -0.39168  -0.37173  -0.36159  -0.34142  -0.33068
 Alpha  occ. eigenvalues --   -0.30252  -0.25876  -0.24168  -0.20866
 Alpha virt. eigenvalues --    0.07090   0.07649   0.09107   0.10141   0.11007
 Alpha virt. eigenvalues --    0.12548   0.13638   0.15769   0.16901   0.17599
 Alpha virt. eigenvalues --    0.18070   0.18955   0.21593   0.22942   0.24084

 Mulliken charges:
               1
     1  C   -0.493749
     2  C    0.289703
     3  C   -0.430396
     4  C    0.349085
     5  O   -0.458204
     6  C   -0.201984
     7  C    0.130337
     8  O   -0.442792
     9  C   -0.178850
    10  H    0.120037
    11  H    0.119974
    12  H    0.126164
    13  H    0.111457
    14  H    0.112092
    15  H    0.285298
    16  H    0.089272
    17  H    0.103388
    18  H    0.285194
    19  H    0.083974
 Sum of Mulliken charges =   0.00000

 Dipole moment (field-independent basis, Debye):
    X=              0.6391    Y=             -0.4038    Z=             -0.1931  Tot=              0.7802
 Quadrupole moment (field-independent basis, Debye-Ang):
   XX=            -57.9134   YY=            -49.7630   ZZ=            -51.1843
   XY=             -0.5089   XZ=              6.4933   YZ=             -2.5994

  Exact polarizability:  83.978   0.632  73.876   2.939  -1.935  68.574
 Approx polarizability: 112.563  -1.980 112.981   1.350  -1.439 106.617

                      1                      2                      3
                      A                      A                      A
 Frequencies --    159.6757               194.4176               206.6707
 Red. masses --      3.2723                 1.2419                 2.4872
 Frc consts  --      0.0492                 0.0277                 0.0626
 IR Inten    --      3.0303                 0.5313                 9.9293

                      4                      5                      6
                      A                      A                      A
 Frequencies --    208.7056               218.7186               260.8452
 Red. masses --      2.5842                 1.4217                 2.1402
 Frc consts  --      0.0663                 0.0401                 0.0858
 IR Inten    --      5.0123                38.8699                27.3256

                      7                      8                      9
                      A                      A                      A
 Frequencies --    280.8189               354.3020               401.2864
 Red. masses --      1.1685                 3.1377                 4.9092
 Frc consts  --      0.0543                 0.2321                 0.4658
 IR Inten    --     99.2044                 2.8834                 7.6799

                     10                     11                     12
                      A                      A                      A
 Frequencies --    418.0510               501.3783               547.3484
 Red. masses --      3.4626                 2.4261                 3.1511
 Frc consts  --      0.3565                 0.3593                 0.5562
 IR Inten    --      2.8957                 2.8641                 5.5518

                     13                     14                     15
                      A                      A                      A
 Frequencies --    560.6175               737.7145               753.4773
 Red. masses --      3.2267                 2.2428                 2.1180
 Frc consts  --      0.5975                 0.7192                 0.7085
 IR Inten    --      1.3788                 8.4717                 1.3717

                     16                     17                     18
                      A                      A                      A
 Frequencies --    781.9871               853.2413               872.7957
 Red. masses --      2.5390                 4.9628                 2.6696
 Frc consts  --      0.9148                 2.1287                 1.1982
 IR Inten    --      8.8946                10.9018                21.5502

                     19                     20                     21
                      A                      A                      A
 Frequencies --    899.7981               917.9536               967.6150
 Red. masses --      1.9425                 2.2112                 1.2838
 Frc consts  --      0.9266                 1.0978                 0.7082
 IR Inten    --      2.0960                17.3483                 8.0588

                     22                     23                     24
                      A                      A                      A
 Frequencies --    988.2861              1012.1848              1049.0557
 Red. masses --      1.8530                 1.7483                 1.3121
 Frc consts  --      1.0664                 1.0553                 0.8507
 IR Inten    --      4.6093                 3.1420                 3.9988

                     25                     26                     27
                      A                      A                      A
 Frequencies --   1092.9177              1096.7872              1106.0630
 Red. masses --      1.4445                 1.5054                 1.4078
 Frc consts  --      1.0166                 1.0669                 1.0147
 IR Inten    --     18.0917                20.5539                 0.5411

                     28                     29                     30
                      A                      A                      A
 Frequencies --   1128.1746              1168.2657              1172.6252
 Red. masses --      2.9106                 3.1311                 1.6316
 Frc consts  --      2.1827                 2.5179                 1.3218
 IR Inten    --    145.9360                 5.3483                10.6614

                     31                     32                     33
                      A                      A                      A
 Frequencies --   1234.2059              1255.8839              1289.3685
 Red. masses --      2.7697                 1.6319                 1.6847
 Frc consts  --      2.4857                 1.5165                 1.6501
 IR Inten    --     43.1247                29.0688                77.6831

                     34                     35                     36
                      A                      A                      A
 Frequencies --   1322.1133              1330.9628              1407.9775
 Red. masses --      2.7602                 2.0541                 1.3365
 Frc consts  --      2.8426                 2.1439                 1.5610
 IR Inten    --     29.6786                 5.4004                11.7747

                     37                     38                     39
                      A                      A                      A
 Frequencies --   1418.7685              1463.7451              1484.1436
 Red. masses --      1.4455                 1.7992                 1.0492
 Frc consts  --      1.7143                 2.2712                 1.3616
 IR Inten    --      8.1890                76.7308                 5.3132

                     40                     41                     42
                      A                      A                      A
 Frequencies --   1498.8067              1520.1237              3021.0327
 Red. masses --      1.0541                 1.7072                 1.0365
 Frc consts  --      1.3951                 2.3242                 5.5737
 IR Inten    --      9.3797                10.9648                40.3058

                     43                     44                     45
                      A                      A                      A
 Frequencies --   3077.3001              3105.0701              3119.5971
 Red. masses --      1.1005                 1.0990                 1.0551
 Frc consts  --      6.1401                 6.2432                 6.0498
 IR Inten    --     23.7220                15.2854                11.7021

                     46                     47                     48
                      A                      A                      A
 Frequencies --   3163.9780              3177.8679              3181.6141
 Red. masses --      1.0897                 1.0922                 1.0933
 Frc consts  --      6.4273                 6.4987                 6.5208
 IR Inten    --     13.8238                10.9797                13.5853

                     49                     50                     51
                      A                      A                      A
 Frequencies --   3203.5916              3777.7277              3805.9685
 Red. masses --      1.1112                 1.0662                 1.0657
 Frc consts  --      6.7192                 8.9648                 9.0952
 IR Inten    --     20.0853                17.4835                18.6258

 - Thermochemistry -
 -------------------
 Temperature   298.150 Kelvin.  Pressure   1.00000 Atm.
 Atom     1 has atomic number  6 and mass  12.00000

 Molecular mass:   126.06808 amu.
 Principal axes and moments of inertia in atomic units:
                           1         2         3
     Eigenvalues --   639.297021391.791941665.49928
           X            0.99940   0.03206   0.01283
           Y           -0.03152   0.99867  -0.04070
           Z           -0.01411   0.04028   0.99909
 This molecule is an asymmetric top.
 Rotational symmetry number  1.
 Warning -- assumption of classical behavior for rotation
           may cause significant error
 Rotational temperatures (Kelvin)      0.13548     0.06223     0.05200
 Rotational constants (GHZ):           2.82301     1.29670     1.08360
 Zero-point vibrational energy     411345.7 (Joules/Mol)
                                   98.31397 (Kcal/Mol)
 Warning -- explicit consideration of  13 degrees of freedom as
           vibrations may cause significant error
 Vibrational temperatures:    229.74   279.72   297.35   300.28   314.69
          (Kelvin)            375.30   404.04   509.76   577.36   601.48
                              721.37   787.51   806.60  1061.41  1084.08
                             1125.10  1227.62  1255.76  1294.61  1320.73
                             1392.18  1421.92  1456.31  1509.36  1572.46
                             1578.03  1591.38  1623.19  1680.87  1687.14
                             1775.74  1806.93  1855.11  1902.22  1914.96
                             2025.76  2041.29  2106.00  2135.35  2156.45
                             2187.12  4346.59  4427.54  4467.50  4488.40
                             4552.25  4572.24  4577.63  4609.25  5435.30
                             5475.93

 Zero-point correction=                           0.156673 (Hartree/Particle)
 Thermal correction to Energy=                    0.165681
 Thermal correction to Enthalpy=                  0.166625
 Thermal correction to Gibbs Free Energy=         0.123764
 Sum of electronic and zero-point Energies=           -422.940975
 Sum of electronic and thermal Energies=              -422.931967
 Sum of electronic and thermal Enthalpies=            -422.931023
 Sum of electronic and thermal Free Energies=         -422.973885

                     E (Thermal)             CV                S
                      KCal/Mol        Cal/Mol-Kelvin    Cal/Mol-Kelvin
 Total                  103.967             35.187             90.210
 Electronic               0.000              0.000              0.000
 Translational            0.889              2.981             40.409
 Rotational               0.889              2.981             28.784
 Vibrational            102.189             29.225             21.017
 Vibration     1          0.622              1.892              2.554
 Vibration     2          0.635              1.848              2.185
 Vibration     3          0.641              1.830              2.073
 Vibration     4          0.642              1.827              2.055
 Vibration     5          0.646              1.813              1.970
 Vibration     6          0.669              1.744              1.656
 Vibration     7          0.680              1.709              1.529
 Vibration     8          0.730              1.566              1.147
 Vibration     9          0.767              1.467              0.958
 Vibration    10          0.781              1.431              0.899
 Vibration    11          0.857              1.247              0.655
 Vibration    12          0.903              1.145              0.550
 Vibration    13          0.916              1.117              0.523

 Normal termination of Gaussian 09 at Tue Jan 28 00:24:13 2020.
